
     Program PWSCF v.6.1 (svn rev. 13369) starts on 29Jan2018 at 23:29:32 

     This program is part of the open-source Quantum ESPRESSO suite
     for quantum simulation of materials; please cite
         "P. Giannozzi et al., J. Phys.:Condens. Matter 21 395502 (2009);
          URL http://www.quantum-espresso.org", 
     in publications or presentations arising from this work. More details at
     http://www.quantum-espresso.org/quote

     Parallel version (MPI), running on    64 processors
     K-points division:     npool     =       4
     R & G space division:  proc/nbgrp/npool/nimage =      16
     Waiting for input...
     Reading input from standard input

     Current dimensions of program PWSCF are:
     Max number of different atomic species (ntypx) = 10
     Max number of k-points (npk) =  80000
     Max angular momentum in pseudopotentials (lmaxx) =  3

     Subspace diagonalization in iterative solution of the eigenvalue problem:
     a serial algorithm will be used


     Parallelization info
     --------------------
     sticks:   dense  smooth     PW     G-vecs:    dense   smooth      PW
     Min          71      35     10                 1550      542      91
     Max          72      36     11                 1553      545      95
     Sum        1151     571    173                24835     8685    1505



     bravais-lattice index     =            3
     lattice parameter (alat)  =       8.0000  a.u.
     unit-cell volume          =     256.0000 (a.u.)^3
     number of atoms/cell      =            1
     number of atomic types    =            1
     number of electrons       =         9.00
     number of Kohn-Sham states=            9
     kinetic-energy cutoff     =      40.0000  Ry
     charge density cutoff     =     320.0000  Ry
     convergence threshold     =      1.0E-10
     mixing beta               =       0.7000
     number of iterations used =            8  plain     mixing
     Exchange-correlation      = SLA  PW   PBE  PBE ( 1  4  3  4 0 0)
     nstep                     =           50


     celldm(1)=   8.000000  celldm(2)=   0.000000  celldm(3)=   0.000000
     celldm(4)=   0.000000  celldm(5)=   0.000000  celldm(6)=   0.000000

     crystal axes: (cart. coord. in units of alat)
               a(1) = (   0.500000   0.500000   0.500000 )  
               a(2) = (  -0.500000   0.500000   0.500000 )  
               a(3) = (  -0.500000  -0.500000   0.500000 )  

     reciprocal axes: (cart. coord. in units 2 pi/alat)
               b(1) = (  1.000000  0.000000  1.000000 )  
               b(2) = ( -1.000000  1.000000  0.000000 )  
               b(3) = (  0.000000 -1.000000  1.000000 )  


     PseudoPot. # 1 for Na read from file:
     /home/s1333534/quantum_espresso/qe-6.1/pseudo/Na_pbe_v1.uspp.F.UPF
     MD5 check sum: 76a99c7e9422403d3e93cbc85ab7bccb
     Pseudo is Ultrasoft, Zval =  9.0
     Generated by new atomic code, or converted to UPF format
     Using radial grid of  819 points,  5 beta functions with: 
                l(1) =   0
                l(2) =   0
                l(3) =   1
                l(4) =   1
                l(5) =   2
     Q(r) pseudized with  8 coefficients,  rinner =    1.250   1.250   1.250
                                                       1.250   1.250

     atomic species   valence    mass     pseudopotential
        Na             9.00    22.99000     Na( 1.00)

     48 Sym. Ops., with inversion, found



   Cartesian axes

     site n.     atom                  positions (alat units)
         1           Na  tau(   1) = (   0.0000000   0.0000000   0.0000000  )

     number of k points=   250  Marzari-Vanderbilt smearing, width (Ry)=  0.0200

     Number of k-points >= 100: set verbosity='high' to print them.

     Dense  grid:    24835 G-vectors     FFT dimensions: (  40,  40,  40)

     Smooth grid:     8685 G-vectors     FFT dimensions: (  27,  27,  27)

     Estimated max dynamical RAM per process >       1.67MB

     Estimated total allocated dynamical RAM >     106.95MB

     Initial potential from superposition of free atoms

     starting charge    8.99371, renormalised to    9.00000
     Starting wfc are    5 randomized atomic wfcs +    4 random wfc

     total cpu time spent up to now is        0.7 secs

     per-process dynamical memory:     8.7 Mb

     Self-consistent Calculation

     iteration #  1     ecut=    40.00 Ry     beta=0.70
     Davidson diagonalization with overlap
     ethr =  1.00E-02,  avg # of iterations =  5.9

     Threshold (ethr) on eigenvalues was too large:
     Diagonalizing with lowered threshold

     Davidson diagonalization with overlap
     ethr =  9.84E-06,  avg # of iterations =  4.6

     total cpu time spent up to now is        3.3 secs

     total energy              =     -95.10637783 Ry
     Harris-Foulkes estimate   =     -95.10656724 Ry
     estimated scf accuracy    <       0.00088330 Ry

     iteration #  2     ecut=    40.00 Ry     beta=0.70
     Davidson diagonalization with overlap
     ethr =  9.81E-06,  avg # of iterations =  2.0

     total cpu time spent up to now is        4.1 secs

     total energy              =     -95.10647613 Ry
     Harris-Foulkes estimate   =     -95.10649622 Ry
     estimated scf accuracy    <       0.00009726 Ry

     iteration #  3     ecut=    40.00 Ry     beta=0.70
     Davidson diagonalization with overlap
     ethr =  1.08E-06,  avg # of iterations =  2.1

     total cpu time spent up to now is        4.8 secs

     total energy              =     -95.10648758 Ry
     Harris-Foulkes estimate   =     -95.10648857 Ry
     estimated scf accuracy    <       0.00000602 Ry

     iteration #  4     ecut=    40.00 Ry     beta=0.70
     Davidson diagonalization with overlap
     ethr =  6.69E-08,  avg # of iterations =  1.0

     total cpu time spent up to now is        5.4 secs

     total energy              =     -95.10648815 Ry
     Harris-Foulkes estimate   =     -95.10648811 Ry
     estimated scf accuracy    <       0.00000001 Ry

     iteration #  5     ecut=    40.00 Ry     beta=0.70
     Davidson diagonalization with overlap
     ethr =  1.40E-10,  avg # of iterations =  3.0

     total cpu time spent up to now is        6.3 secs

     total energy              =     -95.10648818 Ry
     Harris-Foulkes estimate   =     -95.10648818 Ry
     estimated scf accuracy    <          1.7E-09 Ry

     iteration #  6     ecut=    40.00 Ry     beta=0.70
     Davidson diagonalization with overlap
     ethr =  1.91E-11,  avg # of iterations =  1.5

     total cpu time spent up to now is        7.0 secs

     End of self-consistent calculation

     Number of k-points >= 100: set verbosity='high' to print the bands.

     the Fermi energy is     1.5119 ev

!    total energy              =     -95.10648818 Ry
     Harris-Foulkes estimate   =     -95.10648818 Ry
     estimated scf accuracy    <          5.4E-11 Ry

     The total energy is the sum of the following terms:

     one-electron contribution =     -88.63760988 Ry
     hartree contribution      =      44.64395914 Ry
     xc contribution           =     -14.26550735 Ry
     ewald contribution        =     -36.84723868 Ry
     smearing contrib. (-TS)   =      -0.00009142 Ry

     convergence has been achieved in   6 iterations

     Forces acting on atoms (cartesian axes, Ry/au):

     atom    1 type  1   force =     0.00000000    0.00000000    0.00000000

     Total force =     0.000000     Total SCF correction =     0.000000


     Computing stress (Cartesian axis) and pressure

          total   stress  (Ry/bohr**3)                   (kbar)     P=   -4.56
  -0.00003097   0.00000000   0.00000000         -4.56      0.00      0.00
   0.00000000  -0.00003097   0.00000000          0.00     -4.56      0.00
   0.00000000   0.00000000  -0.00003097          0.00      0.00     -4.56


     BFGS Geometry Optimization

     number of scf cycles    =   1
     number of bfgs steps    =   0

     enthalpy new            =     -95.1238907140 Ry

     new trust radius        =       0.0029607381 bohr
     new conv_thr            =            1.0E-10 Ry

     new unit-cell volume =    256.71123 a.u.^3 (    38.04068 Ang^3 )
     density =      1.00355 g/cm^3

CELL_PARAMETERS (alat=  8.00000000)
   0.500462615   0.500462615   0.500462615
  -0.500462615   0.500462615   0.500462615
  -0.500462615  -0.500462615   0.500462615

ATOMIC_POSITIONS (crystal)
Na       0.000000000   0.000000000   0.000000000



     Writing output data file na.bcc.save
     NEW-OLD atomic charge density approx. for the potential
     extrapolated charge    9.02492, renormalised to    9.00000

     total cpu time spent up to now is        8.8 secs

     per-process dynamical memory:    13.3 Mb

     Self-consistent Calculation

     iteration #  1     ecut=    40.00 Ry     beta=0.70
     Davidson diagonalization with overlap
     ethr =  1.00E-06,  avg # of iterations =  2.0

     total cpu time spent up to now is        9.7 secs

     total energy              =     -95.10604970 Ry
     Harris-Foulkes estimate   =     -94.91034022 Ry
     estimated scf accuracy    <       0.00023202 Ry

     iteration #  2     ecut=    40.00 Ry     beta=0.70
     Davidson diagonalization with overlap
     ethr =  2.58E-06,  avg # of iterations =  3.0

     total cpu time spent up to now is       10.6 secs

     total energy              =     -95.10647350 Ry
     Harris-Foulkes estimate   =     -95.10664406 Ry
     estimated scf accuracy    <       0.00038843 Ry

     iteration #  3     ecut=    40.00 Ry     beta=0.70
     Davidson diagonalization with overlap
     ethr =  2.58E-06,  avg # of iterations =  1.8

     total cpu time spent up to now is       11.3 secs

     total energy              =     -95.10647292 Ry
     Harris-Foulkes estimate   =     -95.10649902 Ry
     estimated scf accuracy    <       0.00007558 Ry

     iteration #  4     ecut=    40.00 Ry     beta=0.70
     Davidson diagonalization with overlap
     ethr =  8.40E-07,  avg # of iterations =  1.0

     total cpu time spent up to now is       11.9 secs

     total energy              =     -95.10646668 Ry
     Harris-Foulkes estimate   =     -95.10647637 Ry
     estimated scf accuracy    <       0.00002418 Ry

     iteration #  5     ecut=    40.00 Ry     beta=0.70
     Davidson diagonalization with overlap
     ethr =  2.69E-07,  avg # of iterations =  1.0

     total cpu time spent up to now is       12.6 secs

     total energy              =     -95.10646647 Ry
     Harris-Foulkes estimate   =     -95.10646809 Ry
     estimated scf accuracy    <       0.00000592 Ry

     iteration #  6     ecut=    40.00 Ry     beta=0.70
     Davidson diagonalization with overlap
     ethr =  6.58E-08,  avg # of iterations =  1.0

     total cpu time spent up to now is       13.2 secs

     total energy              =     -95.10646669 Ry
     Harris-Foulkes estimate   =     -95.10646666 Ry
     estimated scf accuracy    <       0.00000272 Ry

     iteration #  7     ecut=    40.00 Ry     beta=0.70
     Davidson diagonalization with overlap
     ethr =  3.02E-08,  avg # of iterations =  1.0

     total cpu time spent up to now is       13.8 secs

     total energy              =     -95.10646494 Ry
     Harris-Foulkes estimate   =     -95.10646670 Ry
     estimated scf accuracy    <       0.00000288 Ry

     iteration #  8     ecut=    40.00 Ry     beta=0.70
     Davidson diagonalization with overlap
     ethr =  3.02E-08,  avg # of iterations =  2.0

     total cpu time spent up to now is       14.5 secs

     total energy              =     -95.10646539 Ry
     Harris-Foulkes estimate   =     -95.10646541 Ry
     estimated scf accuracy    <       0.00000005 Ry

     iteration #  9     ecut=    40.00 Ry     beta=0.70
     Davidson diagonalization with overlap
     ethr =  5.05E-10,  avg # of iterations =  1.8

     total cpu time spent up to now is       15.2 secs

     total energy              =     -95.10646539 Ry
     Harris-Foulkes estimate   =     -95.10646539 Ry
     estimated scf accuracy    <          6.3E-09 Ry

     iteration # 10     ecut=    40.00 Ry     beta=0.70
     Davidson diagonalization with overlap
     ethr =  7.01E-11,  avg # of iterations =  1.0

     total cpu time spent up to now is       15.8 secs

     total energy              =     -95.10646539 Ry
     Harris-Foulkes estimate   =     -95.10646539 Ry
     estimated scf accuracy    <          8.5E-09 Ry

     iteration # 11     ecut=    40.00 Ry     beta=0.70
     Davidson diagonalization with overlap
     ethr =  7.01E-11,  avg # of iterations =  1.7

     total cpu time spent up to now is       16.5 secs

     total energy              =     -95.10646539 Ry
     Harris-Foulkes estimate   =     -95.10646539 Ry
     estimated scf accuracy    <          1.8E-09 Ry

     iteration # 12     ecut=    40.00 Ry     beta=0.70
     Davidson diagonalization with overlap
     ethr =  2.05E-11,  avg # of iterations =  1.0

     total cpu time spent up to now is       17.1 secs

     total energy              =     -95.10646539 Ry
     Harris-Foulkes estimate   =     -95.10646539 Ry
     estimated scf accuracy    <          9.4E-10 Ry

     iteration # 13     ecut=    40.00 Ry     beta=0.70
     Davidson diagonalization with overlap
     ethr =  1.05E-11,  avg # of iterations =  2.0

     total cpu time spent up to now is       17.8 secs

     End of self-consistent calculation

     Number of k-points >= 100: set verbosity='high' to print the bands.

     the Fermi energy is     1.5006 ev

!    total energy              =     -95.10646539 Ry
     Harris-Foulkes estimate   =     -95.10646539 Ry
     estimated scf accuracy    <          3.5E-11 Ry

     The total energy is the sum of the following terms:

     one-electron contribution =     -88.69743700 Ry
     hartree contribution      =      44.66938802 Ry
     xc contribution           =     -14.26514714 Ry
     ewald contribution        =     -36.81317800 Ry
     smearing contrib. (-TS)   =      -0.00009127 Ry

     convergence has been achieved in  13 iterations

     Forces acting on atoms (cartesian axes, Ry/au):

     atom    1 type  1   force =     0.00000000    0.00000000    0.00000000

     Total force =     0.000000     Total SCF correction =     0.000000


     Computing stress (Cartesian axis) and pressure

          total   stress  (Ry/bohr**3)                   (kbar)     P=   -4.82
  -0.00003278   0.00000000  -0.00000000         -4.82      0.00     -0.00
   0.00000000  -0.00003278   0.00000000          0.00     -4.82      0.00
  -0.00000000   0.00000000  -0.00003278         -0.00      0.00     -4.82


     number of scf cycles    =   2
     number of bfgs steps    =   1

     enthalpy old            =     -95.1238907140 Ry
     enthalpy new            =     -95.1239162665 Ry

     CASE: enthalpy_new < enthalpy_old


     WARNING: bfgs curvature condition failed, Theta= 0.840
     new trust radius        =       0.0032583182 bohr
     new conv_thr            =            1.0E-12 Ry

     new unit-cell volume =    257.49511 a.u.^3 (    38.15684 Ang^3 )
     density =      1.00050 g/cm^3

CELL_PARAMETERS (alat=  8.00000000)
   0.500971492   0.500971492   0.500971492
  -0.500971492   0.500971492   0.500971492
  -0.500971492  -0.500971492   0.500971492

ATOMIC_POSITIONS (crystal)
Na       0.000000000   0.000000000   0.000000000



     Writing output data file na.bcc.save
     NEW-OLD atomic charge density approx. for the potential
     extrapolated charge    9.02738, renormalised to    9.00000

     total cpu time spent up to now is       19.5 secs

     per-process dynamical memory:    13.3 Mb

     Self-consistent Calculation

     iteration #  1     ecut=    40.00 Ry     beta=0.70
     Davidson diagonalization with overlap
     ethr =  1.00E-06,  avg # of iterations =  2.0

     total cpu time spent up to now is       20.3 secs

     total energy              =     -95.10593658 Ry
     Harris-Foulkes estimate   =     -94.89075887 Ry
     estimated scf accuracy    <       0.00028031 Ry

     iteration #  2     ecut=    40.00 Ry     beta=0.70
     Davidson diagonalization with overlap
     ethr =  3.11E-06,  avg # of iterations =  3.0

     total cpu time spent up to now is       21.3 secs

     total energy              =     -95.10644884 Ry
     Harris-Foulkes estimate   =     -95.10665496 Ry
     estimated scf accuracy    <       0.00046947 Ry

     iteration #  3     ecut=    40.00 Ry     beta=0.70
     Davidson diagonalization with overlap
     ethr =  3.11E-06,  avg # of iterations =  1.9

     total cpu time spent up to now is       22.0 secs

     total energy              =     -95.10644798 Ry
     Harris-Foulkes estimate   =     -95.10647967 Ry
     estimated scf accuracy    <       0.00009139 Ry

     iteration #  4     ecut=    40.00 Ry     beta=0.70
     Davidson diagonalization with overlap
     ethr =  1.02E-06,  avg # of iterations =  1.0

     total cpu time spent up to now is       22.8 secs

     total energy              =     -95.10644035 Ry
     Harris-Foulkes estimate   =     -95.10645217 Ry
     estimated scf accuracy    <       0.00002907 Ry

     iteration #  5     ecut=    40.00 Ry     beta=0.70
     Davidson diagonalization with overlap
     ethr =  3.23E-07,  avg # of iterations =  1.0

     total cpu time spent up to now is       23.4 secs

     total energy              =     -95.10644026 Ry
     Harris-Foulkes estimate   =     -95.10644209 Ry
     estimated scf accuracy    <       0.00000687 Ry

     iteration #  6     ecut=    40.00 Ry     beta=0.70
     Davidson diagonalization with overlap
     ethr =  7.64E-08,  avg # of iterations =  1.0

     total cpu time spent up to now is       24.0 secs

     total energy              =     -95.10644044 Ry
     Harris-Foulkes estimate   =     -95.10644048 Ry
     estimated scf accuracy    <       0.00000324 Ry

     iteration #  7     ecut=    40.00 Ry     beta=0.70
     Davidson diagonalization with overlap
     ethr =  3.60E-08,  avg # of iterations =  1.0

     total cpu time spent up to now is       24.7 secs

     total energy              =     -95.10643839 Ry
     Harris-Foulkes estimate   =     -95.10644044 Ry
     estimated scf accuracy    <       0.00000325 Ry

     iteration #  8     ecut=    40.00 Ry     beta=0.70
     Davidson diagonalization with overlap
     ethr =  3.60E-08,  avg # of iterations =  2.0

     total cpu time spent up to now is       25.4 secs

     total energy              =     -95.10643897 Ry
     Harris-Foulkes estimate   =     -95.10643898 Ry
     estimated scf accuracy    <       0.00000002 Ry

     iteration #  9     ecut=    40.00 Ry     beta=0.70
     Davidson diagonalization with overlap
     ethr =  2.48E-10,  avg # of iterations =  1.7

     total cpu time spent up to now is       26.1 secs

     total energy              =     -95.10643897 Ry
     Harris-Foulkes estimate   =     -95.10643897 Ry
     estimated scf accuracy    <          3.7E-09 Ry

     iteration # 10     ecut=    40.00 Ry     beta=0.70
     Davidson diagonalization with overlap
     ethr =  4.09E-11,  avg # of iterations =  1.5

     total cpu time spent up to now is       26.8 secs

     total energy              =     -95.10643897 Ry
     Harris-Foulkes estimate   =     -95.10643897 Ry
     estimated scf accuracy    <          8.7E-09 Ry

     iteration # 11     ecut=    40.00 Ry     beta=0.70
     Davidson diagonalization with overlap
     ethr =  4.09E-11,  avg # of iterations =  2.0

     total cpu time spent up to now is       27.5 secs

     total energy              =     -95.10643897 Ry
     Harris-Foulkes estimate   =     -95.10643897 Ry
     estimated scf accuracy    <          1.4E-10 Ry

     iteration # 12     ecut=    40.00 Ry     beta=0.70
     Davidson diagonalization with overlap
     ethr =  1.54E-12,  avg # of iterations =  2.0

     total cpu time spent up to now is       28.2 secs

     total energy              =     -95.10643897 Ry
     Harris-Foulkes estimate   =     -95.10643897 Ry
     estimated scf accuracy    <          7.0E-11 Ry

     iteration # 13     ecut=    40.00 Ry     beta=0.70
     Davidson diagonalization with overlap
     ethr =  7.82E-13,  avg # of iterations =  2.0

     total cpu time spent up to now is       29.0 secs

     total energy              =     -95.10643897 Ry
     Harris-Foulkes estimate   =     -95.10643897 Ry
     estimated scf accuracy    <          1.7E-10 Ry

     iteration # 14     ecut=    40.00 Ry     beta=0.70
     Davidson diagonalization with overlap
     ethr =  7.82E-13,  avg # of iterations =  2.0

     total cpu time spent up to now is       29.8 secs

     total energy              =     -95.10643897 Ry
     Harris-Foulkes estimate   =     -95.10643897 Ry
     estimated scf accuracy    <          1.3E-11 Ry

     iteration # 15     ecut=    40.00 Ry     beta=0.70
     Davidson diagonalization with overlap
     ethr =  1.44E-13,  avg # of iterations =  1.0

     total cpu time spent up to now is       30.7 secs

     total energy              =     -95.10643897 Ry
     Harris-Foulkes estimate   =     -95.10643897 Ry
     estimated scf accuracy    <          1.7E-11 Ry

     iteration # 16     ecut=    40.00 Ry     beta=0.70
     Davidson diagonalization with overlap
     ethr =  1.44E-13,  avg # of iterations =  2.0

     total cpu time spent up to now is       31.4 secs

     End of self-consistent calculation

     Number of k-points >= 100: set verbosity='high' to print the bands.

     the Fermi energy is     1.4883 ev

!    total energy              =     -95.10643897 Ry
     Harris-Foulkes estimate   =     -95.10643897 Ry
     estimated scf accuracy    <          1.3E-13 Ry

     The total energy is the sum of the following terms:

     one-electron contribution =     -88.76314813 Ry
     hartree contribution      =      44.69734157 Ry
     xc contribution           =     -14.26475739 Ry
     ewald contribution        =     -36.77578390 Ry
     smearing contrib. (-TS)   =      -0.00009112 Ry

     convergence has been achieved in  16 iterations

     Forces acting on atoms (cartesian axes, Ry/au):

     atom    1 type  1   force =     0.00000000    0.00000000    0.00000000

     Total force =     0.000000     Total SCF correction =     0.000000


     Computing stress (Cartesian axis) and pressure

          total   stress  (Ry/bohr**3)                   (kbar)     P=   -5.08
  -0.00003455  -0.00000000   0.00000000         -5.08     -0.00      0.00
  -0.00000000  -0.00003455  -0.00000000         -0.00     -5.08     -0.00
   0.00000000  -0.00000000  -0.00003455          0.00     -0.00     -5.08


     number of scf cycles    =   3
     number of bfgs steps    =   2

     enthalpy old            =     -95.1239162665 Ry
     enthalpy new            =     -95.1239431328 Ry

     CASE: enthalpy_new < enthalpy_old

     new trust radius        =       0.0048899615 bohr
     new conv_thr            =            1.0E-12 Ry

     new unit-cell volume =    258.67392 a.u.^3 (    38.33152 Ang^3 )
     density =      0.99594 g/cm^3

CELL_PARAMETERS (alat=  8.00000000)
   0.501734807   0.501734807   0.501734807
  -0.501734807   0.501734807   0.501734807
  -0.501734807  -0.501734807   0.501734807

ATOMIC_POSITIONS (crystal)
Na       0.000000000   0.000000000   0.000000000



     Writing output data file na.bcc.save
     NEW-OLD atomic charge density approx. for the potential
     extrapolated charge    9.04099, renormalised to    9.00000

     total cpu time spent up to now is       33.1 secs

     per-process dynamical memory:    13.3 Mb

     Self-consistent Calculation

     iteration #  1     ecut=    40.00 Ry     beta=0.70
     Davidson diagonalization with overlap
     ethr =  1.00E-06,  avg # of iterations =  2.3

     total cpu time spent up to now is       34.0 secs

     total energy              =     -95.10526440 Ry
     Harris-Foulkes estimate   =     -94.78306938 Ry
     estimated scf accuracy    <       0.00063160 Ry

     iteration #  2     ecut=    40.00 Ry     beta=0.70
     Davidson diagonalization with overlap
     ethr =  7.02E-06,  avg # of iterations =  3.0

     total cpu time spent up to now is       35.0 secs

     total energy              =     -95.10641955 Ry
     Harris-Foulkes estimate   =     -95.10688400 Ry
     estimated scf accuracy    <       0.00105792 Ry

     iteration #  3     ecut=    40.00 Ry     beta=0.70
     Davidson diagonalization with overlap
     ethr =  7.02E-06,  avg # of iterations =  1.8

     total cpu time spent up to now is       35.8 secs

     total energy              =     -95.10641734 Ry
     Harris-Foulkes estimate   =     -95.10648878 Ry
     estimated scf accuracy    <       0.00020665 Ry

     iteration #  4     ecut=    40.00 Ry     beta=0.70
     Davidson diagonalization with overlap
     ethr =  2.30E-06,  avg # of iterations =  1.0

     total cpu time spent up to now is       36.4 secs

     total energy              =     -95.10639994 Ry
     Harris-Foulkes estimate   =     -95.10642677 Ry
     estimated scf accuracy    <       0.00006609 Ry

     iteration #  5     ecut=    40.00 Ry     beta=0.70
     Davidson diagonalization with overlap
     ethr =  7.34E-07,  avg # of iterations =  1.0

     total cpu time spent up to now is       37.0 secs

     total energy              =     -95.10639958 Ry
     Harris-Foulkes estimate   =     -95.10640387 Ry
     estimated scf accuracy    <       0.00001571 Ry

     iteration #  6     ecut=    40.00 Ry     beta=0.70
     Davidson diagonalization with overlap
     ethr =  1.75E-07,  avg # of iterations =  1.0

     total cpu time spent up to now is       37.6 secs

     total energy              =     -95.10640011 Ry
     Harris-Foulkes estimate   =     -95.10640009 Ry
     estimated scf accuracy    <       0.00000720 Ry

     iteration #  7     ecut=    40.00 Ry     beta=0.70
     Davidson diagonalization with overlap
     ethr =  8.01E-08,  avg # of iterations =  1.0

     total cpu time spent up to now is       38.2 secs

     total energy              =     -95.10639549 Ry
     Harris-Foulkes estimate   =     -95.10640013 Ry
     estimated scf accuracy    <       0.00000749 Ry

     iteration #  8     ecut=    40.00 Ry     beta=0.70
     Davidson diagonalization with overlap
     ethr =  8.01E-08,  avg # of iterations =  2.0

     total cpu time spent up to now is       39.0 secs

     total energy              =     -95.10639672 Ry
     Harris-Foulkes estimate   =     -95.10639676 Ry
     estimated scf accuracy    <       0.00000010 Ry

     iteration #  9     ecut=    40.00 Ry     beta=0.70
     Davidson diagonalization with overlap
     ethr =  1.11E-09,  avg # of iterations =  1.7

     total cpu time spent up to now is       39.6 secs

     total energy              =     -95.10639673 Ry
     Harris-Foulkes estimate   =     -95.10639673 Ry
     estimated scf accuracy    <       0.00000001 Ry

     iteration # 10     ecut=    40.00 Ry     beta=0.70
     Davidson diagonalization with overlap
     ethr =  1.62E-10,  avg # of iterations =  1.0

     total cpu time spent up to now is       40.2 secs

     total energy              =     -95.10639672 Ry
     Harris-Foulkes estimate   =     -95.10639673 Ry
     estimated scf accuracy    <       0.00000002 Ry

     iteration # 11     ecut=    40.00 Ry     beta=0.70
     Davidson diagonalization with overlap
     ethr =  1.62E-10,  avg # of iterations =  2.0

     total cpu time spent up to now is       41.0 secs

     total energy              =     -95.10639672 Ry
     Harris-Foulkes estimate   =     -95.10639672 Ry
     estimated scf accuracy    <          3.2E-09 Ry

     iteration # 12     ecut=    40.00 Ry     beta=0.70
     Davidson diagonalization with overlap
     ethr =  3.58E-11,  avg # of iterations =  1.0

     total cpu time spent up to now is       41.6 secs

     total energy              =     -95.10639672 Ry
     Harris-Foulkes estimate   =     -95.10639672 Ry
     estimated scf accuracy    <          2.3E-09 Ry

     iteration # 13     ecut=    40.00 Ry     beta=0.70
     Davidson diagonalization with overlap
     ethr =  2.60E-11,  avg # of iterations =  1.0

     total cpu time spent up to now is       42.2 secs

     total energy              =     -95.10639672 Ry
     Harris-Foulkes estimate   =     -95.10639672 Ry
     estimated scf accuracy    <          3.1E-10 Ry

     iteration # 14     ecut=    40.00 Ry     beta=0.70
     Davidson diagonalization with overlap
     ethr =  3.44E-12,  avg # of iterations =  2.0

     total cpu time spent up to now is       43.2 secs

     total energy              =     -95.10639672 Ry
     Harris-Foulkes estimate   =     -95.10639672 Ry
     estimated scf accuracy    <          9.3E-11 Ry

     iteration # 15     ecut=    40.00 Ry     beta=0.70
     Davidson diagonalization with overlap
     ethr =  1.03E-12,  avg # of iterations =  1.0

     total cpu time spent up to now is       43.9 secs

     total energy              =     -95.10639672 Ry
     Harris-Foulkes estimate   =     -95.10639672 Ry
     estimated scf accuracy    <          1.5E-10 Ry

     iteration # 16     ecut=    40.00 Ry     beta=0.70
     Davidson diagonalization with overlap
     ethr =  1.03E-12,  avg # of iterations =  1.6

     total cpu time spent up to now is       44.5 secs

     total energy              =     -95.10639672 Ry
     Harris-Foulkes estimate   =     -95.10639672 Ry
     estimated scf accuracy    <          1.1E-10 Ry

     iteration # 17     ecut=    40.00 Ry     beta=0.70
     Davidson diagonalization with overlap
     ethr =  1.03E-12,  avg # of iterations =  1.6

     total cpu time spent up to now is       45.2 secs

     End of self-consistent calculation

     Number of k-points >= 100: set verbosity='high' to print the bands.

     the Fermi energy is     1.4699 ev

!    total energy              =     -95.10639672 Ry
     Harris-Foulkes estimate   =     -95.10639672 Ry
     estimated scf accuracy    <          3.9E-13 Ry

     The total energy is the sum of the following terms:

     one-electron contribution =     -88.86147195 Ry
     hartree contribution      =      44.73917468 Ry
     xc contribution           =     -14.26417357 Ry
     ewald contribution        =     -36.71983499 Ry
     smearing contrib. (-TS)   =      -0.00009089 Ry

     convergence has been achieved in  17 iterations

     Forces acting on atoms (cartesian axes, Ry/au):

     atom    1 type  1   force =     0.00000000    0.00000000    0.00000000

     Total force =     0.000000     Total SCF correction =     0.000000


     Computing stress (Cartesian axis) and pressure

          total   stress  (Ry/bohr**3)                   (kbar)     P=   -5.46
  -0.00003714   0.00000000  -0.00000000         -5.46      0.00     -0.00
   0.00000000  -0.00003714   0.00000000          0.00     -5.46      0.00
  -0.00000000   0.00000000  -0.00003714         -0.00      0.00     -5.46


     number of scf cycles    =   4
     number of bfgs steps    =   3

     enthalpy old            =     -95.1239431328 Ry
     enthalpy new            =     -95.1239810188 Ry

     CASE: enthalpy_new < enthalpy_old

     new trust radius        =       0.0073405281 bohr
     new conv_thr            =            1.0E-12 Ry

     new unit-cell volume =    260.44887 a.u.^3 (    38.59454 Ang^3 )
     density =      0.98915 g/cm^3

CELL_PARAMETERS (alat=  8.00000000)
   0.502879780   0.502879780   0.502879780
  -0.502879780   0.502879780   0.502879780
  -0.502879780  -0.502879780   0.502879780

ATOMIC_POSITIONS (crystal)
Na       0.000000000   0.000000000   0.000000000



     Writing output data file na.bcc.save
     NEW-OLD atomic charge density approx. for the potential
     extrapolated charge    9.06129, renormalised to    9.00000

     total cpu time spent up to now is       46.9 secs

     per-process dynamical memory:    13.3 Mb

     Self-consistent Calculation

     iteration #  1     ecut=    40.00 Ry     beta=0.70
     Davidson diagonalization with overlap
     ethr =  1.00E-06,  avg # of iterations =  2.9

     total cpu time spent up to now is       47.9 secs

     total energy              =     -95.10377331 Ry
     Harris-Foulkes estimate   =     -94.62177415 Ry
     estimated scf accuracy    <       0.00142407 Ry

     iteration #  2     ecut=    40.00 Ry     beta=0.70
     Davidson diagonalization with overlap
     ethr =  1.58E-05,  avg # of iterations =  3.0

     total cpu time spent up to now is       48.9 secs

     total energy              =     -95.10638097 Ry
     Harris-Foulkes estimate   =     -95.10742832 Ry
     estimated scf accuracy    <       0.00238578 Ry

     iteration #  3     ecut=    40.00 Ry     beta=0.70
     Davidson diagonalization with overlap
     ethr =  1.58E-05,  avg # of iterations =  1.8

     total cpu time spent up to now is       49.6 secs

     total energy              =     -95.10637525 Ry
     Harris-Foulkes estimate   =     -95.10653628 Ry
     estimated scf accuracy    <       0.00046857 Ry

     iteration #  4     ecut=    40.00 Ry     beta=0.70
     Davidson diagonalization with overlap
     ethr =  5.21E-06,  avg # of iterations =  1.0

     total cpu time spent up to now is       50.2 secs

     total energy              =     -95.10633580 Ry
     Harris-Foulkes estimate   =     -95.10639648 Ry
     estimated scf accuracy    <       0.00015130 Ry

     iteration #  5     ecut=    40.00 Ry     beta=0.70
     Davidson diagonalization with overlap
     ethr =  1.68E-06,  avg # of iterations =  1.0

     total cpu time spent up to now is       50.8 secs

     total energy              =     -95.10633382 Ry
     Harris-Foulkes estimate   =     -95.10634451 Ry
     estimated scf accuracy    <       0.00003718 Ry

     iteration #  6     ecut=    40.00 Ry     beta=0.70
     Davidson diagonalization with overlap
     ethr =  4.13E-07,  avg # of iterations =  1.0

     total cpu time spent up to now is       51.4 secs

     total energy              =     -95.10633519 Ry
     Harris-Foulkes estimate   =     -95.10633508 Ry
     estimated scf accuracy    <       0.00001606 Ry

     iteration #  7     ecut=    40.00 Ry     beta=0.70
     Davidson diagonalization with overlap
     ethr =  1.78E-07,  avg # of iterations =  1.0

     total cpu time spent up to now is       52.0 secs

     total energy              =     -95.10632862 Ry
     Harris-Foulkes estimate   =     -95.10633524 Ry
     estimated scf accuracy    <       0.00001693 Ry

     iteration #  8     ecut=    40.00 Ry     beta=0.70
     Davidson diagonalization with overlap
     ethr =  1.78E-07,  avg # of iterations =  1.0

     total cpu time spent up to now is       52.7 secs

     total energy              =     -95.10632690 Ry
     Harris-Foulkes estimate   =     -95.10632951 Ry
     estimated scf accuracy    <       0.00000462 Ry

     iteration #  9     ecut=    40.00 Ry     beta=0.70
     Davidson diagonalization with overlap
     ethr =  5.13E-08,  avg # of iterations =  2.0

     total cpu time spent up to now is       53.4 secs

     total energy              =     -95.10632771 Ry
     Harris-Foulkes estimate   =     -95.10632762 Ry
     estimated scf accuracy    <       0.00000019 Ry

     iteration # 10     ecut=    40.00 Ry     beta=0.70
     Davidson diagonalization with overlap
     ethr =  2.11E-09,  avg # of iterations =  1.0

     total cpu time spent up to now is       54.1 secs

     total energy              =     -95.10632767 Ry
     Harris-Foulkes estimate   =     -95.10632772 Ry
     estimated scf accuracy    <       0.00000043 Ry

     iteration # 11     ecut=    40.00 Ry     beta=0.70
     Davidson diagonalization with overlap
     ethr =  2.11E-09,  avg # of iterations =  1.0

     total cpu time spent up to now is       54.7 secs

     total energy              =     -95.10632758 Ry
     Harris-Foulkes estimate   =     -95.10632767 Ry
     estimated scf accuracy    <       0.00000031 Ry

     iteration # 12     ecut=    40.00 Ry     beta=0.70
     Davidson diagonalization with overlap
     ethr =  2.11E-09,  avg # of iterations =  1.0

     total cpu time spent up to now is       55.3 secs

     total energy              =     -95.10632766 Ry
     Harris-Foulkes estimate   =     -95.10632759 Ry
     estimated scf accuracy    <       0.00000011 Ry

     iteration # 13     ecut=    40.00 Ry     beta=0.70
     Davidson diagonalization with overlap
     ethr =  1.19E-09,  avg # of iterations =  1.0

     total cpu time spent up to now is       56.0 secs

     total energy              =     -95.10632784 Ry
     Harris-Foulkes estimate   =     -95.10632767 Ry
     estimated scf accuracy    <       0.00000030 Ry

     iteration # 14     ecut=    40.00 Ry     beta=0.70
     Davidson diagonalization with overlap
     ethr =  1.19E-09,  avg # of iterations =  2.0

     total cpu time spent up to now is       56.8 secs

     total energy              =     -95.10632740 Ry
     Harris-Foulkes estimate   =     -95.10632785 Ry
     estimated scf accuracy    <       0.00000074 Ry

     iteration # 15     ecut=    40.00 Ry     beta=0.70
     Davidson diagonalization with overlap
     ethr =  1.19E-09,  avg # of iterations =  2.2

     total cpu time spent up to now is       57.6 secs

     total energy              =     -95.10632754 Ry
     Harris-Foulkes estimate   =     -95.10632755 Ry
     estimated scf accuracy    <          6.8E-09 Ry

     iteration # 16     ecut=    40.00 Ry     beta=0.70
     Davidson diagonalization with overlap
     ethr =  7.56E-11,  avg # of iterations =  2.0

     total cpu time spent up to now is       58.3 secs

     total energy              =     -95.10632754 Ry
     Harris-Foulkes estimate   =     -95.10632754 Ry
     estimated scf accuracy    <          3.2E-11 Ry

     iteration # 17     ecut=    40.00 Ry     beta=0.70
     Davidson diagonalization with overlap
     ethr =  3.57E-13,  avg # of iterations =  1.0

     total cpu time spent up to now is       59.0 secs

     total energy              =     -95.10632754 Ry
     Harris-Foulkes estimate   =     -95.10632754 Ry
     estimated scf accuracy    <          2.1E-11 Ry

     iteration # 18     ecut=    40.00 Ry     beta=0.70
     Davidson diagonalization with overlap
     ethr =  2.37E-13,  avg # of iterations =  1.0

     total cpu time spent up to now is       59.6 secs

     total energy              =     -95.10632754 Ry
     Harris-Foulkes estimate   =     -95.10632754 Ry
     estimated scf accuracy    <          9.0E-12 Ry

     iteration # 19     ecut=    40.00 Ry     beta=0.70
     Davidson diagonalization with overlap
     ethr =  1.00E-13,  avg # of iterations =  1.0

     total cpu time spent up to now is       60.2 secs

     total energy              =     -95.10632754 Ry
     Harris-Foulkes estimate   =     -95.10632754 Ry
     estimated scf accuracy    <          1.8E-12 Ry

     iteration # 20     ecut=    40.00 Ry     beta=0.70
     Davidson diagonalization with overlap
     ethr =  1.00E-13,  avg # of iterations =  1.0

     total cpu time spent up to now is       60.8 secs

     End of self-consistent calculation

     Number of k-points >= 100: set verbosity='high' to print the bands.

     the Fermi energy is     1.4426 ev

!    total energy              =     -95.10632754 Ry
     Harris-Foulkes estimate   =     -95.10632754 Ry
     estimated scf accuracy    <          8.0E-13 Ry

     The total energy is the sum of the following terms:

     one-electron contribution =     -89.00843759 Ry
     hartree contribution      =      44.80173617 Ry
     xc contribution           =     -14.26330549 Ry
     ewald contribution        =     -36.63623008 Ry
     smearing contrib. (-TS)   =      -0.00009054 Ry

     convergence has been achieved in  20 iterations

     Forces acting on atoms (cartesian axes, Ry/au):

     atom    1 type  1   force =     0.00000000    0.00000000    0.00000000

     Total force =     0.000000     Total SCF correction =     0.000000


     Computing stress (Cartesian axis) and pressure

          total   stress  (Ry/bohr**3)                   (kbar)     P=   -6.00
  -0.00004078   0.00000000  -0.00000000         -6.00      0.00     -0.00
   0.00000000  -0.00004078   0.00000000          0.00     -6.00      0.00
   0.00000000   0.00000000  -0.00004078          0.00      0.00     -6.00


     number of scf cycles    =   5
     number of bfgs steps    =   4

     enthalpy old            =     -95.1239810188 Ry
     enthalpy new            =     -95.1240324996 Ry

     CASE: enthalpy_new < enthalpy_old

     new trust radius        =       0.0110233485 bohr
     new conv_thr            =            1.0E-12 Ry

     new unit-cell volume =    263.12648 a.u.^3 (    38.99132 Ang^3 )
     density =      0.97908 g/cm^3

CELL_PARAMETERS (alat=  8.00000000)
   0.504597240   0.504597240   0.504597240
  -0.504597240   0.504597240   0.504597240
  -0.504597240  -0.504597240   0.504597240

ATOMIC_POSITIONS (crystal)
Na       0.000000000   0.000000000   0.000000000



     Writing output data file na.bcc.save
     NEW-OLD atomic charge density approx. for the potential
     extrapolated charge    9.09152, renormalised to    9.00000

     total cpu time spent up to now is       62.5 secs

     per-process dynamical memory:    13.3 Mb

     Self-consistent Calculation

     iteration #  1     ecut=    40.00 Ry     beta=0.70
     Davidson diagonalization with overlap
     ethr =  1.00E-06,  avg # of iterations =  3.3

     total cpu time spent up to now is       63.6 secs

     total energy              =     -95.10044134 Ry
     Harris-Foulkes estimate   =     -94.38037862 Ry
     estimated scf accuracy    <       0.00321493 Ry

     iteration #  2     ecut=    40.00 Ry     beta=0.70
     Davidson diagonalization with overlap
     ethr =  3.57E-05,  avg # of iterations =  3.0

     total cpu time spent up to now is       64.6 secs

     total energy              =     -95.10633817 Ry
     Harris-Foulkes estimate   =     -95.10870288 Ry
     estimated scf accuracy    <       0.00538673 Ry

     iteration #  3     ecut=    40.00 Ry     beta=0.70
     Davidson diagonalization with overlap
     ethr =  3.57E-05,  avg # of iterations =  1.8

     total cpu time spent up to now is       65.3 secs

     total energy              =     -95.10632174 Ry
     Harris-Foulkes estimate   =     -95.10668613 Ry
     estimated scf accuracy    <       0.00106623 Ry

     iteration #  4     ecut=    40.00 Ry     beta=0.70
     Davidson diagonalization with overlap
     ethr =  1.18E-05,  avg # of iterations =  1.0

     total cpu time spent up to now is       65.9 secs

     total energy              =     -95.10623179 Ry
     Harris-Foulkes estimate   =     -95.10636968 Ry
     estimated scf accuracy    <       0.00034743 Ry

     iteration #  5     ecut=    40.00 Ry     beta=0.70
     Davidson diagonalization with overlap
     ethr =  3.86E-06,  avg # of iterations =  1.0

     total cpu time spent up to now is       66.6 secs

     total energy              =     -95.10622422 Ry
     Harris-Foulkes estimate   =     -95.10625121 Ry
     estimated scf accuracy    <       0.00008788 Ry

     iteration #  6     ecut=    40.00 Ry     beta=0.70
     Davidson diagonalization with overlap
     ethr =  9.76E-07,  avg # of iterations =  1.0

     total cpu time spent up to now is       67.2 secs

     total energy              =     -95.10622532 Ry
     Harris-Foulkes estimate   =     -95.10622745 Ry
     estimated scf accuracy    <       0.00003494 Ry

     iteration #  7     ecut=    40.00 Ry     beta=0.70
     Davidson diagonalization with overlap
     ethr =  3.88E-07,  avg # of iterations =  1.0

     total cpu time spent up to now is       67.8 secs

     total energy              =     -95.10620333 Ry
     Harris-Foulkes estimate   =     -95.10622545 Ry
     estimated scf accuracy    <       0.00003215 Ry

     iteration #  8     ecut=    40.00 Ry     beta=0.70
     Davidson diagonalization with overlap
     ethr =  3.57E-07,  avg # of iterations =  2.0

     total cpu time spent up to now is       68.7 secs

     total energy              =     -95.10621095 Ry
     Harris-Foulkes estimate   =     -95.10621109 Ry
     estimated scf accuracy    <       0.00000030 Ry

     iteration #  9     ecut=    40.00 Ry     beta=0.70
     Davidson diagonalization with overlap
     ethr =  3.30E-09,  avg # of iterations =  2.0

     total cpu time spent up to now is       69.5 secs

     total energy              =     -95.10621103 Ry
     Harris-Foulkes estimate   =     -95.10621100 Ry
     estimated scf accuracy    <       0.00000004 Ry

     iteration # 10     ecut=    40.00 Ry     beta=0.70
     Davidson diagonalization with overlap
     ethr =  4.26E-10,  avg # of iterations =  2.0

     total cpu time spent up to now is       70.2 secs

     total energy              =     -95.10621102 Ry
     Harris-Foulkes estimate   =     -95.10621104 Ry
     estimated scf accuracy    <       0.00000012 Ry

     iteration # 11     ecut=    40.00 Ry     beta=0.70
     Davidson diagonalization with overlap
     ethr =  4.26E-10,  avg # of iterations =  1.0

     total cpu time spent up to now is       70.8 secs

     total energy              =     -95.10621098 Ry
     Harris-Foulkes estimate   =     -95.10621102 Ry
     estimated scf accuracy    <       0.00000009 Ry

     iteration # 12     ecut=    40.00 Ry     beta=0.70
     Davidson diagonalization with overlap
     ethr =  4.26E-10,  avg # of iterations =  2.0

     total cpu time spent up to now is       71.6 secs

     total energy              =     -95.10621099 Ry
     Harris-Foulkes estimate   =     -95.10621099 Ry
     estimated scf accuracy    <          2.0E-09 Ry

     iteration # 13     ecut=    40.00 Ry     beta=0.70
     Davidson diagonalization with overlap
     ethr =  2.22E-11,  avg # of iterations =  2.0

     total cpu time spent up to now is       72.3 secs

     total energy              =     -95.10621099 Ry
     Harris-Foulkes estimate   =     -95.10621099 Ry
     estimated scf accuracy    <          5.0E-12 Ry

     iteration # 14     ecut=    40.00 Ry     beta=0.70
     Davidson diagonalization with overlap
     ethr =  1.00E-13,  avg # of iterations =  1.6

     total cpu time spent up to now is       73.0 secs

     total energy              =     -95.10621099 Ry
     Harris-Foulkes estimate   =     -95.10621099 Ry
     estimated scf accuracy    <          4.1E-12 Ry

     iteration # 15     ecut=    40.00 Ry     beta=0.70
     Davidson diagonalization with overlap
     ethr =  1.00E-13,  avg # of iterations =  2.0

     total cpu time spent up to now is       73.8 secs

     total energy              =     -95.10621099 Ry
     Harris-Foulkes estimate   =     -95.10621099 Ry
     estimated scf accuracy    <          2.9E-11 Ry

     iteration # 16     ecut=    40.00 Ry     beta=0.70
     Davidson diagonalization with overlap
     ethr =  1.00E-13,  avg # of iterations =  2.0

     total cpu time spent up to now is       74.6 secs

     total energy              =     -95.10621099 Ry
     Harris-Foulkes estimate   =     -95.10621099 Ry
     estimated scf accuracy    <          1.3E-12 Ry

     iteration # 17     ecut=    40.00 Ry     beta=0.70
     Davidson diagonalization with overlap
     ethr =  1.00E-13,  avg # of iterations =  1.0

     total cpu time spent up to now is       75.2 secs

     End of self-consistent calculation

     Number of k-points >= 100: set verbosity='high' to print the bands.

     the Fermi energy is     1.4021 ev

!    total energy              =     -95.10621099 Ry
     Harris-Foulkes estimate   =     -95.10621099 Ry
     estimated scf accuracy    <          3.0E-15 Ry

     The total energy is the sum of the following terms:

     one-electron contribution =     -89.22768358 Ry
     hartree contribution      =      44.89510839 Ry
     xc contribution           =     -14.26201165 Ry
     ewald contribution        =     -36.51153412 Ry
     smearing contrib. (-TS)   =      -0.00009003 Ry

     convergence has been achieved in  17 iterations

     Forces acting on atoms (cartesian axes, Ry/au):

     atom    1 type  1   force =     0.00000000    0.00000000    0.00000000

     Total force =     0.000000     Total SCF correction =     0.000000


     Computing stress (Cartesian axis) and pressure

          total   stress  (Ry/bohr**3)                   (kbar)     P=   -6.79
  -0.00004619   0.00000000  -0.00000000         -6.79      0.00     -0.00
   0.00000000  -0.00004619   0.00000000          0.00     -6.79      0.00
  -0.00000000   0.00000000  -0.00004619         -0.00      0.00     -6.79


     number of scf cycles    =   6
     number of bfgs steps    =   5

     enthalpy old            =     -95.1240324996 Ry
     enthalpy new            =     -95.1240979664 Ry

     CASE: enthalpy_new < enthalpy_old

     new trust radius        =       0.0165632343 bohr
     new conv_thr            =            1.0E-12 Ry

     new unit-cell volume =    267.17722 a.u.^3 (    39.59158 Ang^3 )
     density =      0.96424 g/cm^3

CELL_PARAMETERS (alat=  8.00000000)
   0.507173429   0.507173429   0.507173429
  -0.507173429   0.507173429   0.507173429
  -0.507173429  -0.507173429   0.507173429

ATOMIC_POSITIONS (crystal)
Na       0.000000000   0.000000000   0.000000000



     Writing output data file na.bcc.save
     NEW-OLD atomic charge density approx. for the potential
     extrapolated charge    9.13636, renormalised to    9.00000

     total cpu time spent up to now is       76.9 secs

     per-process dynamical memory:    13.3 Mb

     Self-consistent Calculation

     iteration #  1     ecut=    40.00 Ry     beta=0.70
     Davidson diagonalization with overlap
     ethr =  1.00E-06,  avg # of iterations =  3.8

     total cpu time spent up to now is       78.1 secs

     total energy              =     -95.09294973 Ry
     Harris-Foulkes estimate   =     -94.01954838 Ry
     estimated scf accuracy    <       0.00727075 Ry

     iteration #  2     ecut=    40.00 Ry     beta=0.70
     Davidson diagonalization with overlap
     ethr =  8.08E-05,  avg # of iterations =  3.0

     total cpu time spent up to now is       79.1 secs

     total energy              =     -95.10631814 Ry
     Harris-Foulkes estimate   =     -95.11166657 Ry
     estimated scf accuracy    <       0.01218324 Ry

     iteration #  3     ecut=    40.00 Ry     beta=0.70
     Davidson diagonalization with overlap
     ethr =  8.08E-05,  avg # of iterations =  1.7

     total cpu time spent up to now is       79.8 secs

     total energy              =     -95.10626673 Ry
     Harris-Foulkes estimate   =     -95.10709618 Ry
     estimated scf accuracy    <       0.00243893 Ry

     iteration #  4     ecut=    40.00 Ry     beta=0.70
     Davidson diagonalization with overlap
     ethr =  2.71E-05,  avg # of iterations =  1.0

     total cpu time spent up to now is       80.4 secs

     total energy              =     -95.10606007 Ry
     Harris-Foulkes estimate   =     -95.10637575 Ry
     estimated scf accuracy    <       0.00080164 Ry

     iteration #  5     ecut=    40.00 Ry     beta=0.70
     Davidson diagonalization with overlap
     ethr =  8.91E-06,  avg # of iterations =  1.0

     total cpu time spent up to now is       81.0 secs

     total energy              =     -95.10603524 Ry
     Harris-Foulkes estimate   =     -95.10610371 Ry
     estimated scf accuracy    <       0.00020773 Ry

     iteration #  6     ecut=    40.00 Ry     beta=0.70
     Davidson diagonalization with overlap
     ethr =  2.31E-06,  avg # of iterations =  1.0

     total cpu time spent up to now is       81.6 secs

     total energy              =     -95.10602847 Ry
     Harris-Foulkes estimate   =     -95.10604361 Ry
     estimated scf accuracy    <       0.00007490 Ry

     iteration #  7     ecut=    40.00 Ry     beta=0.70
     Davidson diagonalization with overlap
     ethr =  8.32E-07,  avg # of iterations =  1.0

     total cpu time spent up to now is       82.4 secs

     total energy              =     -95.10600009 Ry
     Harris-Foulkes estimate   =     -95.10602947 Ry
     estimated scf accuracy    <       0.00004528 Ry

     iteration #  8     ecut=    40.00 Ry     beta=0.70
     Davidson diagonalization with overlap
     ethr =  5.03E-07,  avg # of iterations =  2.0

     total cpu time spent up to now is       83.2 secs

     total energy              =     -95.10600833 Ry
     Harris-Foulkes estimate   =     -95.10600842 Ry
     estimated scf accuracy    <       0.00000020 Ry

     iteration #  9     ecut=    40.00 Ry     beta=0.70
     Davidson diagonalization with overlap
     ethr =  2.20E-09,  avg # of iterations =  1.5

     total cpu time spent up to now is       83.8 secs

     total energy              =     -95.10600839 Ry
     Harris-Foulkes estimate   =     -95.10600835 Ry
     estimated scf accuracy    <       0.00000004 Ry

     iteration # 10     ecut=    40.00 Ry     beta=0.70
     Davidson diagonalization with overlap
     ethr =  4.50E-10,  avg # of iterations =  2.0

     total cpu time spent up to now is       84.6 secs

     total energy              =     -95.10600832 Ry
     Harris-Foulkes estimate   =     -95.10600840 Ry
     estimated scf accuracy    <       0.00000014 Ry

     iteration # 11     ecut=    40.00 Ry     beta=0.70
     Davidson diagonalization with overlap
     ethr =  4.50E-10,  avg # of iterations =  2.0

     total cpu time spent up to now is       85.4 secs

     total energy              =     -95.10600834 Ry
     Harris-Foulkes estimate   =     -95.10600834 Ry
     estimated scf accuracy    <       0.00000001 Ry

     iteration # 12     ecut=    40.00 Ry     beta=0.70
     Davidson diagonalization with overlap
     ethr =  1.62E-10,  avg # of iterations =  1.0

     total cpu time spent up to now is       86.0 secs

     total energy              =     -95.10600834 Ry
     Harris-Foulkes estimate   =     -95.10600834 Ry
     estimated scf accuracy    <          7.7E-11 Ry

     iteration # 13     ecut=    40.00 Ry     beta=0.70
     Davidson diagonalization with overlap
     ethr =  8.61E-13,  avg # of iterations =  2.0

     total cpu time spent up to now is       86.8 secs

     total energy              =     -95.10600834 Ry
     Harris-Foulkes estimate   =     -95.10600834 Ry
     estimated scf accuracy    <          2.2E-11 Ry

     iteration # 14     ecut=    40.00 Ry     beta=0.70
     Davidson diagonalization with overlap
     ethr =  2.41E-13,  avg # of iterations =  2.0

     total cpu time spent up to now is       87.5 secs

     total energy              =     -95.10600834 Ry
     Harris-Foulkes estimate   =     -95.10600834 Ry
     estimated scf accuracy    <          6.5E-12 Ry

     iteration # 15     ecut=    40.00 Ry     beta=0.70
     Davidson diagonalization with overlap
     ethr =  1.00E-13,  avg # of iterations =  1.0

     total cpu time spent up to now is       88.2 secs

     total energy              =     -95.10600834 Ry
     Harris-Foulkes estimate   =     -95.10600834 Ry
     estimated scf accuracy    <          1.4E-12 Ry

     iteration # 16     ecut=    40.00 Ry     beta=0.70
     Davidson diagonalization with overlap
     ethr =  1.00E-13,  avg # of iterations =  1.0

     total cpu time spent up to now is       88.8 secs

     End of self-consistent calculation

     Number of k-points >= 100: set verbosity='high' to print the bands.

     the Fermi energy is     1.3424 ev

!    total energy              =     -95.10600834 Ry
     Harris-Foulkes estimate   =     -95.10600834 Ry
     estimated scf accuracy    <          1.4E-14 Ry

     The total energy is the sum of the following terms:

     one-electron contribution =     -89.55391228 Ry
     hartree contribution      =      45.03416430 Ry
     xc contribution           =     -14.26009743 Ry
     ewald contribution        =     -36.32607366 Ry
     smearing contrib. (-TS)   =      -0.00008927 Ry

     convergence has been achieved in  16 iterations

     Forces acting on atoms (cartesian axes, Ry/au):

     atom    1 type  1   force =     0.00000000    0.00000000    0.00000000

     Total force =     0.000000     Total SCF correction =     0.000000


     Computing stress (Cartesian axis) and pressure

          total   stress  (Ry/bohr**3)                   (kbar)     P=   -7.91
  -0.00005377  -0.00000000   0.00000000         -7.91     -0.00      0.00
  -0.00000000  -0.00005377  -0.00000000         -0.00     -7.91     -0.00
   0.00000000  -0.00000000  -0.00005377          0.00     -0.00     -7.91


     number of scf cycles    =   7
     number of bfgs steps    =   6

     enthalpy old            =     -95.1240979664 Ry
     enthalpy new            =     -95.1241706782 Ry

     CASE: enthalpy_new < enthalpy_old

     new trust radius        =       0.0249081925 bohr
     new conv_thr            =            1.0E-12 Ry

     new unit-cell volume =    273.33095 a.u.^3 (    40.50347 Ang^3 )
     density =      0.94253 g/cm^3

CELL_PARAMETERS (alat=  8.00000000)
   0.511037713   0.511037713   0.511037713
  -0.511037713   0.511037713   0.511037713
  -0.511037713  -0.511037713   0.511037713

ATOMIC_POSITIONS (crystal)
Na       0.000000000   0.000000000   0.000000000



     Writing output data file na.bcc.save
     NEW-OLD atomic charge density approx. for the potential
     extrapolated charge    9.20248, renormalised to    9.00000

     total cpu time spent up to now is       90.5 secs

     per-process dynamical memory:    13.3 Mb

     Self-consistent Calculation

     iteration #  1     ecut=    40.00 Ry     beta=0.70
     Davidson diagonalization with overlap
     ethr =  1.00E-06,  avg # of iterations =  4.2

     total cpu time spent up to now is       91.7 secs

     total energy              =     -95.07598698 Ry
     Harris-Foulkes estimate   =     -93.48124107 Ry
     estimated scf accuracy    <       0.01649839 Ry

     iteration #  2     ecut=    40.00 Ry     beta=0.70
     Davidson diagonalization with overlap
     ethr =  1.83E-04,  avg # of iterations =  3.0

     total cpu time spent up to now is       92.8 secs

     total energy              =     -95.10642203 Ry
     Harris-Foulkes estimate   =     -95.11855569 Ry
     estimated scf accuracy    <       0.02763491 Ry

     iteration #  3     ecut=    40.00 Ry     beta=0.70
     Davidson diagonalization with overlap
     ethr =  1.83E-04,  avg # of iterations =  1.6

     total cpu time spent up to now is       93.5 secs

     total energy              =     -95.10625705 Ry
     Harris-Foulkes estimate   =     -95.10815626 Ry
     estimated scf accuracy    <       0.00562728 Ry

     iteration #  4     ecut=    40.00 Ry     beta=0.70
     Davidson diagonalization with overlap
     ethr =  6.25E-05,  avg # of iterations =  1.0

     total cpu time spent up to now is       94.2 secs

     total energy              =     -95.10578511 Ry
     Harris-Foulkes estimate   =     -95.10650767 Ry
     estimated scf accuracy    <       0.00187038 Ry

     iteration #  5     ecut=    40.00 Ry     beta=0.70
     Davidson diagonalization with overlap
     ethr =  2.08E-05,  avg # of iterations =  1.0

     total cpu time spent up to now is       94.8 secs

     total energy              =     -95.10569207 Ry
     Harris-Foulkes estimate   =     -95.10588103 Ry
     estimated scf accuracy    <       0.00051084 Ry

     iteration #  6     ecut=    40.00 Ry     beta=0.70
     Davidson diagonalization with overlap
     ethr =  5.68E-06,  avg # of iterations =  1.0

     total cpu time spent up to now is       95.4 secs

     total energy              =     -95.10564287 Ry
     Harris-Foulkes estimate   =     -95.10571644 Ry
     estimated scf accuracy    <       0.00015271 Ry

     iteration #  7     ecut=    40.00 Ry     beta=0.70
     Davidson diagonalization with overlap
     ethr =  1.70E-06,  avg # of iterations =  1.1

     total cpu time spent up to now is       96.2 secs

     total energy              =     -95.10564037 Ry
     Harris-Foulkes estimate   =     -95.10565491 Ry
     estimated scf accuracy    <       0.00002267 Ry

     iteration #  8     ecut=    40.00 Ry     beta=0.70
     Davidson diagonalization with overlap
     ethr =  2.52E-07,  avg # of iterations =  2.0

     total cpu time spent up to now is       96.9 secs

     total energy              =     -95.10564504 Ry
     Harris-Foulkes estimate   =     -95.10564512 Ry
     estimated scf accuracy    <       0.00000017 Ry

     iteration #  9     ecut=    40.00 Ry     beta=0.70
     Davidson diagonalization with overlap
     ethr =  1.92E-09,  avg # of iterations =  1.7

     total cpu time spent up to now is       97.6 secs

     total energy              =     -95.10564508 Ry
     Harris-Foulkes estimate   =     -95.10564506 Ry
     estimated scf accuracy    <       0.00000002 Ry

     iteration # 10     ecut=    40.00 Ry     beta=0.70
     Davidson diagonalization with overlap
     ethr =  2.76E-10,  avg # of iterations =  2.0

     total cpu time spent up to now is       98.4 secs

     total energy              =     -95.10564503 Ry
     Harris-Foulkes estimate   =     -95.10564508 Ry
     estimated scf accuracy    <       0.00000008 Ry

     iteration # 11     ecut=    40.00 Ry     beta=0.70
     Davidson diagonalization with overlap
     ethr =  2.76E-10,  avg # of iterations =  2.0

     total cpu time spent up to now is       99.1 secs

     total energy              =     -95.10564505 Ry
     Harris-Foulkes estimate   =     -95.10564505 Ry
     estimated scf accuracy    <          3.3E-09 Ry

     iteration # 12     ecut=    40.00 Ry     beta=0.70
     Davidson diagonalization with overlap
     ethr =  3.69E-11,  avg # of iterations =  1.6

     total cpu time spent up to now is       99.8 secs

     total energy              =     -95.10564505 Ry
     Harris-Foulkes estimate   =     -95.10564505 Ry
     estimated scf accuracy    <          6.6E-09 Ry

     iteration # 13     ecut=    40.00 Ry     beta=0.70
     Davidson diagonalization with overlap
     ethr =  3.69E-11,  avg # of iterations =  1.0

     total cpu time spent up to now is      100.4 secs

     total energy              =     -95.10564505 Ry
     Harris-Foulkes estimate   =     -95.10564505 Ry
     estimated scf accuracy    <          2.8E-09 Ry

     iteration # 14     ecut=    40.00 Ry     beta=0.70
     Davidson diagonalization with overlap
     ethr =  3.08E-11,  avg # of iterations =  1.6

     total cpu time spent up to now is      101.1 secs

     total energy              =     -95.10564505 Ry
     Harris-Foulkes estimate   =     -95.10564505 Ry
     estimated scf accuracy    <          4.7E-11 Ry

     iteration # 15     ecut=    40.00 Ry     beta=0.70
     Davidson diagonalization with overlap
     ethr =  5.20E-13,  avg # of iterations =  2.0

     total cpu time spent up to now is      101.8 secs

     total energy              =     -95.10564505 Ry
     Harris-Foulkes estimate   =     -95.10564505 Ry
     estimated scf accuracy    <          1.6E-11 Ry

     iteration # 16     ecut=    40.00 Ry     beta=0.70
     Davidson diagonalization with overlap
     ethr =  1.78E-13,  avg # of iterations =  1.4

     total cpu time spent up to now is      102.5 secs

     total energy              =     -95.10564505 Ry
     Harris-Foulkes estimate   =     -95.10564505 Ry
     estimated scf accuracy    <          1.3E-12 Ry

     iteration # 17     ecut=    40.00 Ry     beta=0.70
     Davidson diagonalization with overlap
     ethr =  1.00E-13,  avg # of iterations =  1.0

     total cpu time spent up to now is      103.3 secs

     End of self-consistent calculation

     Number of k-points >= 100: set verbosity='high' to print the bands.

     the Fermi energy is     1.2552 ev

!    total energy              =     -95.10564505 Ry
     Harris-Foulkes estimate   =     -95.10564505 Ry
     estimated scf accuracy    <          8.5E-14 Ry

     The total energy is the sum of the following terms:

     one-electron contribution =     -90.03739537 Ry
     hartree contribution      =      45.24050979 Ry
     xc contribution           =     -14.25728236 Ry
     ewald contribution        =     -36.05138893 Ry
     smearing contrib. (-TS)   =      -0.00008818 Ry

     convergence has been achieved in  17 iterations

     Forces acting on atoms (cartesian axes, Ry/au):

     atom    1 type  1   force =     0.00000000    0.00000000    0.00000000

     Total force =     0.000000     Total SCF correction =     0.000000


     Computing stress (Cartesian axis) and pressure

          total   stress  (Ry/bohr**3)                   (kbar)     P=   -9.43
  -0.00006409   0.00000000  -0.00000000         -9.43      0.00     -0.00
   0.00000000  -0.00006409   0.00000000          0.00     -9.43      0.00
  -0.00000000   0.00000000  -0.00006409         -0.00      0.00     -9.43


     number of scf cycles    =   8
     number of bfgs steps    =   7

     enthalpy old            =     -95.1241706782 Ry
     enthalpy new            =     -95.1242257106 Ry

     CASE: enthalpy_new < enthalpy_old

     new trust radius        =       0.0096272639 bohr
     new conv_thr            =            1.0E-12 Ry

     new unit-cell volume =    275.72538 a.u.^3 (    40.85828 Ang^3 )
     density =      0.93435 g/cm^3

CELL_PARAMETERS (alat=  8.00000000)
   0.512525639   0.512525639   0.512525639
  -0.512525639   0.512525639   0.512525639
  -0.512525639  -0.512525639   0.512525639

ATOMIC_POSITIONS (crystal)
Na       0.000000000   0.000000000   0.000000000



     Writing output data file na.bcc.save
     NEW-OLD atomic charge density approx. for the potential
     extrapolated charge    9.07810, renormalised to    9.00000

     total cpu time spent up to now is      105.0 secs

     per-process dynamical memory:    13.3 Mb

     Self-consistent Calculation

     iteration #  1     ecut=    40.00 Ry     beta=0.70
     Davidson diagonalization with overlap
     ethr =  1.00E-06,  avg # of iterations =  3.2

     total cpu time spent up to now is      106.0 secs

     total energy              =     -95.10128976 Ry
     Harris-Foulkes estimate   =     -94.47876919 Ry
     estimated scf accuracy    <       0.00233786 Ry

     iteration #  2     ecut=    40.00 Ry     beta=0.70
     Davidson diagonalization with overlap
     ethr =  2.60E-05,  avg # of iterations =  3.0

     total cpu time spent up to now is      107.3 secs

     total energy              =     -95.10557777 Ry
     Harris-Foulkes estimate   =     -95.10729763 Ry
     estimated scf accuracy    <       0.00391729 Ry

     iteration #  3     ecut=    40.00 Ry     beta=0.70
     Davidson diagonalization with overlap
     ethr =  2.60E-05,  avg # of iterations =  1.9

     total cpu time spent up to now is      107.9 secs

     total energy              =     -95.10555794 Ry
     Harris-Foulkes estimate   =     -95.10583223 Ry
     estimated scf accuracy    <       0.00077068 Ry

     iteration #  4     ecut=    40.00 Ry     beta=0.70
     Davidson diagonalization with overlap
     ethr =  8.56E-06,  avg # of iterations =  1.0

     total cpu time spent up to now is      108.6 secs

     total energy              =     -95.10548969 Ry
     Harris-Foulkes estimate   =     -95.10559443 Ry
     estimated scf accuracy    <       0.00023632 Ry

     iteration #  5     ecut=    40.00 Ry     beta=0.70
     Davidson diagonalization with overlap
     ethr =  2.63E-06,  avg # of iterations =  1.0

     total cpu time spent up to now is      109.2 secs

     total energy              =     -95.10549724 Ry
     Harris-Foulkes estimate   =     -95.10550690 Ry
     estimated scf accuracy    <       0.00004397 Ry

     iteration #  6     ecut=    40.00 Ry     beta=0.70
     Davidson diagonalization with overlap
     ethr =  4.89E-07,  avg # of iterations =  1.0

     total cpu time spent up to now is      109.8 secs

     total energy              =     -95.10549720 Ry
     Harris-Foulkes estimate   =     -95.10549864 Ry
     estimated scf accuracy    <       0.00002531 Ry

     iteration #  7     ecut=    40.00 Ry     beta=0.70
     Davidson diagonalization with overlap
     ethr =  2.81E-07,  avg # of iterations =  1.0

     total cpu time spent up to now is      110.4 secs

     total energy              =     -95.10548003 Ry
     Harris-Foulkes estimate   =     -95.10549727 Ry
     estimated scf accuracy    <       0.00002205 Ry

     iteration #  8     ecut=    40.00 Ry     beta=0.70
     Davidson diagonalization with overlap
     ethr =  2.45E-07,  avg # of iterations =  2.0

     total cpu time spent up to now is      111.1 secs

     total energy              =     -95.10548677 Ry
     Harris-Foulkes estimate   =     -95.10548834 Ry
     estimated scf accuracy    <       0.00000265 Ry

     iteration #  9     ecut=    40.00 Ry     beta=0.70
     Davidson diagonalization with overlap
     ethr =  2.94E-08,  avg # of iterations =  2.0

     total cpu time spent up to now is      111.9 secs

     total energy              =     -95.10548722 Ry
     Harris-Foulkes estimate   =     -95.10548723 Ry
     estimated scf accuracy    <       0.00000002 Ry

     iteration # 10     ecut=    40.00 Ry     beta=0.70
     Davidson diagonalization with overlap
     ethr =  2.76E-10,  avg # of iterations =  2.0

     total cpu time spent up to now is      112.6 secs

     total energy              =     -95.10548723 Ry
     Harris-Foulkes estimate   =     -95.10548723 Ry
     estimated scf accuracy    <          6.0E-09 Ry

     iteration # 11     ecut=    40.00 Ry     beta=0.70
     Davidson diagonalization with overlap
     ethr =  6.68E-11,  avg # of iterations =  2.0

     total cpu time spent up to now is      113.4 secs

     total energy              =     -95.10548723 Ry
     Harris-Foulkes estimate   =     -95.10548723 Ry
     estimated scf accuracy    <          8.6E-09 Ry

     iteration # 12     ecut=    40.00 Ry     beta=0.70
     Davidson diagonalization with overlap
     ethr =  6.68E-11,  avg # of iterations =  1.0

     total cpu time spent up to now is      114.0 secs

     total energy              =     -95.10548723 Ry
     Harris-Foulkes estimate   =     -95.10548723 Ry
     estimated scf accuracy    <          2.5E-09 Ry

     iteration # 13     ecut=    40.00 Ry     beta=0.70
     Davidson diagonalization with overlap
     ethr =  2.73E-11,  avg # of iterations =  2.0

     total cpu time spent up to now is      114.8 secs

     total energy              =     -95.10548723 Ry
     Harris-Foulkes estimate   =     -95.10548723 Ry
     estimated scf accuracy    <          5.8E-12 Ry

     iteration # 14     ecut=    40.00 Ry     beta=0.70
     Davidson diagonalization with overlap
     ethr =  1.00E-13,  avg # of iterations =  3.0

     total cpu time spent up to now is      115.8 secs

     total energy              =     -95.10548723 Ry
     Harris-Foulkes estimate   =     -95.10548723 Ry
     estimated scf accuracy    <          5.5E-11 Ry

     iteration # 15     ecut=    40.00 Ry     beta=0.70
     Davidson diagonalization with overlap
     ethr =  1.00E-13,  avg # of iterations =  2.2

     total cpu time spent up to now is      116.6 secs

     total energy              =     -95.10548723 Ry
     Harris-Foulkes estimate   =     -95.10548723 Ry
     estimated scf accuracy    <          3.0E-12 Ry

     iteration # 16     ecut=    40.00 Ry     beta=0.70
     Davidson diagonalization with overlap
     ethr =  1.00E-13,  avg # of iterations =  1.6

     total cpu time spent up to now is      117.2 secs

     total energy              =     -95.10548723 Ry
     Harris-Foulkes estimate   =     -95.10548723 Ry
     estimated scf accuracy    <          7.0E-12 Ry

     iteration # 17     ecut=    40.00 Ry     beta=0.70
     Davidson diagonalization with overlap
     ethr =  1.00E-13,  avg # of iterations =  1.6

     total cpu time spent up to now is      117.9 secs

     End of self-consistent calculation

     Number of k-points >= 100: set verbosity='high' to print the bands.

     the Fermi energy is     1.2223 ev

!    total energy              =     -95.10548723 Ry
     Harris-Foulkes estimate   =     -95.10548723 Ry
     estimated scf accuracy    <          3.0E-14 Ry

     The total energy is the sum of the following terms:

     one-electron contribution =     -90.22171481 Ry
     hartree contribution      =      45.31925940 Ry
     xc contribution           =     -14.25621682 Ry
     ewald contribution        =     -35.94672722 Ry
     smearing contrib. (-TS)   =      -0.00008777 Ry

     convergence has been achieved in  17 iterations

     Forces acting on atoms (cartesian axes, Ry/au):

     atom    1 type  1   force =     0.00000000    0.00000000    0.00000000

     Total force =     0.000000     Total SCF correction =     0.000000


     Computing stress (Cartesian axis) and pressure

          total   stress  (Ry/bohr**3)                   (kbar)     P=   -9.96
  -0.00006771   0.00000000  -0.00000000         -9.96      0.00     -0.00
   0.00000000  -0.00006771   0.00000000          0.00     -9.96      0.00
  -0.00000000   0.00000000  -0.00006771         -0.00      0.00     -9.96


     bfgs converged in   9 scf cycles and   8 bfgs steps
     (criteria: energy <  1.0E-04 Ry, force <  1.0E-03Ry/Bohr, cell <  5.0E-02kbar)

     End of BFGS Geometry Optimization

     Final enthalpy =     -95.1242306600 Ry
Begin final coordinates
     new unit-cell volume =    275.72538 a.u.^3 (    40.85828 Ang^3 )
     density =      0.93435 g/cm^3

CELL_PARAMETERS (alat=  8.00000000)
   0.512525639   0.512525639   0.512525639
  -0.512525639   0.512525639   0.512525639
  -0.512525639  -0.512525639   0.512525639

ATOMIC_POSITIONS (crystal)
Na       0.000000000   0.000000000   0.000000000
End final coordinates



     A final scf calculation at the relaxed structure.
     The G-vectors are recalculated for the final unit cell
     Results may differ from those at the preceding step.

     Parallelization info
     --------------------
     sticks:   dense  smooth     PW     G-vecs:    dense   smooth      PW
     Min          75      38     11                 1659      590      99
     Max          76      39     12                 1661      591     101
     Sum        1215     611    181                26563     9453    1601



     bravais-lattice index     =            3
     lattice parameter (alat)  =       8.0000  a.u.
     unit-cell volume          =     275.7254 (a.u.)^3
     number of atoms/cell      =            1
     number of atomic types    =            1
     number of electrons       =         9.00
     number of Kohn-Sham states=            9
     kinetic-energy cutoff     =      40.0000  Ry
     charge density cutoff     =     320.0000  Ry
     convergence threshold     =      1.0E-12
     mixing beta               =       0.7000
     number of iterations used =            8  plain     mixing
     Exchange-correlation      = SLA  PW   PBE  PBE ( 1  4  3  4 0 0)

     celldm(1)=   8.000000  celldm(2)=   0.000000  celldm(3)=   0.000000
     celldm(4)=   0.000000  celldm(5)=   0.000000  celldm(6)=   0.000000

     crystal axes: (cart. coord. in units of alat)
               a(1) = (   0.512526   0.512526   0.512526 )  
               a(2) = (  -0.512526   0.512526   0.512526 )  
               a(3) = (  -0.512526  -0.512526   0.512526 )  

     reciprocal axes: (cart. coord. in units 2 pi/alat)
               b(1) = (  0.975561 -0.000000  0.975561 )  
               b(2) = ( -0.975561  0.975561 -0.000000 )  
               b(3) = (  0.000000 -0.975561  0.975561 )  


     PseudoPot. # 1 for Na read from file:
     /home/s1333534/quantum_espresso/qe-6.1/pseudo/Na_pbe_v1.uspp.F.UPF
     MD5 check sum: 76a99c7e9422403d3e93cbc85ab7bccb
     Pseudo is Ultrasoft, Zval =  9.0
     Generated by new atomic code, or converted to UPF format
     Using radial grid of  819 points,  5 beta functions with: 
                l(1) =   0
                l(2) =   0
                l(3) =   1
                l(4) =   1
                l(5) =   2
     Q(r) pseudized with  8 coefficients,  rinner =    1.250   1.250   1.250
                                                       1.250   1.250

     atomic species   valence    mass     pseudopotential
        Na             9.00    22.99000     Na( 1.00)

     48 Sym. Ops., with inversion, found



   Cartesian axes

     site n.     atom                  positions (alat units)
         1           Na  tau(   1) = (   0.0000000   0.0000000   0.0000000  )

     number of k points=   250  Marzari-Vanderbilt smearing, width (Ry)=  0.0200

     Number of k-points >= 100: set verbosity='high' to print them.

     Dense  grid:    26563 G-vectors     FFT dimensions: (  45,  45,  45)

     Smooth grid:     9453 G-vectors     FFT dimensions: (  30,  30,  30)

     Estimated max dynamical RAM per process >       1.85MB

     Estimated total allocated dynamical RAM >     118.52MB

     Initial potential from superposition of free atoms

     starting charge    8.99371, renormalised to    9.00000
     Starting wfc are    5 randomized atomic wfcs +    4 random wfc

     Writing output data file na.bcc.save

     total cpu time spent up to now is      119.9 secs

     per-process dynamical memory:    13.6 Mb

     Self-consistent Calculation

     iteration #  1     ecut=    40.00 Ry     beta=0.70
     Davidson diagonalization with overlap
     c_bands:  1 eigenvalues not converged
     c_bands:  1 eigenvalues not converged
     ethr =  1.00E-06,  avg # of iterations = 12.4

     total cpu time spent up to now is      122.4 secs

     total energy              =     -95.10580704 Ry
     Harris-Foulkes estimate   =     -95.10597393 Ry
     estimated scf accuracy    <       0.00088622 Ry

     iteration #  2     ecut=    40.00 Ry     beta=0.70
     Davidson diagonalization with overlap
     ethr =  9.85E-06,  avg # of iterations =  2.0

     total cpu time spent up to now is      123.2 secs

     total energy              =     -95.10590343 Ry
     Harris-Foulkes estimate   =     -95.10592298 Ry
     estimated scf accuracy    <       0.00009858 Ry

     iteration #  3     ecut=    40.00 Ry     beta=0.70
     Davidson diagonalization with overlap
     ethr =  1.10E-06,  avg # of iterations =  2.0

     total cpu time spent up to now is      124.0 secs

     total energy              =     -95.10591515 Ry
     Harris-Foulkes estimate   =     -95.10591613 Ry
     estimated scf accuracy    <       0.00000618 Ry

     iteration #  4     ecut=    40.00 Ry     beta=0.70
     Davidson diagonalization with overlap
     ethr =  6.87E-08,  avg # of iterations =  1.0

     total cpu time spent up to now is      124.6 secs

     total energy              =     -95.10591573 Ry
     Harris-Foulkes estimate   =     -95.10591569 Ry
     estimated scf accuracy    <       0.00000001 Ry

     iteration #  5     ecut=    40.00 Ry     beta=0.70
     Davidson diagonalization with overlap
     ethr =  1.66E-10,  avg # of iterations =  3.0

     total cpu time spent up to now is      125.7 secs

     total energy              =     -95.10591576 Ry
     Harris-Foulkes estimate   =     -95.10591576 Ry
     estimated scf accuracy    <          1.9E-09 Ry

     iteration #  6     ecut=    40.00 Ry     beta=0.70
     Davidson diagonalization with overlap
     ethr =  2.10E-11,  avg # of iterations =  1.0

     total cpu time spent up to now is      126.3 secs

     total energy              =     -95.10591576 Ry
     Harris-Foulkes estimate   =     -95.10591576 Ry
     estimated scf accuracy    <          1.2E-10 Ry

     iteration #  7     ecut=    40.00 Ry     beta=0.70
     Davidson diagonalization with overlap
     ethr =  1.29E-12,  avg # of iterations =  2.0

     total cpu time spent up to now is      127.1 secs

     total energy              =     -95.10591576 Ry
     Harris-Foulkes estimate   =     -95.10591576 Ry
     estimated scf accuracy    <          1.7E-12 Ry

     iteration #  8     ecut=    40.00 Ry     beta=0.70
     Davidson diagonalization with overlap
     ethr =  1.00E-13,  avg # of iterations =  1.1

     total cpu time spent up to now is      127.8 secs

     End of self-consistent calculation

     Number of k-points >= 100: set verbosity='high' to print the bands.

     the Fermi energy is     1.2226 ev

!    total energy              =     -95.10591576 Ry
     Harris-Foulkes estimate   =     -95.10591576 Ry
     estimated scf accuracy    <          4.5E-13 Ry

     The total energy is the sum of the following terms:

     one-electron contribution =     -90.22220054 Ry
     hartree contribution      =      45.31943321 Ry
     xc contribution           =     -14.25633344 Ry
     ewald contribution        =     -35.94672722 Ry
     smearing contrib. (-TS)   =      -0.00008777 Ry

     convergence has been achieved in   8 iterations

     Forces acting on atoms (cartesian axes, Ry/au):

     atom    1 type  1   force =     0.00000000    0.00000000    0.00000000

     Total force =     0.000000     Total SCF correction =     0.000000


     Computing stress (Cartesian axis) and pressure

          total   stress  (Ry/bohr**3)                   (kbar)     P=   -8.96
  -0.00006094   0.00000000  -0.00000000         -8.96      0.00     -0.00
   0.00000000  -0.00006094   0.00000000          0.00     -8.96      0.00
  -0.00000000   0.00000000  -0.00006094         -0.00      0.00     -8.96


     Writing output data file na.bcc.save

     init_run     :      0.99s CPU      1.05s WALL (       2 calls)
     electrons    :    103.77s CPU    111.60s WALL (      10 calls)
     update_pot   :      1.70s CPU      1.72s WALL (       8 calls)
     forces       :      1.02s CPU      1.03s WALL (      10 calls)
     stress       :      3.15s CPU      3.17s WALL (      10 calls)

     Called by init_run:
     wfcinit      :      0.37s CPU      0.40s WALL (       2 calls)
     potinit      :      0.11s CPU      0.11s WALL (       2 calls)

     Called by electrons:
     c_bands      :     82.77s CPU     89.62s WALL (     148 calls)
     sum_band     :     17.14s CPU     18.03s WALL (     148 calls)
     v_of_rho     :      1.72s CPU      1.74s WALL (     157 calls)
     newd         :      1.55s CPU      1.57s WALL (     157 calls)
     mix_rho      :      0.28s CPU      0.28s WALL (     148 calls)

     Called by c_bands:
     init_us_2    :      1.63s CPU      1.73s WALL (   20034 calls)
     cegterg      :     75.07s CPU     81.71s WALL (    9324 calls)

     Called by sum_band:
     sum_band:bec :      0.10s CPU      0.11s WALL (    9324 calls)
     addusdens    :      1.94s CPU      1.96s WALL (     148 calls)

     Called by *egterg:
     h_psi        :     56.70s CPU     60.36s WALL (   26369 calls)
     s_psi        :      0.60s CPU      0.64s WALL (   26369 calls)
     g_psi        :      0.15s CPU      0.18s WALL (   16919 calls)
     cdiaghg      :      9.01s CPU     10.22s WALL (   25676 calls)

     Called by h_psi:
     h_psi:pot    :     56.47s CPU     60.10s WALL (   26369 calls)
     h_psi:calbec :      2.29s CPU      2.42s WALL (   26369 calls)
     vloc_psi     :     53.31s CPU     56.76s WALL (   26369 calls)
     add_vuspsi   :      0.62s CPU      0.66s WALL (   26369 calls)

     General routines
     calbec       :      3.24s CPU      3.42s WALL (   38843 calls)
     fft          :      1.73s CPU      1.77s WALL (    2564 calls)
     ffts         :      0.08s CPU      0.22s WALL (     305 calls)
     fftw         :     58.55s CPU     62.17s WALL (  480484 calls)
     interpolate  :      0.25s CPU      0.40s WALL (     305 calls)
     davcio       :      0.00s CPU      0.03s WALL (     126 calls)

     Parallel routines
     fft_scatter  :     29.18s CPU     31.06s WALL (  483353 calls)

     PWSCF        :  2m 0.74s CPU     2m 9.14s WALL


   This run was terminated on:  23:31:41  29Jan2018            

=------------------------------------------------------------------------------=
   JOB DONE.
=------------------------------------------------------------------------------=
