
     Program PWSCF v.6.1 (svn rev. 13369) starts on 29Jan2018 at 23:33:32 

     This program is part of the open-source Quantum ESPRESSO suite
     for quantum simulation of materials; please cite
         "P. Giannozzi et al., J. Phys.:Condens. Matter 21 395502 (2009);
          URL http://www.quantum-espresso.org", 
     in publications or presentations arising from this work. More details at
     http://www.quantum-espresso.org/quote

     Parallel version (MPI), running on    64 processors
     K-points division:     npool     =       4
     R & G space division:  proc/nbgrp/npool/nimage =      16
     Waiting for input...
     Reading input from standard input

     Current dimensions of program PWSCF are:
     Max number of different atomic species (ntypx) = 10
     Max number of k-points (npk) =  80000
     Max angular momentum in pseudopotentials (lmaxx) =  3

     Subspace diagonalization in iterative solution of the eigenvalue problem:
     a serial algorithm will be used


     Parallelization info
     --------------------
     sticks:   dense  smooth     PW     G-vecs:    dense   smooth      PW
     Min          71      35     10                 1550      542      91
     Max          72      36     11                 1553      545      95
     Sum        1151     571    173                24835     8685    1505



     bravais-lattice index     =            3
     lattice parameter (alat)  =       8.0000  a.u.
     unit-cell volume          =     256.0000 (a.u.)^3
     number of atoms/cell      =            1
     number of atomic types    =            1
     number of electrons       =         9.00
     number of Kohn-Sham states=            9
     kinetic-energy cutoff     =      40.0000  Ry
     charge density cutoff     =     320.0000  Ry
     convergence threshold     =      1.0E-10
     mixing beta               =       0.7000
     number of iterations used =            8  plain     mixing
     Exchange-correlation      = SLA  PW   PBE  PBE ( 1  4  3  4 0 0)
     nstep                     =           50


     celldm(1)=   8.000000  celldm(2)=   0.000000  celldm(3)=   0.000000
     celldm(4)=   0.000000  celldm(5)=   0.000000  celldm(6)=   0.000000

     crystal axes: (cart. coord. in units of alat)
               a(1) = (   0.500000   0.500000   0.500000 )  
               a(2) = (  -0.500000   0.500000   0.500000 )  
               a(3) = (  -0.500000  -0.500000   0.500000 )  

     reciprocal axes: (cart. coord. in units 2 pi/alat)
               b(1) = (  1.000000  0.000000  1.000000 )  
               b(2) = ( -1.000000  1.000000  0.000000 )  
               b(3) = (  0.000000 -1.000000  1.000000 )  


     PseudoPot. # 1 for Na read from file:
     /home/s1333534/quantum_espresso/qe-6.1/pseudo/Na_pbe_v1.uspp.F.UPF
     MD5 check sum: 76a99c7e9422403d3e93cbc85ab7bccb
     Pseudo is Ultrasoft, Zval =  9.0
     Generated by new atomic code, or converted to UPF format
     Using radial grid of  819 points,  5 beta functions with: 
                l(1) =   0
                l(2) =   0
                l(3) =   1
                l(4) =   1
                l(5) =   2
     Q(r) pseudized with  8 coefficients,  rinner =    1.250   1.250   1.250
                                                       1.250   1.250

     atomic species   valence    mass     pseudopotential
        Na             9.00    22.99000     Na( 1.00)

     48 Sym. Ops., with inversion, found



   Cartesian axes

     site n.     atom                  positions (alat units)
         1           Na  tau(   1) = (   0.0000000   0.0000000   0.0000000  )

     number of k points=   250  Marzari-Vanderbilt smearing, width (Ry)=  0.0200

     Number of k-points >= 100: set verbosity='high' to print them.

     Dense  grid:    24835 G-vectors     FFT dimensions: (  40,  40,  40)

     Smooth grid:     8685 G-vectors     FFT dimensions: (  27,  27,  27)

     Estimated max dynamical RAM per process >       1.67MB

     Estimated total allocated dynamical RAM >     106.95MB

     Initial potential from superposition of free atoms

     starting charge    8.99371, renormalised to    9.00000
     Starting wfc are    5 randomized atomic wfcs +    4 random wfc

     total cpu time spent up to now is        0.8 secs

     per-process dynamical memory:     8.9 Mb

     Self-consistent Calculation

     iteration #  1     ecut=    40.00 Ry     beta=0.70
     Davidson diagonalization with overlap
     ethr =  1.00E-02,  avg # of iterations =  5.9

     Threshold (ethr) on eigenvalues was too large:
     Diagonalizing with lowered threshold

     Davidson diagonalization with overlap
     ethr =  9.84E-06,  avg # of iterations =  4.6

     total cpu time spent up to now is        3.3 secs

     total energy              =     -95.10637783 Ry
     Harris-Foulkes estimate   =     -95.10656724 Ry
     estimated scf accuracy    <       0.00088330 Ry

     iteration #  2     ecut=    40.00 Ry     beta=0.70
     Davidson diagonalization with overlap
     ethr =  9.81E-06,  avg # of iterations =  2.0

     total cpu time spent up to now is        4.0 secs

     total energy              =     -95.10647613 Ry
     Harris-Foulkes estimate   =     -95.10649622 Ry
     estimated scf accuracy    <       0.00009726 Ry

     iteration #  3     ecut=    40.00 Ry     beta=0.70
     Davidson diagonalization with overlap
     ethr =  1.08E-06,  avg # of iterations =  2.1

     total cpu time spent up to now is        4.7 secs

     total energy              =     -95.10648758 Ry
     Harris-Foulkes estimate   =     -95.10648857 Ry
     estimated scf accuracy    <       0.00000602 Ry

     iteration #  4     ecut=    40.00 Ry     beta=0.70
     Davidson diagonalization with overlap
     ethr =  6.69E-08,  avg # of iterations =  1.0

     total cpu time spent up to now is        5.3 secs

     total energy              =     -95.10648815 Ry
     Harris-Foulkes estimate   =     -95.10648811 Ry
     estimated scf accuracy    <       0.00000001 Ry

     iteration #  5     ecut=    40.00 Ry     beta=0.70
     Davidson diagonalization with overlap
     ethr =  1.40E-10,  avg # of iterations =  3.0

     total cpu time spent up to now is        6.3 secs

     total energy              =     -95.10648818 Ry
     Harris-Foulkes estimate   =     -95.10648818 Ry
     estimated scf accuracy    <          1.7E-09 Ry

     iteration #  6     ecut=    40.00 Ry     beta=0.70
     Davidson diagonalization with overlap
     ethr =  1.91E-11,  avg # of iterations =  1.5

     total cpu time spent up to now is        6.9 secs

     End of self-consistent calculation

     Number of k-points >= 100: set verbosity='high' to print the bands.

     the Fermi energy is     1.5119 ev

!    total energy              =     -95.10648818 Ry
     Harris-Foulkes estimate   =     -95.10648818 Ry
     estimated scf accuracy    <          5.4E-11 Ry

     The total energy is the sum of the following terms:

     one-electron contribution =     -88.63760988 Ry
     hartree contribution      =      44.64395914 Ry
     xc contribution           =     -14.26550735 Ry
     ewald contribution        =     -36.84723868 Ry
     smearing contrib. (-TS)   =      -0.00009142 Ry

     convergence has been achieved in   6 iterations

     Forces acting on atoms (cartesian axes, Ry/au):

     atom    1 type  1   force =     0.00000000    0.00000000    0.00000000

     Total force =     0.000000     Total SCF correction =     0.000000


     Computing stress (Cartesian axis) and pressure

          total   stress  (Ry/bohr**3)                   (kbar)     P=   -4.56
  -0.00003097   0.00000000   0.00000000         -4.56      0.00      0.00
   0.00000000  -0.00003097   0.00000000          0.00     -4.56      0.00
   0.00000000   0.00000000  -0.00003097          0.00      0.00     -4.56


     BFGS Geometry Optimization

     number of scf cycles    =   1
     number of bfgs steps    =   0

     enthalpy new            =     -95.0629818617 Ry

     new trust radius        =       0.0160732785 bohr
     new conv_thr            =            1.0E-10 Ry

     new unit-cell volume =    252.16176 a.u.^3 (    37.36652 Ang^3 )
     density =      1.02166 g/cm^3

CELL_PARAMETERS (alat=  8.00000000)
   0.497488550   0.497488550   0.497488550
  -0.497488550   0.497488550   0.497488550
  -0.497488550  -0.497488550   0.497488550

ATOMIC_POSITIONS (crystal)
Na       0.000000000   0.000000000   0.000000000



     Writing output data file na.bcc.save
     NEW-OLD atomic charge density approx. for the potential
     extrapolated charge    8.86310, renormalised to    9.00000

     total cpu time spent up to now is        8.6 secs

     per-process dynamical memory:    13.3 Mb

     Self-consistent Calculation

     iteration #  1     ecut=    40.00 Ry     beta=0.70
     Davidson diagonalization with overlap
     ethr =  1.00E-06,  avg # of iterations =  3.8

     total cpu time spent up to now is        9.8 secs

     total energy              =     -95.09478967 Ry
     Harris-Foulkes estimate   =     -96.17571731 Ry
     estimated scf accuracy    <       0.00661348 Ry

     iteration #  2     ecut=    40.00 Ry     beta=0.70
     Davidson diagonalization with overlap
     ethr =  7.35E-05,  avg # of iterations =  2.9

     total cpu time spent up to now is       10.8 secs

     total energy              =     -95.10675083 Ry
     Harris-Foulkes estimate   =     -95.11160259 Ry
     estimated scf accuracy    <       0.01103901 Ry

     iteration #  3     ecut=    40.00 Ry     beta=0.70
     Davidson diagonalization with overlap
     ethr =  7.35E-05,  avg # of iterations =  2.0

     total cpu time spent up to now is       11.6 secs

     total energy              =     -95.10670041 Ry
     Harris-Foulkes estimate   =     -95.10750808 Ry
     estimated scf accuracy    <       0.00205272 Ry

     iteration #  4     ecut=    40.00 Ry     beta=0.70
     Davidson diagonalization with overlap
     ethr =  2.28E-05,  avg # of iterations =  1.0

     total cpu time spent up to now is       12.2 secs

     total energy              =     -95.10660645 Ry
     Harris-Foulkes estimate   =     -95.10681728 Ry
     estimated scf accuracy    <       0.00051215 Ry

     iteration #  5     ecut=    40.00 Ry     beta=0.70
     Davidson diagonalization with overlap
     ethr =  5.69E-06,  avg # of iterations =  1.0

     total cpu time spent up to now is       12.8 secs

     total energy              =     -95.10662538 Ry
     Harris-Foulkes estimate   =     -95.10664202 Ry
     estimated scf accuracy    <       0.00011170 Ry

     iteration #  6     ecut=    40.00 Ry     beta=0.70
     Davidson diagonalization with overlap
     ethr =  1.24E-06,  avg # of iterations =  1.0

     total cpu time spent up to now is       13.4 secs

     total energy              =     -95.10662134 Ry
     Harris-Foulkes estimate   =     -95.10662752 Ry
     estimated scf accuracy    <       0.00008225 Ry

     iteration #  7     ecut=    40.00 Ry     beta=0.70
     Davidson diagonalization with overlap
     ethr =  9.14E-07,  avg # of iterations =  1.0

     total cpu time spent up to now is       14.0 secs

     total energy              =     -95.10664145 Ry
     Harris-Foulkes estimate   =     -95.10662166 Ry
     estimated scf accuracy    <       0.00006703 Ry

     iteration #  8     ecut=    40.00 Ry     beta=0.70
     Davidson diagonalization with overlap
     ethr =  7.45E-07,  avg # of iterations =  1.0

     total cpu time spent up to now is       14.6 secs

     total energy              =     -95.10656494 Ry
     Harris-Foulkes estimate   =     -95.10664267 Ry
     estimated scf accuracy    <       0.00011507 Ry

     iteration #  9     ecut=    40.00 Ry     beta=0.70
     Davidson diagonalization with overlap
     ethr =  7.45E-07,  avg # of iterations =  2.0

     total cpu time spent up to now is       15.4 secs

     total energy              =     -95.10659110 Ry
     Harris-Foulkes estimate   =     -95.10659163 Ry
     estimated scf accuracy    <       0.00000137 Ry

     iteration # 10     ecut=    40.00 Ry     beta=0.70
     Davidson diagonalization with overlap
     ethr =  1.52E-08,  avg # of iterations =  2.0

     total cpu time spent up to now is       16.1 secs

     total energy              =     -95.10659130 Ry
     Harris-Foulkes estimate   =     -95.10659125 Ry
     estimated scf accuracy    <       0.00000006 Ry

     iteration # 11     ecut=    40.00 Ry     beta=0.70
     Davidson diagonalization with overlap
     ethr =  6.76E-10,  avg # of iterations =  2.0

     total cpu time spent up to now is       16.8 secs

     total energy              =     -95.10659123 Ry
     Harris-Foulkes estimate   =     -95.10659133 Ry
     estimated scf accuracy    <       0.00000029 Ry

     iteration # 12     ecut=    40.00 Ry     beta=0.70
     Davidson diagonalization with overlap
     ethr =  6.76E-10,  avg # of iterations =  2.0

     total cpu time spent up to now is       17.6 secs

     total energy              =     -95.10659123 Ry
     Harris-Foulkes estimate   =     -95.10659125 Ry
     estimated scf accuracy    <       0.00000005 Ry

     iteration # 13     ecut=    40.00 Ry     beta=0.70
     Davidson diagonalization with overlap
     ethr =  5.49E-10,  avg # of iterations =  2.0

     total cpu time spent up to now is       18.3 secs

     total energy              =     -95.10659123 Ry
     Harris-Foulkes estimate   =     -95.10659123 Ry
     estimated scf accuracy    <          2.5E-10 Ry

     iteration # 14     ecut=    40.00 Ry     beta=0.70
     Davidson diagonalization with overlap
     ethr =  2.74E-12,  avg # of iterations =  2.0

     total cpu time spent up to now is       19.0 secs

     End of self-consistent calculation

     Number of k-points >= 100: set verbosity='high' to print the bands.

     the Fermi energy is     1.5737 ev

!    total energy              =     -95.10659123 Ry
     Harris-Foulkes estimate   =     -95.10659123 Ry
     estimated scf accuracy    <          6.4E-11 Ry

     The total energy is the sum of the following terms:

     one-electron contribution =     -88.31081003 Ry
     hartree contribution      =      44.50500742 Ry
     xc contribution           =     -14.26744344 Ry
     ewald contribution        =     -37.03325299 Ry
     smearing contrib. (-TS)   =      -0.00009219 Ry

     convergence has been achieved in  14 iterations

     Forces acting on atoms (cartesian axes, Ry/au):

     atom    1 type  1   force =     0.00000000    0.00000000    0.00000000

     Total force =     0.000000     Total SCF correction =     0.000000


     Computing stress (Cartesian axis) and pressure

          total   stress  (Ry/bohr**3)                   (kbar)     P=   -3.35
  -0.00002275   0.00000000  -0.00000000         -3.35      0.00     -0.00
   0.00000000  -0.00002275   0.00000000          0.00     -3.35      0.00
  -0.00000000   0.00000000  -0.00002275         -0.00      0.00     -3.35


     number of scf cycles    =   2
     number of bfgs steps    =   1

     enthalpy old            =     -95.0629818617 Ry
     enthalpy new            =     -95.0637372044 Ry

     CASE: enthalpy_new < enthalpy_old


     WARNING: bfgs curvature condition failed, Theta= 0.843
     new trust radius        =       0.0240492906 bohr
     new conv_thr            =            1.0E-12 Ry

     new unit-cell volume =    246.47663 a.u.^3 (    36.52407 Ang^3 )
     density =      1.04522 g/cm^3

CELL_PARAMETERS (alat=  8.00000000)
   0.493721376   0.493721376   0.493721376
  -0.493721376   0.493721376   0.493721376
  -0.493721376  -0.493721376   0.493721376

ATOMIC_POSITIONS (crystal)
Na       0.000000000   0.000000000   0.000000000



     Writing output data file na.bcc.save
     NEW-OLD atomic charge density approx. for the potential
     extrapolated charge    8.79255, renormalised to    9.00000

     total cpu time spent up to now is       20.6 secs

     per-process dynamical memory:    13.6 Mb

     Self-consistent Calculation

     iteration #  1     ecut=    40.00 Ry     beta=0.70
     Davidson diagonalization with overlap
     ethr =  1.00E-06,  avg # of iterations =  4.2

     total cpu time spent up to now is       22.0 secs

     total energy              =     -95.08029234 Ry
     Harris-Foulkes estimate   =     -96.71462029 Ry
     estimated scf accuracy    <       0.01482702 Ry

     iteration #  2     ecut=    40.00 Ry     beta=0.70
     Davidson diagonalization with overlap
     ethr =  1.65E-04,  avg # of iterations =  2.9

     total cpu time spent up to now is       23.0 secs

     total energy              =     -95.10696474 Ry
     Harris-Foulkes estimate   =     -95.11782243 Ry
     estimated scf accuracy    <       0.02468515 Ry

     iteration #  3     ecut=    40.00 Ry     beta=0.70
     Davidson diagonalization with overlap
     ethr =  1.65E-04,  avg # of iterations =  2.0

     total cpu time spent up to now is       23.7 secs

     total energy              =     -95.10682012 Ry
     Harris-Foulkes estimate   =     -95.10868710 Ry
     estimated scf accuracy    <       0.00450681 Ry

     iteration #  4     ecut=    40.00 Ry     beta=0.70
     Davidson diagonalization with overlap
     ethr =  5.01E-05,  avg # of iterations =  1.0

     total cpu time spent up to now is       24.3 secs

     total energy              =     -95.10711841 Ry
     Harris-Foulkes estimate   =     -95.10710729 Ry
     estimated scf accuracy    <       0.00098604 Ry

     iteration #  5     ecut=    40.00 Ry     beta=0.70
     Davidson diagonalization with overlap
     ethr =  1.10E-05,  avg # of iterations =  1.0

     total cpu time spent up to now is       24.9 secs

     total energy              =     -95.10678696 Ry
     Harris-Foulkes estimate   =     -95.10713170 Ry
     estimated scf accuracy    <       0.00103866 Ry

     iteration #  6     ecut=    40.00 Ry     beta=0.70
     Davidson diagonalization with overlap
     ethr =  1.10E-05,  avg # of iterations =  1.0

     total cpu time spent up to now is       25.5 secs

     total energy              =     -95.10668807 Ry
     Harris-Foulkes estimate   =     -95.10683156 Ry
     estimated scf accuracy    <       0.00034464 Ry

     iteration #  7     ecut=    40.00 Ry     beta=0.70
     Davidson diagonalization with overlap
     ethr =  3.83E-06,  avg # of iterations =  1.0

     total cpu time spent up to now is       26.2 secs

     total energy              =     -95.10665711 Ry
     Harris-Foulkes estimate   =     -95.10671051 Ry
     estimated scf accuracy    <       0.00007403 Ry

     iteration #  8     ecut=    40.00 Ry     beta=0.70
     Davidson diagonalization with overlap
     ethr =  8.23E-07,  avg # of iterations =  2.0

     total cpu time spent up to now is       27.0 secs

     total energy              =     -95.10667869 Ry
     Harris-Foulkes estimate   =     -95.10667848 Ry
     estimated scf accuracy    <       0.00000130 Ry

     iteration #  9     ecut=    40.00 Ry     beta=0.70
     Davidson diagonalization with overlap
     ethr =  1.44E-08,  avg # of iterations =  1.0

     total cpu time spent up to now is       27.6 secs

     total energy              =     -95.10667758 Ry
     Harris-Foulkes estimate   =     -95.10667871 Ry
     estimated scf accuracy    <       0.00000177 Ry

     iteration # 10     ecut=    40.00 Ry     beta=0.70
     Davidson diagonalization with overlap
     ethr =  1.44E-08,  avg # of iterations =  2.0

     total cpu time spent up to now is       28.3 secs

     total energy              =     -95.10667791 Ry
     Harris-Foulkes estimate   =     -95.10667791 Ry
     estimated scf accuracy    <       0.00000002 Ry

     iteration # 11     ecut=    40.00 Ry     beta=0.70
     Davidson diagonalization with overlap
     ethr =  2.17E-10,  avg # of iterations =  2.0

     total cpu time spent up to now is       29.1 secs

     total energy              =     -95.10667791 Ry
     Harris-Foulkes estimate   =     -95.10667791 Ry
     estimated scf accuracy    <       0.00000002 Ry

     iteration # 12     ecut=    40.00 Ry     beta=0.70
     Davidson diagonalization with overlap
     ethr =  2.17E-10,  avg # of iterations =  1.0

     total cpu time spent up to now is       29.7 secs

     total energy              =     -95.10667791 Ry
     Harris-Foulkes estimate   =     -95.10667791 Ry
     estimated scf accuracy    <       0.00000002 Ry

     iteration # 13     ecut=    40.00 Ry     beta=0.70
     Davidson diagonalization with overlap
     ethr =  2.17E-10,  avg # of iterations =  1.0

     total cpu time spent up to now is       30.3 secs

     total energy              =     -95.10667790 Ry
     Harris-Foulkes estimate   =     -95.10667791 Ry
     estimated scf accuracy    <       0.00000002 Ry

     iteration # 14     ecut=    40.00 Ry     beta=0.70
     Davidson diagonalization with overlap
     ethr =  2.17E-10,  avg # of iterations =  1.3

     total cpu time spent up to now is       31.0 secs

     total energy              =     -95.10667791 Ry
     Harris-Foulkes estimate   =     -95.10667791 Ry
     estimated scf accuracy    <       0.00000001 Ry

     iteration # 15     ecut=    40.00 Ry     beta=0.70
     Davidson diagonalization with overlap
     ethr =  1.12E-10,  avg # of iterations =  1.1

     total cpu time spent up to now is       31.6 secs

     total energy              =     -95.10667790 Ry
     Harris-Foulkes estimate   =     -95.10667791 Ry
     estimated scf accuracy    <       0.00000001 Ry

     iteration # 16     ecut=    40.00 Ry     beta=0.70
     Davidson diagonalization with overlap
     ethr =  1.12E-10,  avg # of iterations =  1.6

     total cpu time spent up to now is       32.3 secs

     total energy              =     -95.10667791 Ry
     Harris-Foulkes estimate   =     -95.10667790 Ry
     estimated scf accuracy    <          9.3E-09 Ry

     iteration # 17     ecut=    40.00 Ry     beta=0.70
     Davidson diagonalization with overlap
     ethr =  1.04E-10,  avg # of iterations =  1.6

     total cpu time spent up to now is       32.9 secs

     total energy              =     -95.10667791 Ry
     Harris-Foulkes estimate   =     -95.10667791 Ry
     estimated scf accuracy    <          1.9E-09 Ry

     iteration # 18     ecut=    40.00 Ry     beta=0.70
     Davidson diagonalization with overlap
     ethr =  2.16E-11,  avg # of iterations =  1.6

     total cpu time spent up to now is       33.6 secs

     total energy              =     -95.10667791 Ry
     Harris-Foulkes estimate   =     -95.10667791 Ry
     estimated scf accuracy    <          1.6E-11 Ry

     iteration # 19     ecut=    40.00 Ry     beta=0.70
     Davidson diagonalization with overlap
     ethr =  1.74E-13,  avg # of iterations =  2.0

     total cpu time spent up to now is       34.3 secs

     End of self-consistent calculation

     Number of k-points >= 100: set verbosity='high' to print the bands.

     the Fermi energy is     1.6688 ev

!    total energy              =     -95.10667791 Ry
     Harris-Foulkes estimate   =     -95.10667791 Ry
     estimated scf accuracy    <          2.0E-13 Ry

     The total energy is the sum of the following terms:

     one-electron contribution =     -87.81479958 Ry
     hartree contribution      =      44.29446655 Ry
     xc contribution           =     -14.27042877 Ry
     ewald contribution        =     -37.31582275 Ry
     smearing contrib. (-TS)   =      -0.00009336 Ry

     convergence has been achieved in  19 iterations

     Forces acting on atoms (cartesian axes, Ry/au):

     atom    1 type  1   force =     0.00000000    0.00000000    0.00000000

     Total force =     0.000000     Total SCF correction =     0.000000


     Computing stress (Cartesian axis) and pressure

          total   stress  (Ry/bohr**3)                   (kbar)     P=   -1.16
  -0.00000792  -0.00000000   0.00000000         -1.16     -0.00      0.00
  -0.00000000  -0.00000792  -0.00000000         -0.00     -1.16     -0.00
   0.00000000  -0.00000000  -0.00000792          0.00     -0.00     -1.16


     number of scf cycles    =   3
     number of bfgs steps    =   2

     enthalpy old            =     -95.0637372044 Ry
     enthalpy new            =     -95.0647900497 Ry

     CASE: enthalpy_new < enthalpy_old

     new trust radius        =       0.0359370935 bohr
     new conv_thr            =            1.0E-12 Ry

     new unit-cell volume =    238.11016 a.u.^3 (    35.28429 Ang^3 )
     density =      1.08195 g/cm^3

CELL_PARAMETERS (alat=  8.00000000)
   0.488070614   0.488070614   0.488070614
  -0.488070614   0.488070614   0.488070614
  -0.488070614  -0.488070614   0.488070614

ATOMIC_POSITIONS (crystal)
Na       0.000000000   0.000000000   0.000000000



     Writing output data file na.bcc.save
     NEW-OLD atomic charge density approx. for the potential
     extrapolated charge    8.68399, renormalised to    9.00000

     total cpu time spent up to now is       36.0 secs

     per-process dynamical memory:    13.6 Mb

     Self-consistent Calculation

     iteration #  1     ecut=    40.00 Ry     beta=0.70
     Davidson diagonalization with overlap
     ethr =  1.00E-06,  avg # of iterations =  4.5

     total cpu time spent up to now is       37.4 secs

     total energy              =     -95.04779259 Ry
     Harris-Foulkes estimate   =     -97.52752138 Ry
     estimated scf accuracy    <       0.03322334 Ry

     iteration #  2     ecut=    40.00 Ry     beta=0.70
     Davidson diagonalization with overlap
     ethr =  3.69E-04,  avg # of iterations =  2.9

     total cpu time spent up to now is       38.3 secs

     total energy              =     -95.10704754 Ry
     Harris-Foulkes estimate   =     -95.13129301 Ry
     estimated scf accuracy    <       0.05505409 Ry

     iteration #  3     ecut=    40.00 Ry     beta=0.70
     Davidson diagonalization with overlap
     ethr =  3.69E-04,  avg # of iterations =  2.0

     total cpu time spent up to now is       39.0 secs

     total energy              =     -95.10666841 Ry
     Harris-Foulkes estimate   =     -95.11098863 Ry
     estimated scf accuracy    <       0.00976981 Ry

     iteration #  4     ecut=    40.00 Ry     beta=0.70
     Davidson diagonalization with overlap
     ethr =  1.09E-04,  avg # of iterations =  1.0

     total cpu time spent up to now is       39.6 secs

     total energy              =     -95.10760800 Ry
     Harris-Foulkes estimate   =     -95.10739143 Ry
     estimated scf accuracy    <       0.00175135 Ry

     iteration #  5     ecut=    40.00 Ry     beta=0.70
     Davidson diagonalization with overlap
     ethr =  1.95E-05,  avg # of iterations =  1.0

     total cpu time spent up to now is       40.3 secs

     total energy              =     -95.10687135 Ry
     Harris-Foulkes estimate   =     -95.10764373 Ry
     estimated scf accuracy    <       0.00227406 Ry

     iteration #  6     ecut=    40.00 Ry     beta=0.70
     Davidson diagonalization with overlap
     ethr =  1.95E-05,  avg # of iterations =  1.0

     total cpu time spent up to now is       40.9 secs

     total energy              =     -95.10675526 Ry
     Harris-Foulkes estimate   =     -95.10697133 Ry
     estimated scf accuracy    <       0.00073094 Ry

     iteration #  7     ecut=    40.00 Ry     beta=0.70
     Davidson diagonalization with overlap
     ethr =  8.12E-06,  avg # of iterations =  1.0

     total cpu time spent up to now is       41.5 secs

     total energy              =     -95.10671833 Ry
     Harris-Foulkes estimate   =     -95.10677974 Ry
     estimated scf accuracy    <       0.00029102 Ry

     iteration #  8     ecut=    40.00 Ry     beta=0.70
     Davidson diagonalization with overlap
     ethr =  3.23E-06,  avg # of iterations =  1.1

     total cpu time spent up to now is       42.4 secs

     total energy              =     -95.10662430 Ry
     Harris-Foulkes estimate   =     -95.10672311 Ry
     estimated scf accuracy    <       0.00016463 Ry

     iteration #  9     ecut=    40.00 Ry     beta=0.70
     Davidson diagonalization with overlap
     ethr =  1.83E-06,  avg # of iterations =  2.0

     total cpu time spent up to now is       43.1 secs

     total energy              =     -95.10664527 Ry
     Harris-Foulkes estimate   =     -95.10664835 Ry
     estimated scf accuracy    <       0.00000441 Ry

     iteration # 10     ecut=    40.00 Ry     beta=0.70
     Davidson diagonalization with overlap
     ethr =  4.90E-08,  avg # of iterations =  2.0

     total cpu time spent up to now is       43.8 secs

     total energy              =     -95.10664643 Ry
     Harris-Foulkes estimate   =     -95.10664645 Ry
     estimated scf accuracy    <       0.00000005 Ry

     iteration # 11     ecut=    40.00 Ry     beta=0.70
     Davidson diagonalization with overlap
     ethr =  6.00E-10,  avg # of iterations =  1.4

     total cpu time spent up to now is       44.5 secs

     total energy              =     -95.10664645 Ry
     Harris-Foulkes estimate   =     -95.10664644 Ry
     estimated scf accuracy    <       0.00000002 Ry

     iteration # 12     ecut=    40.00 Ry     beta=0.70
     Davidson diagonalization with overlap
     ethr =  2.12E-10,  avg # of iterations =  2.0

     total cpu time spent up to now is       45.2 secs

     total energy              =     -95.10664643 Ry
     Harris-Foulkes estimate   =     -95.10664645 Ry
     estimated scf accuracy    <       0.00000005 Ry

     iteration # 13     ecut=    40.00 Ry     beta=0.70
     Davidson diagonalization with overlap
     ethr =  2.12E-10,  avg # of iterations =  2.0

     total cpu time spent up to now is       46.2 secs

     total energy              =     -95.10664671 Ry
     Harris-Foulkes estimate   =     -95.10664644 Ry
     estimated scf accuracy    <       0.00000003 Ry

     iteration # 14     ecut=    40.00 Ry     beta=0.70
     Davidson diagonalization with overlap
     ethr =  2.12E-10,  avg # of iterations =  3.0

     total cpu time spent up to now is       47.2 secs

     total energy              =     -95.10664613 Ry
     Harris-Foulkes estimate   =     -95.10664691 Ry
     estimated scf accuracy    <       0.00000114 Ry

     iteration # 15     ecut=    40.00 Ry     beta=0.70
     Davidson diagonalization with overlap
     ethr =  2.12E-10,  avg # of iterations =  3.0

     total cpu time spent up to now is       48.0 secs

     total energy              =     -95.10664642 Ry
     Harris-Foulkes estimate   =     -95.10664644 Ry
     estimated scf accuracy    <       0.00000004 Ry

     iteration # 16     ecut=    40.00 Ry     beta=0.70
     Davidson diagonalization with overlap
     ethr =  2.12E-10,  avg # of iterations =  2.0

     total cpu time spent up to now is       48.8 secs

     total energy              =     -95.10664643 Ry
     Harris-Foulkes estimate   =     -95.10664643 Ry
     estimated scf accuracy    <          7.5E-10 Ry

     iteration # 17     ecut=    40.00 Ry     beta=0.70
     Davidson diagonalization with overlap
     ethr =  8.31E-12,  avg # of iterations =  1.0

     total cpu time spent up to now is       49.4 secs

     total energy              =     -95.10664643 Ry
     Harris-Foulkes estimate   =     -95.10664643 Ry
     estimated scf accuracy    <          2.8E-11 Ry

     iteration # 18     ecut=    40.00 Ry     beta=0.70
     Davidson diagonalization with overlap
     ethr =  3.08E-13,  avg # of iterations =  1.5

     total cpu time spent up to now is       50.1 secs

     total energy              =     -95.10664643 Ry
     Harris-Foulkes estimate   =     -95.10664643 Ry
     estimated scf accuracy    <          2.3E-12 Ry

     iteration # 19     ecut=    40.00 Ry     beta=0.70
     Davidson diagonalization with overlap
     ethr =  1.00E-13,  avg # of iterations =  1.0

     total cpu time spent up to now is       50.7 secs

     End of self-consistent calculation

     Number of k-points >= 100: set verbosity='high' to print the bands.

     the Fermi energy is     1.8175 ev

!    total energy              =     -95.10664643 Ry
     Harris-Foulkes estimate   =     -95.10664643 Ry
     estimated scf accuracy    <          1.0E-13 Ry

     The total energy is the sum of the following terms:

     one-electron contribution =     -87.05707095 Ry
     hartree contribution      =      43.97339573 Ry
     xc contribution           =     -14.27501989 Ry
     ewald contribution        =     -37.74785621 Ry
     smearing contrib. (-TS)   =      -0.00009511 Ry

     convergence has been achieved in  19 iterations

     Forces acting on atoms (cartesian axes, Ry/au):

     atom    1 type  1   force =     0.00000000    0.00000000    0.00000000

     Total force =     0.000000     Total SCF correction =     0.000000


     Computing stress (Cartesian axis) and pressure

          total   stress  (Ry/bohr**3)                   (kbar)     P=    2.36
   0.00001601   0.00000000  -0.00000000          2.36      0.00     -0.00
   0.00000000   0.00001601   0.00000000          0.00      2.36      0.00
  -0.00000000   0.00000000   0.00001601         -0.00      0.00      2.36


     number of scf cycles    =   4
     number of bfgs steps    =   3

     enthalpy old            =     -95.0647900497 Ry
     enthalpy new            =     -95.0661804230 Ry

     CASE: enthalpy_new < enthalpy_old

     new trust radius        =       0.0535962709 bohr
     new conv_thr            =            1.0E-12 Ry

     new unit-cell volume =    225.91884 a.u.^3 (    33.47772 Ang^3 )
     density =      1.14033 g/cm^3

CELL_PARAMETERS (alat=  8.00000000)
   0.479594470   0.479594470   0.479594470
  -0.479594470   0.479594470   0.479594470
  -0.479594470  -0.479594470   0.479594470

ATOMIC_POSITIONS (crystal)
Na       0.000000000   0.000000000   0.000000000



     Writing output data file na.bcc.save
     NEW-OLD atomic charge density approx. for the potential
     extrapolated charge    8.51467, renormalised to    9.00000

     total cpu time spent up to now is       52.3 secs

     per-process dynamical memory:    13.6 Mb

     Self-consistent Calculation

     iteration #  1     ecut=    40.00 Ry     beta=0.70
     Davidson diagonalization with overlap
     ethr =  1.00E-06,  avg # of iterations =  5.0

     total cpu time spent up to now is       53.7 secs

     total energy              =     -94.97530138 Ry
     Harris-Foulkes estimate   =     -98.75576506 Ry
     estimated scf accuracy    <       0.07455718 Ry

     iteration #  2     ecut=    40.00 Ry     beta=0.70
     Davidson diagonalization with overlap
     ethr =  8.28E-04,  avg # of iterations =  2.8

     total cpu time spent up to now is       54.7 secs

     total energy              =     -95.10627245 Ry
     Harris-Foulkes estimate   =     -95.16030222 Ry
     estimated scf accuracy    <       0.12232504 Ry

     iteration #  3     ecut=    40.00 Ry     beta=0.70
     Davidson diagonalization with overlap
     ethr =  8.28E-04,  avg # of iterations =  2.0

     total cpu time spent up to now is       55.5 secs

     total energy              =     -95.10622044 Ry
     Harris-Foulkes estimate   =     -95.11537798 Ry
     estimated scf accuracy    <       0.02075216 Ry

     iteration #  4     ecut=    40.00 Ry     beta=0.70
     Davidson diagonalization with overlap
     ethr =  2.31E-04,  avg # of iterations =  1.0

     total cpu time spent up to now is       56.2 secs

     total energy              =     -95.10741541 Ry
     Harris-Foulkes estimate   =     -95.10776766 Ry
     estimated scf accuracy    <       0.00368819 Ry

     iteration #  5     ecut=    40.00 Ry     beta=0.70
     Davidson diagonalization with overlap
     ethr =  4.10E-05,  avg # of iterations =  1.0

     total cpu time spent up to now is       56.9 secs

     total energy              =     -95.10662292 Ry
     Harris-Foulkes estimate   =     -95.10750208 Ry
     estimated scf accuracy    <       0.00294783 Ry

     iteration #  6     ecut=    40.00 Ry     beta=0.70
     Davidson diagonalization with overlap
     ethr =  3.28E-05,  avg # of iterations =  1.0

     total cpu time spent up to now is       57.5 secs

     total energy              =     -95.10624380 Ry
     Harris-Foulkes estimate   =     -95.10672159 Ry
     estimated scf accuracy    <       0.00115562 Ry

     iteration #  7     ecut=    40.00 Ry     beta=0.70
     Davidson diagonalization with overlap
     ethr =  1.28E-05,  avg # of iterations =  1.0

     total cpu time spent up to now is       58.1 secs

     total energy              =     -95.10615240 Ry
     Harris-Foulkes estimate   =     -95.10631840 Ry
     estimated scf accuracy    <       0.00024914 Ry

     iteration #  8     ecut=    40.00 Ry     beta=0.70
     Davidson diagonalization with overlap
     ethr =  2.77E-06,  avg # of iterations =  2.3

     total cpu time spent up to now is       58.9 secs

     total energy              =     -95.10620884 Ry
     Harris-Foulkes estimate   =     -95.10620874 Ry
     estimated scf accuracy    <          4.1E-10 Ry

     iteration #  9     ecut=    40.00 Ry     beta=0.70
     Davidson diagonalization with overlap
     ethr =  4.60E-12,  avg # of iterations =  4.1

     total cpu time spent up to now is       60.0 secs

     total energy              =     -95.10620880 Ry
     Harris-Foulkes estimate   =     -95.10620898 Ry
     estimated scf accuracy    <       0.00000044 Ry

     iteration # 10     ecut=    40.00 Ry     beta=0.70
     Davidson diagonalization with overlap
     ethr =  4.60E-12,  avg # of iterations =  3.0

     total cpu time spent up to now is       60.9 secs

     total energy              =     -95.10620876 Ry
     Harris-Foulkes estimate   =     -95.10620882 Ry
     estimated scf accuracy    <       0.00000009 Ry

     iteration # 11     ecut=    40.00 Ry     beta=0.70
     Davidson diagonalization with overlap
     ethr =  4.60E-12,  avg # of iterations =  3.0

     total cpu time spent up to now is       61.8 secs

     total energy              =     -95.10620878 Ry
     Harris-Foulkes estimate   =     -95.10620878 Ry
     estimated scf accuracy    <          6.8E-10 Ry

     iteration # 12     ecut=    40.00 Ry     beta=0.70
     Davidson diagonalization with overlap
     ethr =  4.60E-12,  avg # of iterations =  2.0

     total cpu time spent up to now is       62.5 secs

     total energy              =     -95.10620878 Ry
     Harris-Foulkes estimate   =     -95.10620878 Ry
     estimated scf accuracy    <          5.3E-10 Ry

     iteration # 13     ecut=    40.00 Ry     beta=0.70
     Davidson diagonalization with overlap
     ethr =  4.60E-12,  avg # of iterations =  1.0

     total cpu time spent up to now is       63.1 secs

     total energy              =     -95.10620878 Ry
     Harris-Foulkes estimate   =     -95.10620878 Ry
     estimated scf accuracy    <          5.7E-10 Ry

     iteration # 14     ecut=    40.00 Ry     beta=0.70
     Davidson diagonalization with overlap
     ethr =  4.60E-12,  avg # of iterations =  1.0

     total cpu time spent up to now is       63.8 secs

     total energy              =     -95.10620878 Ry
     Harris-Foulkes estimate   =     -95.10620878 Ry
     estimated scf accuracy    <          1.3E-09 Ry

     iteration # 15     ecut=    40.00 Ry     beta=0.70
     Davidson diagonalization with overlap
     ethr =  4.60E-12,  avg # of iterations =  2.0

     total cpu time spent up to now is       64.5 secs

     total energy              =     -95.10620878 Ry
     Harris-Foulkes estimate   =     -95.10620878 Ry
     estimated scf accuracy    <          2.6E-10 Ry

     iteration # 16     ecut=    40.00 Ry     beta=0.70
     Davidson diagonalization with overlap
     ethr =  2.84E-12,  avg # of iterations =  2.0

     total cpu time spent up to now is       65.2 secs

     total energy              =     -95.10620878 Ry
     Harris-Foulkes estimate   =     -95.10620878 Ry
     estimated scf accuracy    <          6.0E-12 Ry

     iteration # 17     ecut=    40.00 Ry     beta=0.70
     Davidson diagonalization with overlap
     ethr =  1.00E-13,  avg # of iterations =  1.1

     total cpu time spent up to now is       65.9 secs

     End of self-consistent calculation

     Number of k-points >= 100: set verbosity='high' to print the bands.

     the Fermi energy is     2.0547 ev

!    total energy              =     -95.10620878 Ry
     Harris-Foulkes estimate   =     -95.10620878 Ry
     estimated scf accuracy    <          1.9E-13 Ry

     The total energy is the sum of the following terms:

     one-electron contribution =     -85.88861459 Ry
     hartree contribution      =      43.47969107 Ry
     xc contribution           =     -14.28219226 Ry
     ewald contribution        =     -38.41499532 Ry
     smearing contrib. (-TS)   =      -0.00009769 Ry

     convergence has been achieved in  17 iterations

     Forces acting on atoms (cartesian axes, Ry/au):

     atom    1 type  1   force =     0.00000000    0.00000000    0.00000000

     Total force =     0.000000     Total SCF correction =     0.000000


     Computing stress (Cartesian axis) and pressure

          total   stress  (Ry/bohr**3)                   (kbar)     P=    8.40
   0.00005712   0.00000000  -0.00000000          8.40      0.00     -0.00
   0.00000000   0.00005712   0.00000000          0.00      8.40      0.00
  -0.00000000   0.00000000   0.00005712         -0.00      0.00      8.40


     number of scf cycles    =   5
     number of bfgs steps    =   4

     enthalpy old            =     -95.0661804230 Ry
     enthalpy new            =     -95.0678146480 Ry

     CASE: enthalpy_new < enthalpy_old

     new trust radius        =       0.0796932588 bohr
     new conv_thr            =            1.0E-12 Ry

     new unit-cell volume =    208.42340 a.u.^3 (    30.88516 Ang^3 )
     density =      1.23606 g/cm^3

CELL_PARAMETERS (alat=  8.00000000)
   0.466880256   0.466880256   0.466880256
  -0.466880256   0.466880256   0.466880256
  -0.466880256  -0.466880256   0.466880256

ATOMIC_POSITIONS (crystal)
Na       0.000000000   0.000000000   0.000000000



     Writing output data file na.bcc.save
     NEW-OLD atomic charge density approx. for the potential
     extrapolated charge    8.24505, renormalised to    9.00000

     total cpu time spent up to now is       67.6 secs

     per-process dynamical memory:    13.6 Mb

     Self-consistent Calculation

     iteration #  1     ecut=    40.00 Ry     beta=0.70
     Davidson diagonalization with overlap
     ethr =  1.00E-06,  avg # of iterations =  5.6

     total cpu time spent up to now is       69.1 secs

     total energy              =     -94.81422869 Ry
     Harris-Foulkes estimate   =    -100.61311955 Ry
     estimated scf accuracy    <       0.16839376 Ry

     iteration #  2     ecut=    40.00 Ry     beta=0.70
     Davidson diagonalization with overlap
     ethr =  1.87E-03,  avg # of iterations =  2.6

     total cpu time spent up to now is       70.1 secs

     total energy              =     -95.10180933 Ry
     Harris-Foulkes estimate   =     -95.22190575 Ry
     estimated scf accuracy    <       0.27021504 Ry

     iteration #  3     ecut=    40.00 Ry     beta=0.70
     Davidson diagonalization with overlap
     ethr =  1.87E-03,  avg # of iterations =  2.0

     total cpu time spent up to now is       70.8 secs

     total energy              =     -95.10557128 Ry
     Harris-Foulkes estimate   =     -95.12318506 Ry
     estimated scf accuracy    <       0.04253889 Ry

     iteration #  4     ecut=    40.00 Ry     beta=0.70
     Davidson diagonalization with overlap
     ethr =  4.73E-04,  avg # of iterations =  1.0

     total cpu time spent up to now is       71.4 secs

     total energy              =     -95.10582559 Ry
     Harris-Foulkes estimate   =     -95.10839303 Ry
     estimated scf accuracy    <       0.00891407 Ry

     iteration #  5     ecut=    40.00 Ry     beta=0.70
     Davidson diagonalization with overlap
     ethr =  9.90E-05,  avg # of iterations =  1.0

     total cpu time spent up to now is       72.0 secs

     total energy              =     -95.10544071 Ry
     Harris-Foulkes estimate   =     -95.10622075 Ry
     estimated scf accuracy    <       0.00354230 Ry

     iteration #  6     ecut=    40.00 Ry     beta=0.70
     Davidson diagonalization with overlap
     ethr =  3.94E-05,  avg # of iterations =  1.0

     total cpu time spent up to now is       72.7 secs

     total energy              =     -95.10411470 Ry
     Harris-Foulkes estimate   =     -95.10549587 Ry
     estimated scf accuracy    <       0.00197900 Ry

     iteration #  7     ecut=    40.00 Ry     beta=0.70
     Davidson diagonalization with overlap
     ethr =  2.20E-05,  avg # of iterations =  2.0

     total cpu time spent up to now is       73.4 secs

     total energy              =     -95.10462494 Ry
     Harris-Foulkes estimate   =     -95.10459409 Ry
     estimated scf accuracy    <       0.00001123 Ry

     iteration #  8     ecut=    40.00 Ry     beta=0.70
     Davidson diagonalization with overlap
     ethr =  1.25E-07,  avg # of iterations =  2.6

     total cpu time spent up to now is       74.3 secs

     total energy              =     -95.10457680 Ry
     Harris-Foulkes estimate   =     -95.10463442 Ry
     estimated scf accuracy    <       0.00009888 Ry

     iteration #  9     ecut=    40.00 Ry     beta=0.70
     Davidson diagonalization with overlap
     ethr =  1.25E-07,  avg # of iterations =  2.2

     total cpu time spent up to now is       75.1 secs

     total energy              =     -95.10458848 Ry
     Harris-Foulkes estimate   =     -95.10459077 Ry
     estimated scf accuracy    <       0.00000318 Ry

     iteration # 10     ecut=    40.00 Ry     beta=0.70
     Davidson diagonalization with overlap
     ethr =  3.53E-08,  avg # of iterations =  2.0

     total cpu time spent up to now is       75.8 secs

     total energy              =     -95.10458930 Ry
     Harris-Foulkes estimate   =     -95.10458934 Ry
     estimated scf accuracy    <       0.00000005 Ry

     iteration # 11     ecut=    40.00 Ry     beta=0.70
     Davidson diagonalization with overlap
     ethr =  5.61E-10,  avg # of iterations =  2.0

     total cpu time spent up to now is       76.6 secs

     total energy              =     -95.10458931 Ry
     Harris-Foulkes estimate   =     -95.10458932 Ry
     estimated scf accuracy    <          3.6E-09 Ry

     iteration # 12     ecut=    40.00 Ry     beta=0.70
     Davidson diagonalization with overlap
     ethr =  3.98E-11,  avg # of iterations =  1.0

     total cpu time spent up to now is       77.2 secs

     total energy              =     -95.10458931 Ry
     Harris-Foulkes estimate   =     -95.10458931 Ry
     estimated scf accuracy    <          1.7E-09 Ry

     iteration # 13     ecut=    40.00 Ry     beta=0.70
     Davidson diagonalization with overlap
     ethr =  1.91E-11,  avg # of iterations =  1.0

     total cpu time spent up to now is       77.9 secs

     total energy              =     -95.10458931 Ry
     Harris-Foulkes estimate   =     -95.10458931 Ry
     estimated scf accuracy    <          9.8E-10 Ry

     iteration # 14     ecut=    40.00 Ry     beta=0.70
     Davidson diagonalization with overlap
     ethr =  1.09E-11,  avg # of iterations =  2.0

     total cpu time spent up to now is       78.6 secs

     total energy              =     -95.10458931 Ry
     Harris-Foulkes estimate   =     -95.10458931 Ry
     estimated scf accuracy    <          6.1E-12 Ry

     iteration # 15     ecut=    40.00 Ry     beta=0.70
     Davidson diagonalization with overlap
     ethr =  1.00E-13,  avg # of iterations =  2.0

     total cpu time spent up to now is       79.3 secs

     total energy              =     -95.10458931 Ry
     Harris-Foulkes estimate   =     -95.10458931 Ry
     estimated scf accuracy    <          2.1E-12 Ry

     iteration # 16     ecut=    40.00 Ry     beta=0.70
     Davidson diagonalization with overlap
     ethr =  1.00E-13,  avg # of iterations =  1.0

     total cpu time spent up to now is       79.9 secs

     End of self-consistent calculation

     Number of k-points >= 100: set verbosity='high' to print the bands.

     the Fermi energy is     2.4456 ev

!    total energy              =     -95.10458931 Ry
     Harris-Foulkes estimate   =     -95.10458931 Ry
     estimated scf accuracy    <          3.5E-14 Ry

     The total energy is the sum of the following terms:

     one-electron contribution =     -84.06025284 Ry
     hartree contribution      =      42.71050851 Ry
     xc contribution           =     -14.29362052 Ry
     ewald contribution        =     -39.46112328 Ry
     smearing contrib. (-TS)   =      -0.00010117 Ry

     convergence has been achieved in  16 iterations

     Forces acting on atoms (cartesian axes, Ry/au):

     atom    1 type  1   force =     0.00000000    0.00000000    0.00000000

     Total force =     0.000000     Total SCF correction =     0.000000


     Computing stress (Cartesian axis) and pressure

          total   stress  (Ry/bohr**3)                   (kbar)     P=   19.33
   0.00013141   0.00000000  -0.00000000         19.33      0.00     -0.00
   0.00000000   0.00013141   0.00000000          0.00     19.33      0.00
  -0.00000000   0.00000000   0.00013141         -0.00      0.00     19.33


     number of scf cycles    =   6
     number of bfgs steps    =   5

     enthalpy old            =     -95.0678146480 Ry
     enthalpy new            =     -95.0691684708 Ry

     CASE: enthalpy_new < enthalpy_old

     new trust radius        =       0.0376338408 bohr
     new conv_thr            =            1.0E-12 Ry

     new unit-cell volume =    200.37944 a.u.^3 (    29.69317 Ang^3 )
     density =      1.28568 g/cm^3

CELL_PARAMETERS (alat=  8.00000000)
   0.460794972   0.460794972   0.460794972
  -0.460794972   0.460794972   0.460794972
  -0.460794972  -0.460794972   0.460794972

ATOMIC_POSITIONS (crystal)
Na       0.000000000   0.000000000   0.000000000



     Writing output data file na.bcc.save
     NEW-OLD atomic charge density approx. for the potential
     extrapolated charge    8.63896, renormalised to    9.00000

     total cpu time spent up to now is       81.6 secs

     per-process dynamical memory:    13.6 Mb

     Self-consistent Calculation

     iteration #  1     ecut=    40.00 Ry     beta=0.70
     Davidson diagonalization with overlap
     ethr =  1.00E-06,  avg # of iterations =  4.5

     total cpu time spent up to now is       83.0 secs

     total energy              =     -95.02891965 Ry
     Harris-Foulkes estimate   =     -97.73458665 Ry
     estimated scf accuracy    <       0.04221955 Ry

     iteration #  2     ecut=    40.00 Ry     beta=0.70
     Davidson diagonalization with overlap
     ethr =  4.69E-04,  avg # of iterations =  2.9

     total cpu time spent up to now is       84.0 secs

     total energy              =     -95.10374406 Ry
     Harris-Foulkes estimate   =     -95.13448664 Ry
     estimated scf accuracy    <       0.06980882 Ry

     iteration #  3     ecut=    40.00 Ry     beta=0.70
     Davidson diagonalization with overlap
     ethr =  4.69E-04,  avg # of iterations =  1.9

     total cpu time spent up to now is       84.7 secs

     total energy              =     -95.10299715 Ry
     Harris-Foulkes estimate   =     -95.10876612 Ry
     estimated scf accuracy    <       0.01233186 Ry

     iteration #  4     ecut=    40.00 Ry     beta=0.70
     Davidson diagonalization with overlap
     ethr =  1.37E-04,  avg # of iterations =  1.2

     total cpu time spent up to now is       85.3 secs

     total energy              =     -95.10332201 Ry
     Harris-Foulkes estimate   =     -95.10409435 Ry
     estimated scf accuracy    <       0.00173929 Ry

     iteration #  5     ecut=    40.00 Ry     beta=0.70
     Davidson diagonalization with overlap
     ethr =  1.93E-05,  avg # of iterations =  2.0

     total cpu time spent up to now is       86.0 secs

     total energy              =     -95.10357768 Ry
     Harris-Foulkes estimate   =     -95.10350210 Ry
     estimated scf accuracy    <       0.00029852 Ry

     iteration #  6     ecut=    40.00 Ry     beta=0.70
     Davidson diagonalization with overlap
     ethr =  3.32E-06,  avg # of iterations =  1.3

     total cpu time spent up to now is       86.7 secs

     total energy              =     -95.10359842 Ry
     Harris-Foulkes estimate   =     -95.10358467 Ry
     estimated scf accuracy    <       0.00047749 Ry

     iteration #  7     ecut=    40.00 Ry     beta=0.70
     Davidson diagonalization with overlap
     ethr =  3.32E-06,  avg # of iterations =  1.0

     total cpu time spent up to now is       87.3 secs

     total energy              =     -95.10339637 Ry
     Harris-Foulkes estimate   =     -95.10359883 Ry
     estimated scf accuracy    <       0.00050499 Ry

     iteration #  8     ecut=    40.00 Ry     beta=0.70
     Davidson diagonalization with overlap
     ethr =  3.32E-06,  avg # of iterations =  1.0

     total cpu time spent up to now is       88.0 secs

     total energy              =     -95.10333961 Ry
     Harris-Foulkes estimate   =     -95.10342314 Ry
     estimated scf accuracy    <       0.00012580 Ry

     iteration #  9     ecut=    40.00 Ry     beta=0.70
     Davidson diagonalization with overlap
     ethr =  1.40E-06,  avg # of iterations =  2.0

     total cpu time spent up to now is       88.7 secs

     total energy              =     -95.10336763 Ry
     Harris-Foulkes estimate   =     -95.10336763 Ry
     estimated scf accuracy    <       0.00000066 Ry

     iteration # 10     ecut=    40.00 Ry     beta=0.70
     Davidson diagonalization with overlap
     ethr =  7.33E-09,  avg # of iterations =  1.1

     total cpu time spent up to now is       89.4 secs

     total energy              =     -95.10336750 Ry
     Harris-Foulkes estimate   =     -95.10336766 Ry
     estimated scf accuracy    <       0.00000066 Ry

     iteration # 11     ecut=    40.00 Ry     beta=0.70
     Davidson diagonalization with overlap
     ethr =  7.33E-09,  avg # of iterations =  1.0

     total cpu time spent up to now is       90.0 secs

     total energy              =     -95.10336816 Ry
     Harris-Foulkes estimate   =     -95.10336750 Ry
     estimated scf accuracy    <       0.00000009 Ry

     iteration # 12     ecut=    40.00 Ry     beta=0.70
     Davidson diagonalization with overlap
     ethr =  1.01E-09,  avg # of iterations =  2.0

     total cpu time spent up to now is       90.7 secs

     total energy              =     -95.10336745 Ry
     Harris-Foulkes estimate   =     -95.10336823 Ry
     estimated scf accuracy    <       0.00000248 Ry

     iteration # 13     ecut=    40.00 Ry     beta=0.70
     Davidson diagonalization with overlap
     ethr =  1.01E-09,  avg # of iterations =  2.0

     total cpu time spent up to now is       91.5 secs

     total energy              =     -95.10336746 Ry
     Harris-Foulkes estimate   =     -95.10336754 Ry
     estimated scf accuracy    <       0.00000026 Ry

     iteration # 14     ecut=    40.00 Ry     beta=0.70
     Davidson diagonalization with overlap
     ethr =  1.01E-09,  avg # of iterations =  1.5

     total cpu time spent up to now is       92.2 secs

     total energy              =     -95.10336747 Ry
     Harris-Foulkes estimate   =     -95.10336747 Ry
     estimated scf accuracy    <          9.3E-09 Ry

     iteration # 15     ecut=    40.00 Ry     beta=0.70
     Davidson diagonalization with overlap
     ethr =  1.03E-10,  avg # of iterations =  2.0

     total cpu time spent up to now is       92.8 secs

     total energy              =     -95.10336747 Ry
     Harris-Foulkes estimate   =     -95.10336747 Ry
     estimated scf accuracy    <          7.4E-10 Ry

     iteration # 16     ecut=    40.00 Ry     beta=0.70
     Davidson diagonalization with overlap
     ethr =  8.26E-12,  avg # of iterations =  2.0

     total cpu time spent up to now is       93.6 secs

     total energy              =     -95.10336747 Ry
     Harris-Foulkes estimate   =     -95.10336747 Ry
     estimated scf accuracy    <          4.0E-09 Ry

     iteration # 17     ecut=    40.00 Ry     beta=0.70
     Davidson diagonalization with overlap
     ethr =  8.26E-12,  avg # of iterations =  2.0

     total cpu time spent up to now is       94.3 secs

     total energy              =     -95.10336747 Ry
     Harris-Foulkes estimate   =     -95.10336747 Ry
     estimated scf accuracy    <          7.1E-10 Ry

     iteration # 18     ecut=    40.00 Ry     beta=0.70
     Davidson diagonalization with overlap
     ethr =  7.83E-12,  avg # of iterations =  1.0

     total cpu time spent up to now is       95.0 secs

     total energy              =     -95.10336747 Ry
     Harris-Foulkes estimate   =     -95.10336747 Ry
     estimated scf accuracy    <          7.2E-10 Ry

     iteration # 19     ecut=    40.00 Ry     beta=0.70
     Davidson diagonalization with overlap
     ethr =  7.83E-12,  avg # of iterations =  1.5

     total cpu time spent up to now is       95.7 secs

     total energy              =     -95.10336747 Ry
     Harris-Foulkes estimate   =     -95.10336747 Ry
     estimated scf accuracy    <          5.7E-11 Ry

     iteration # 20     ecut=    40.00 Ry     beta=0.70
     Davidson diagonalization with overlap
     ethr =  6.38E-13,  avg # of iterations =  2.0

     total cpu time spent up to now is       96.5 secs

     total energy              =     -95.10336747 Ry
     Harris-Foulkes estimate   =     -95.10336747 Ry
     estimated scf accuracy    <          3.5E-12 Ry

     iteration # 21     ecut=    40.00 Ry     beta=0.70
     Davidson diagonalization with overlap
     ethr =  1.00E-13,  avg # of iterations =  1.5

     total cpu time spent up to now is       97.1 secs

     End of self-consistent calculation

     Number of k-points >= 100: set verbosity='high' to print the bands.

     the Fermi energy is     2.6493 ev

!    total energy              =     -95.10336747 Ry
     Harris-Foulkes estimate   =     -95.10336747 Ry
     estimated scf accuracy    <          2.3E-13 Ry

     The total energy is the sum of the following terms:

     one-electron contribution =     -83.15122001 Ry
     hartree contribution      =      42.32959756 Ry
     xc contribution           =     -14.29939341 Ry
     ewald contribution        =     -39.98224904 Ry
     smearing contrib. (-TS)   =      -0.00010257 Ry

     convergence has been achieved in  21 iterations

     Forces acting on atoms (cartesian axes, Ry/au):

     atom    1 type  1   force =     0.00000000    0.00000000    0.00000000

     Total force =     0.000000     Total SCF correction =     0.000000


     Computing stress (Cartesian axis) and pressure

          total   stress  (Ry/bohr**3)                   (kbar)     P=   25.50
   0.00017335   0.00000000  -0.00000000         25.50      0.00     -0.00
   0.00000000   0.00017335   0.00000000          0.00     25.50      0.00
  -0.00000000   0.00000000   0.00017335         -0.00      0.00     25.50


     number of scf cycles    =   7
     number of bfgs steps    =   6

     enthalpy old            =     -95.0691684708 Ry
     enthalpy new            =     -95.0693136708 Ry

     CASE: enthalpy_new < enthalpy_old

     new trust radius        =       0.0029580652 bohr
     new conv_thr            =            1.0E-12 Ry

     new unit-cell volume =    201.00819 a.u.^3 (    29.78634 Ang^3 )
     density =      1.28165 g/cm^3

CELL_PARAMETERS (alat=  8.00000000)
   0.461276431   0.461276431   0.461276431
  -0.461276431   0.461276431   0.461276431
  -0.461276431  -0.461276431   0.461276431

ATOMIC_POSITIONS (crystal)
Na       0.000000000   0.000000000   0.000000000



     Writing output data file na.bcc.save
     NEW-OLD atomic charge density approx. for the potential
     extrapolated charge    9.02813, renormalised to    9.00000

     total cpu time spent up to now is       98.9 secs

     per-process dynamical memory:    13.6 Mb

     Self-consistent Calculation

     iteration #  1     ecut=    40.00 Ry     beta=0.70
     Davidson diagonalization with overlap
     ethr =  1.00E-06,  avg # of iterations =  2.0

     total cpu time spent up to now is       99.7 secs

     total energy              =     -95.10295745 Ry
     Harris-Foulkes estimate   =     -94.89662660 Ry
     estimated scf accuracy    <       0.00028977 Ry

     iteration #  2     ecut=    40.00 Ry     beta=0.70
     Davidson diagonalization with overlap
     ethr =  3.22E-06,  avg # of iterations =  3.0

     total cpu time spent up to now is      100.7 secs

     total energy              =     -95.10348550 Ry
     Harris-Foulkes estimate   =     -95.10369855 Ry
     estimated scf accuracy    <       0.00048570 Ry

     iteration #  3     ecut=    40.00 Ry     beta=0.70
     Davidson diagonalization with overlap
     ethr =  3.22E-06,  avg # of iterations =  1.5

     total cpu time spent up to now is      101.3 secs

     total energy              =     -95.10348942 Ry
     Harris-Foulkes estimate   =     -95.10351724 Ry
     estimated scf accuracy    <       0.00009510 Ry

     iteration #  4     ecut=    40.00 Ry     beta=0.70
     Davidson diagonalization with overlap
     ethr =  1.06E-06,  avg # of iterations =  1.0

     total cpu time spent up to now is      102.2 secs

     total energy              =     -95.10348078 Ry
     Harris-Foulkes estimate   =     -95.10349287 Ry
     estimated scf accuracy    <       0.00003787 Ry

     iteration #  5     ecut=    40.00 Ry     beta=0.70
     Davidson diagonalization with overlap
     ethr =  4.21E-07,  avg # of iterations =  1.0

     total cpu time spent up to now is      102.8 secs

     total energy              =     -95.10347704 Ry
     Harris-Foulkes estimate   =     -95.10348200 Ry
     estimated scf accuracy    <       0.00001438 Ry

     iteration #  6     ecut=    40.00 Ry     beta=0.70
     Davidson diagonalization with overlap
     ethr =  1.60E-07,  avg # of iterations =  1.0

     total cpu time spent up to now is      103.4 secs

     total energy              =     -95.10347531 Ry
     Harris-Foulkes estimate   =     -95.10347758 Ry
     estimated scf accuracy    <       0.00000486 Ry

     iteration #  7     ecut=    40.00 Ry     beta=0.70
     Davidson diagonalization with overlap
     ethr =  5.40E-08,  avg # of iterations =  1.0

     total cpu time spent up to now is      104.1 secs

     total energy              =     -95.10347519 Ry
     Harris-Foulkes estimate   =     -95.10347569 Ry
     estimated scf accuracy    <       0.00000077 Ry

     iteration #  8     ecut=    40.00 Ry     beta=0.70
     Davidson diagonalization with overlap
     ethr =  8.58E-09,  avg # of iterations =  2.0

     total cpu time spent up to now is      104.8 secs

     total energy              =     -95.10347535 Ry
     Harris-Foulkes estimate   =     -95.10347535 Ry
     estimated scf accuracy    <          4.4E-09 Ry

     iteration #  9     ecut=    40.00 Ry     beta=0.70
     Davidson diagonalization with overlap
     ethr =  4.93E-11,  avg # of iterations =  1.6

     total cpu time spent up to now is      105.6 secs

     total energy              =     -95.10347535 Ry
     Harris-Foulkes estimate   =     -95.10347535 Ry
     estimated scf accuracy    <          4.5E-09 Ry

     iteration # 10     ecut=    40.00 Ry     beta=0.70
     Davidson diagonalization with overlap
     ethr =  4.93E-11,  avg # of iterations =  1.0

     total cpu time spent up to now is      106.4 secs

     total energy              =     -95.10347535 Ry
     Harris-Foulkes estimate   =     -95.10347535 Ry
     estimated scf accuracy    <          1.6E-09 Ry

     iteration # 11     ecut=    40.00 Ry     beta=0.70
     Davidson diagonalization with overlap
     ethr =  1.76E-11,  avg # of iterations =  2.0

     total cpu time spent up to now is      107.1 secs

     total energy              =     -95.10347535 Ry
     Harris-Foulkes estimate   =     -95.10347535 Ry
     estimated scf accuracy    <          1.7E-10 Ry

     iteration # 12     ecut=    40.00 Ry     beta=0.70
     Davidson diagonalization with overlap
     ethr =  1.89E-12,  avg # of iterations =  1.0

     total cpu time spent up to now is      107.8 secs

     total energy              =     -95.10347535 Ry
     Harris-Foulkes estimate   =     -95.10347535 Ry
     estimated scf accuracy    <          1.2E-10 Ry

     iteration # 13     ecut=    40.00 Ry     beta=0.70
     Davidson diagonalization with overlap
     ethr =  1.29E-12,  avg # of iterations =  1.0

     total cpu time spent up to now is      108.4 secs

     total energy              =     -95.10347535 Ry
     Harris-Foulkes estimate   =     -95.10347535 Ry
     estimated scf accuracy    <          8.0E-11 Ry

     iteration # 14     ecut=    40.00 Ry     beta=0.70
     Davidson diagonalization with overlap
     ethr =  8.88E-13,  avg # of iterations =  2.0

     total cpu time spent up to now is      109.2 secs

     total energy              =     -95.10347535 Ry
     Harris-Foulkes estimate   =     -95.10347535 Ry
     estimated scf accuracy    <          6.9E-10 Ry

     iteration # 15     ecut=    40.00 Ry     beta=0.70
     Davidson diagonalization with overlap
     ethr =  8.88E-13,  avg # of iterations =  2.0

     total cpu time spent up to now is      109.9 secs

     total energy              =     -95.10347535 Ry
     Harris-Foulkes estimate   =     -95.10347535 Ry
     estimated scf accuracy    <          8.4E-10 Ry

     iteration # 16     ecut=    40.00 Ry     beta=0.70
     Davidson diagonalization with overlap
     ethr =  8.88E-13,  avg # of iterations =  2.0

     total cpu time spent up to now is      110.7 secs

     total energy              =     -95.10347535 Ry
     Harris-Foulkes estimate   =     -95.10347535 Ry
     estimated scf accuracy    <          9.0E-12 Ry

     iteration # 17     ecut=    40.00 Ry     beta=0.70
     Davidson diagonalization with overlap
     ethr =  1.00E-13,  avg # of iterations =  1.5

     total cpu time spent up to now is      111.4 secs

     total energy              =     -95.10347535 Ry
     Harris-Foulkes estimate   =     -95.10347535 Ry
     estimated scf accuracy    <          5.1E-12 Ry

     iteration # 18     ecut=    40.00 Ry     beta=0.70
     Davidson diagonalization with overlap
     ethr =  1.00E-13,  avg # of iterations =  1.5

     total cpu time spent up to now is      112.0 secs

     End of self-consistent calculation

     Number of k-points >= 100: set verbosity='high' to print the bands.

     the Fermi energy is     2.6328 ev

!    total energy              =     -95.10347535 Ry
     Harris-Foulkes estimate   =     -95.10347535 Ry
     estimated scf accuracy    <          6.5E-15 Ry

     The total energy is the sum of the following terms:

     one-electron contribution =     -83.22397060 Ry
     hartree contribution      =      42.36004405 Ry
     xc contribution           =     -14.29892887 Ry
     ewald contribution        =     -39.94051745 Ry
     smearing contrib. (-TS)   =      -0.00010247 Ry

     convergence has been achieved in  18 iterations

     Forces acting on atoms (cartesian axes, Ry/au):

     atom    1 type  1   force =     0.00000000    0.00000000    0.00000000

     Total force =     0.000000     Total SCF correction =     0.000000


     Computing stress (Cartesian axis) and pressure

          total   stress  (Ry/bohr**3)                   (kbar)     P=   24.98
   0.00016984   0.00000000  -0.00000000         24.98      0.00     -0.00
   0.00000000   0.00016984   0.00000000          0.00     24.98      0.00
  -0.00000000   0.00000000   0.00016984         -0.00      0.00     24.98


     bfgs converged in   8 scf cycles and   7 bfgs steps
     (criteria: energy <  1.0E-04 Ry, force <  1.0E-03Ry/Bohr, cell <  5.0E-02kbar)

     End of BFGS Geometry Optimization

     Final enthalpy =     -95.0693146985 Ry
Begin final coordinates
     new unit-cell volume =    201.00819 a.u.^3 (    29.78634 Ang^3 )
     density =      1.28165 g/cm^3

CELL_PARAMETERS (alat=  8.00000000)
   0.461276431   0.461276431   0.461276431
  -0.461276431   0.461276431   0.461276431
  -0.461276431  -0.461276431   0.461276431

ATOMIC_POSITIONS (crystal)
Na       0.000000000   0.000000000   0.000000000
End final coordinates



     A final scf calculation at the relaxed structure.
     The G-vectors are recalculated for the final unit cell
     Results may differ from those at the preceding step.

     Parallelization info
     --------------------
     sticks:   dense  smooth     PW     G-vecs:    dense   smooth      PW
     Min          61      30      9                 1211      425      76
     Max          62      31     10                 1214      428      79
     Sum         977     483    159                19381     6819    1253



     bravais-lattice index     =            3
     lattice parameter (alat)  =       8.0000  a.u.
     unit-cell volume          =     201.0082 (a.u.)^3
     number of atoms/cell      =            1
     number of atomic types    =            1
     number of electrons       =         9.00
     number of Kohn-Sham states=            9
     kinetic-energy cutoff     =      40.0000  Ry
     charge density cutoff     =     320.0000  Ry
     convergence threshold     =      1.0E-12
     mixing beta               =       0.7000
     number of iterations used =            8  plain     mixing
     Exchange-correlation      = SLA  PW   PBE  PBE ( 1  4  3  4 0 0)

     celldm(1)=   8.000000  celldm(2)=   0.000000  celldm(3)=   0.000000
     celldm(4)=   0.000000  celldm(5)=   0.000000  celldm(6)=   0.000000

     crystal axes: (cart. coord. in units of alat)
               a(1) = (   0.461276   0.461276   0.461276 )  
               a(2) = (  -0.461276   0.461276   0.461276 )  
               a(3) = (  -0.461276  -0.461276   0.461276 )  

     reciprocal axes: (cart. coord. in units 2 pi/alat)
               b(1) = (  1.083949  0.000000  1.083949 )  
               b(2) = ( -1.083949  1.083949  0.000000 )  
               b(3) = ( -0.000000 -1.083949  1.083949 )  


     PseudoPot. # 1 for Na read from file:
     /home/s1333534/quantum_espresso/qe-6.1/pseudo/Na_pbe_v1.uspp.F.UPF
     MD5 check sum: 76a99c7e9422403d3e93cbc85ab7bccb
     Pseudo is Ultrasoft, Zval =  9.0
     Generated by new atomic code, or converted to UPF format
     Using radial grid of  819 points,  5 beta functions with: 
                l(1) =   0
                l(2) =   0
                l(3) =   1
                l(4) =   1
                l(5) =   2
     Q(r) pseudized with  8 coefficients,  rinner =    1.250   1.250   1.250
                                                       1.250   1.250

     atomic species   valence    mass     pseudopotential
        Na             9.00    22.99000     Na( 1.00)

     48 Sym. Ops., with inversion, found



   Cartesian axes

     site n.     atom                  positions (alat units)
         1           Na  tau(   1) = (   0.0000000   0.0000000   0.0000000  )

     number of k points=   250  Marzari-Vanderbilt smearing, width (Ry)=  0.0200

     Number of k-points >= 100: set verbosity='high' to print them.

     Dense  grid:    19381 G-vectors     FFT dimensions: (  40,  40,  40)

     Smooth grid:     6819 G-vectors     FFT dimensions: (  25,  25,  25)

     Estimated max dynamical RAM per process >       1.38MB

     Estimated total allocated dynamical RAM >      88.64MB

     Initial potential from superposition of free atoms

     starting charge    8.99371, renormalised to    9.00000
     Starting wfc are    5 randomized atomic wfcs +    4 random wfc

     Writing output data file na.bcc.save

     total cpu time spent up to now is      113.8 secs

     per-process dynamical memory:    13.0 Mb

     Self-consistent Calculation

     iteration #  1     ecut=    40.00 Ry     beta=0.70
     Davidson diagonalization with overlap
     c_bands:  1 eigenvalues not converged
     ethr =  1.00E-06,  avg # of iterations = 11.4

     total cpu time spent up to now is      115.8 secs

     total energy              =     -95.10288928 Ry
     Harris-Foulkes estimate   =     -95.10322844 Ry
     estimated scf accuracy    <       0.00103187 Ry

     iteration #  2     ecut=    40.00 Ry     beta=0.70
     Davidson diagonalization with overlap
     ethr =  1.15E-05,  avg # of iterations =  2.0

     total cpu time spent up to now is      116.4 secs

     total energy              =     -95.10302199 Ry
     Harris-Foulkes estimate   =     -95.10305256 Ry
     estimated scf accuracy    <       0.00011870 Ry

     iteration #  3     ecut=    40.00 Ry     beta=0.70
     Davidson diagonalization with overlap
     ethr =  1.32E-06,  avg # of iterations =  2.0

     total cpu time spent up to now is      117.0 secs

     total energy              =     -95.10303529 Ry
     Harris-Foulkes estimate   =     -95.10303663 Ry
     estimated scf accuracy    <       0.00000730 Ry

     iteration #  4     ecut=    40.00 Ry     beta=0.70
     Davidson diagonalization with overlap
     ethr =  8.12E-08,  avg # of iterations =  1.0

     total cpu time spent up to now is      117.4 secs

     total energy              =     -95.10303592 Ry
     Harris-Foulkes estimate   =     -95.10303587 Ry
     estimated scf accuracy    <          9.1E-09 Ry

     iteration #  5     ecut=    40.00 Ry     beta=0.70
     Davidson diagonalization with overlap
     ethr =  1.01E-10,  avg # of iterations =  3.0

     total cpu time spent up to now is      118.2 secs

     total energy              =     -95.10303595 Ry
     Harris-Foulkes estimate   =     -95.10303595 Ry
     estimated scf accuracy    <          1.1E-09 Ry

     iteration #  6     ecut=    40.00 Ry     beta=0.70
     Davidson diagonalization with overlap
     ethr =  1.27E-11,  avg # of iterations =  1.5

     total cpu time spent up to now is      118.7 secs

     total energy              =     -95.10303595 Ry
     Harris-Foulkes estimate   =     -95.10303595 Ry
     estimated scf accuracy    <          4.3E-11 Ry

     iteration #  7     ecut=    40.00 Ry     beta=0.70
     Davidson diagonalization with overlap
     ethr =  4.79E-13,  avg # of iterations =  2.0

     total cpu time spent up to now is      119.3 secs

     total energy              =     -95.10303595 Ry
     Harris-Foulkes estimate   =     -95.10303595 Ry
     estimated scf accuracy    <          3.6E-12 Ry

     iteration #  8     ecut=    40.00 Ry     beta=0.70
     Davidson diagonalization with overlap
     ethr =  1.00E-13,  avg # of iterations =  1.0

     total cpu time spent up to now is      119.7 secs

     End of self-consistent calculation

     Number of k-points >= 100: set verbosity='high' to print the bands.

     the Fermi energy is     2.6320 ev

!    total energy              =     -95.10303595 Ry
     Harris-Foulkes estimate   =     -95.10303595 Ry
     estimated scf accuracy    <          2.7E-13 Ry

     The total energy is the sum of the following terms:

     one-electron contribution =     -83.22291992 Ry
     hartree contribution      =      42.35912634 Ry
     xc contribution           =     -14.29862245 Ry
     ewald contribution        =     -39.94051745 Ry
     smearing contrib. (-TS)   =      -0.00010246 Ry

     convergence has been achieved in   8 iterations

     Forces acting on atoms (cartesian axes, Ry/au):

     atom    1 type  1   force =     0.00000000    0.00000000    0.00000000

     Total force =     0.000000     Total SCF correction =     0.000000


     Computing stress (Cartesian axis) and pressure

          total   stress  (Ry/bohr**3)                   (kbar)     P=   21.66
   0.00014724  -0.00000000   0.00000000         21.66     -0.00      0.00
  -0.00000000   0.00014724  -0.00000000         -0.00     21.66     -0.00
   0.00000000  -0.00000000   0.00014724          0.00     -0.00     21.66


     Writing output data file na.bcc.save

     init_run     :      0.91s CPU      0.96s WALL (       2 calls)
     electrons    :     97.98s CPU    105.48s WALL (       9 calls)
     update_pot   :      1.40s CPU      1.44s WALL (       7 calls)
     forces       :      0.88s CPU      0.90s WALL (       9 calls)
     stress       :      2.71s CPU      2.74s WALL (       9 calls)

     Called by init_run:
     wfcinit      :      0.32s CPU      0.34s WALL (       2 calls)
     potinit      :      0.10s CPU      0.10s WALL (       2 calls)

     Called by electrons:
     c_bands      :     79.02s CPU     85.60s WALL (     139 calls)
     sum_band     :     15.25s CPU     16.05s WALL (     139 calls)
     v_of_rho     :      1.53s CPU      1.55s WALL (     147 calls)
     newd         :      1.45s CPU      1.47s WALL (     147 calls)
     mix_rho      :      0.29s CPU      0.29s WALL (     139 calls)

     Called by c_bands:
     init_us_2    :      1.52s CPU      1.61s WALL (   18774 calls)
     cegterg      :     71.14s CPU     77.46s WALL (    8757 calls)

     Called by sum_band:
     sum_band:bec :      0.09s CPU      0.10s WALL (    8757 calls)
     addusdens    :      1.82s CPU      1.86s WALL (     139 calls)

     Called by *egterg:
     h_psi        :     52.96s CPU     56.46s WALL (   26104 calls)
     s_psi        :      0.59s CPU      0.64s WALL (   26104 calls)
     g_psi        :      0.14s CPU      0.17s WALL (   17221 calls)
     cdiaghg      :      9.20s CPU     10.38s WALL (   25474 calls)

     Called by h_psi:
     h_psi:pot    :     52.72s CPU     56.20s WALL (   26104 calls)
     h_psi:calbec :      2.02s CPU      2.14s WALL (   26104 calls)
     vloc_psi     :     49.83s CPU     53.12s WALL (   26104 calls)
     add_vuspsi   :      0.62s CPU      0.67s WALL (   26104 calls)

     General routines
     calbec       :      2.78s CPU      2.94s WALL (   37696 calls)
     fft          :      1.51s CPU      1.57s WALL (    2399 calls)
     ffts         :      0.08s CPU      0.09s WALL (     286 calls)
     fftw         :     53.93s CPU     57.38s WALL (  464285 calls)
     interpolate  :      0.23s CPU      0.27s WALL (     286 calls)
     davcio       :      0.00s CPU      0.02s WALL (     126 calls)

     Parallel routines
     fft_scatter  :     26.23s CPU     27.88s WALL (  466970 calls)

     PWSCF        :  1m52.95s CPU     2m 1.00s WALL


   This run was terminated on:  23:35:33  29Jan2018            

=------------------------------------------------------------------------------=
   JOB DONE.
=------------------------------------------------------------------------------=
