
     Program PWSCF v.6.1 (svn rev. 13369) starts on 29Jan2018 at 23:31:41 

     This program is part of the open-source Quantum ESPRESSO suite
     for quantum simulation of materials; please cite
         "P. Giannozzi et al., J. Phys.:Condens. Matter 21 395502 (2009);
          URL http://www.quantum-espresso.org", 
     in publications or presentations arising from this work. More details at
     http://www.quantum-espresso.org/quote

     Parallel version (MPI), running on    64 processors
     K-points division:     npool     =       4
     R & G space division:  proc/nbgrp/npool/nimage =      16
     Waiting for input...
     Reading input from standard input

     Current dimensions of program PWSCF are:
     Max number of different atomic species (ntypx) = 10
     Max number of k-points (npk) =  80000
     Max angular momentum in pseudopotentials (lmaxx) =  3

     Subspace diagonalization in iterative solution of the eigenvalue problem:
     a serial algorithm will be used


     Parallelization info
     --------------------
     sticks:   dense  smooth     PW     G-vecs:    dense   smooth      PW
     Min          71      35     10                 1550      542      91
     Max          72      36     11                 1553      545      95
     Sum        1151     571    173                24835     8685    1505



     bravais-lattice index     =            3
     lattice parameter (alat)  =       8.0000  a.u.
     unit-cell volume          =     256.0000 (a.u.)^3
     number of atoms/cell      =            1
     number of atomic types    =            1
     number of electrons       =         9.00
     number of Kohn-Sham states=            9
     kinetic-energy cutoff     =      40.0000  Ry
     charge density cutoff     =     320.0000  Ry
     convergence threshold     =      1.0E-10
     mixing beta               =       0.7000
     number of iterations used =            8  plain     mixing
     Exchange-correlation      = SLA  PW   PBE  PBE ( 1  4  3  4 0 0)
     nstep                     =           50


     celldm(1)=   8.000000  celldm(2)=   0.000000  celldm(3)=   0.000000
     celldm(4)=   0.000000  celldm(5)=   0.000000  celldm(6)=   0.000000

     crystal axes: (cart. coord. in units of alat)
               a(1) = (   0.500000   0.500000   0.500000 )  
               a(2) = (  -0.500000   0.500000   0.500000 )  
               a(3) = (  -0.500000  -0.500000   0.500000 )  

     reciprocal axes: (cart. coord. in units 2 pi/alat)
               b(1) = (  1.000000  0.000000  1.000000 )  
               b(2) = ( -1.000000  1.000000  0.000000 )  
               b(3) = (  0.000000 -1.000000  1.000000 )  


     PseudoPot. # 1 for Na read from file:
     /home/s1333534/quantum_espresso/qe-6.1/pseudo/Na_pbe_v1.uspp.F.UPF
     MD5 check sum: 76a99c7e9422403d3e93cbc85ab7bccb
     Pseudo is Ultrasoft, Zval =  9.0
     Generated by new atomic code, or converted to UPF format
     Using radial grid of  819 points,  5 beta functions with: 
                l(1) =   0
                l(2) =   0
                l(3) =   1
                l(4) =   1
                l(5) =   2
     Q(r) pseudized with  8 coefficients,  rinner =    1.250   1.250   1.250
                                                       1.250   1.250

     atomic species   valence    mass     pseudopotential
        Na             9.00    22.99000     Na( 1.00)

     48 Sym. Ops., with inversion, found



   Cartesian axes

     site n.     atom                  positions (alat units)
         1           Na  tau(   1) = (   0.0000000   0.0000000   0.0000000  )

     number of k points=   250  Marzari-Vanderbilt smearing, width (Ry)=  0.0200

     Number of k-points >= 100: set verbosity='high' to print them.

     Dense  grid:    24835 G-vectors     FFT dimensions: (  40,  40,  40)

     Smooth grid:     8685 G-vectors     FFT dimensions: (  27,  27,  27)

     Estimated max dynamical RAM per process >       1.67MB

     Estimated total allocated dynamical RAM >     106.95MB

     Initial potential from superposition of free atoms

     starting charge    8.99371, renormalised to    9.00000
     Starting wfc are    5 randomized atomic wfcs +    4 random wfc

     total cpu time spent up to now is        0.7 secs

     per-process dynamical memory:     8.7 Mb

     Self-consistent Calculation

     iteration #  1     ecut=    40.00 Ry     beta=0.70
     Davidson diagonalization with overlap
     ethr =  1.00E-02,  avg # of iterations =  5.9

     Threshold (ethr) on eigenvalues was too large:
     Diagonalizing with lowered threshold

     Davidson diagonalization with overlap
     ethr =  9.84E-06,  avg # of iterations =  4.6

     total cpu time spent up to now is        3.2 secs

     total energy              =     -95.10637783 Ry
     Harris-Foulkes estimate   =     -95.10656724 Ry
     estimated scf accuracy    <       0.00088330 Ry

     iteration #  2     ecut=    40.00 Ry     beta=0.70
     Davidson diagonalization with overlap
     ethr =  9.81E-06,  avg # of iterations =  2.0

     total cpu time spent up to now is        3.9 secs

     total energy              =     -95.10647613 Ry
     Harris-Foulkes estimate   =     -95.10649622 Ry
     estimated scf accuracy    <       0.00009726 Ry

     iteration #  3     ecut=    40.00 Ry     beta=0.70
     Davidson diagonalization with overlap
     ethr =  1.08E-06,  avg # of iterations =  2.1

     total cpu time spent up to now is        4.7 secs

     total energy              =     -95.10648758 Ry
     Harris-Foulkes estimate   =     -95.10648857 Ry
     estimated scf accuracy    <       0.00000602 Ry

     iteration #  4     ecut=    40.00 Ry     beta=0.70
     Davidson diagonalization with overlap
     ethr =  6.69E-08,  avg # of iterations =  1.0

     total cpu time spent up to now is        5.3 secs

     total energy              =     -95.10648815 Ry
     Harris-Foulkes estimate   =     -95.10648811 Ry
     estimated scf accuracy    <       0.00000001 Ry

     iteration #  5     ecut=    40.00 Ry     beta=0.70
     Davidson diagonalization with overlap
     ethr =  1.40E-10,  avg # of iterations =  3.0

     total cpu time spent up to now is        6.2 secs

     total energy              =     -95.10648818 Ry
     Harris-Foulkes estimate   =     -95.10648818 Ry
     estimated scf accuracy    <          1.7E-09 Ry

     iteration #  6     ecut=    40.00 Ry     beta=0.70
     Davidson diagonalization with overlap
     ethr =  1.91E-11,  avg # of iterations =  1.5

     total cpu time spent up to now is        6.9 secs

     End of self-consistent calculation

     Number of k-points >= 100: set verbosity='high' to print the bands.

     the Fermi energy is     1.5119 ev

!    total energy              =     -95.10648818 Ry
     Harris-Foulkes estimate   =     -95.10648818 Ry
     estimated scf accuracy    <          5.4E-11 Ry

     The total energy is the sum of the following terms:

     one-electron contribution =     -88.63760988 Ry
     hartree contribution      =      44.64395914 Ry
     xc contribution           =     -14.26550735 Ry
     ewald contribution        =     -36.84723868 Ry
     smearing contrib. (-TS)   =      -0.00009142 Ry

     convergence has been achieved in   6 iterations

     Forces acting on atoms (cartesian axes, Ry/au):

     atom    1 type  1   force =     0.00000000    0.00000000    0.00000000

     Total force =     0.000000     Total SCF correction =     0.000000


     Computing stress (Cartesian axis) and pressure

          total   stress  (Ry/bohr**3)                   (kbar)     P=   -4.56
  -0.00003097   0.00000000   0.00000000         -4.56      0.00      0.00
   0.00000000  -0.00003097   0.00000000          0.00     -4.56      0.00
   0.00000000   0.00000000  -0.00003097          0.00      0.00     -4.56


     BFGS Geometry Optimization

     number of scf cycles    =   1
     number of bfgs steps    =   0

     enthalpy new            =     -95.1064881848 Ry

     new trust radius        =       0.0024775524 bohr
     new conv_thr            =            1.0E-10 Ry

     new unit-cell volume =    255.40585 a.u.^3 (    37.84724 Ang^3 )
     density =      1.00868 g/cm^3

CELL_PARAMETERS (alat=  8.00000000)
   0.499612882   0.499612882   0.499612882
  -0.499612882   0.499612882   0.499612882
  -0.499612882  -0.499612882   0.499612882

ATOMIC_POSITIONS (crystal)
Na       0.000000000   0.000000000   0.000000000



     Writing output data file na.bcc.save
     NEW-OLD atomic charge density approx. for the potential
     extrapolated charge    8.97908, renormalised to    9.00000

     total cpu time spent up to now is        8.6 secs

     per-process dynamical memory:    13.6 Mb

     Self-consistent Calculation

     iteration #  1     ecut=    40.00 Ry     beta=0.70
     Davidson diagonalization with overlap
     ethr =  1.00E-06,  avg # of iterations =  2.0

     total cpu time spent up to now is        9.5 secs

     total energy              =     -95.10621863 Ry
     Harris-Foulkes estimate   =     -95.27082609 Ry
     estimated scf accuracy    <       0.00016067 Ry

     iteration #  2     ecut=    40.00 Ry     beta=0.70
     Davidson diagonalization with overlap
     ethr =  1.79E-06,  avg # of iterations =  3.0

     total cpu time spent up to now is       10.5 secs

     total energy              =     -95.10651151 Ry
     Harris-Foulkes estimate   =     -95.10662963 Ry
     estimated scf accuracy    <       0.00026902 Ry

     iteration #  3     ecut=    40.00 Ry     beta=0.70
     Davidson diagonalization with overlap
     ethr =  1.79E-06,  avg # of iterations =  1.9

     total cpu time spent up to now is       11.2 secs

     total energy              =     -95.10651109 Ry
     Harris-Foulkes estimate   =     -95.10652939 Ry
     estimated scf accuracy    <       0.00005172 Ry

     iteration #  4     ecut=    40.00 Ry     beta=0.70
     Davidson diagonalization with overlap
     ethr =  5.75E-07,  avg # of iterations =  1.0

     total cpu time spent up to now is       11.8 secs

     total energy              =     -95.10650687 Ry
     Harris-Foulkes estimate   =     -95.10651354 Ry
     estimated scf accuracy    <       0.00001590 Ry

     iteration #  5     ecut=    40.00 Ry     beta=0.70
     Davidson diagonalization with overlap
     ethr =  1.77E-07,  avg # of iterations =  1.0

     total cpu time spent up to now is       12.6 secs

     total energy              =     -95.10650713 Ry
     Harris-Foulkes estimate   =     -95.10650791 Ry
     estimated scf accuracy    <       0.00000343 Ry

     iteration #  6     ecut=    40.00 Ry     beta=0.70
     Davidson diagonalization with overlap
     ethr =  3.81E-08,  avg # of iterations =  1.0

     total cpu time spent up to now is       13.2 secs

     total energy              =     -95.10650690 Ry
     Harris-Foulkes estimate   =     -95.10650723 Ry
     estimated scf accuracy    <       0.00000191 Ry

     iteration #  7     ecut=    40.00 Ry     beta=0.70
     Davidson diagonalization with overlap
     ethr =  2.12E-08,  avg # of iterations =  1.0

     total cpu time spent up to now is       13.9 secs

     total energy              =     -95.10650612 Ry
     Harris-Foulkes estimate   =     -95.10650692 Ry
     estimated scf accuracy    <       0.00000124 Ry

     iteration #  8     ecut=    40.00 Ry     beta=0.70
     Davidson diagonalization with overlap
     ethr =  1.38E-08,  avg # of iterations =  2.0

     total cpu time spent up to now is       14.6 secs

     total energy              =     -95.10650636 Ry
     Harris-Foulkes estimate   =     -95.10650636 Ry
     estimated scf accuracy    <       0.00000001 Ry

     iteration #  9     ecut=    40.00 Ry     beta=0.70
     Davidson diagonalization with overlap
     ethr =  1.48E-10,  avg # of iterations =  1.1

     total cpu time spent up to now is       15.2 secs

     total energy              =     -95.10650636 Ry
     Harris-Foulkes estimate   =     -95.10650636 Ry
     estimated scf accuracy    <          3.1E-09 Ry

     iteration # 10     ecut=    40.00 Ry     beta=0.70
     Davidson diagonalization with overlap
     ethr =  3.48E-11,  avg # of iterations =  1.0

     total cpu time spent up to now is       15.8 secs

     total energy              =     -95.10650636 Ry
     Harris-Foulkes estimate   =     -95.10650636 Ry
     estimated scf accuracy    <          3.2E-09 Ry

     iteration # 11     ecut=    40.00 Ry     beta=0.70
     Davidson diagonalization with overlap
     ethr =  3.48E-11,  avg # of iterations =  1.0

     total cpu time spent up to now is       16.4 secs

     total energy              =     -95.10650636 Ry
     Harris-Foulkes estimate   =     -95.10650636 Ry
     estimated scf accuracy    <          3.3E-10 Ry

     iteration # 12     ecut=    40.00 Ry     beta=0.70
     Davidson diagonalization with overlap
     ethr =  3.67E-12,  avg # of iterations =  2.0

     total cpu time spent up to now is       17.1 secs

     End of self-consistent calculation

     Number of k-points >= 100: set verbosity='high' to print the bands.

     the Fermi energy is     1.5213 ev

!    total energy              =     -95.10650636 Ry
     Harris-Foulkes estimate   =     -95.10650636 Ry
     estimated scf accuracy    <          5.6E-11 Ry

     The total energy is the sum of the following terms:

     one-electron contribution =     -88.58741968 Ry
     hartree contribution      =      44.62259324 Ry
     xc contribution           =     -14.26579917 Ry
     ewald contribution        =     -36.87578921 Ry
     smearing contrib. (-TS)   =      -0.00009153 Ry

     convergence has been achieved in  12 iterations

     Forces acting on atoms (cartesian axes, Ry/au):

     atom    1 type  1   force =     0.00000000    0.00000000    0.00000000

     Total force =     0.000000     Total SCF correction =     0.000000


     Computing stress (Cartesian axis) and pressure

          total   stress  (Ry/bohr**3)                   (kbar)     P=   -4.41
  -0.00002997   0.00000000  -0.00000000         -4.41      0.00     -0.00
   0.00000000  -0.00002997   0.00000000          0.00     -4.41      0.00
  -0.00000000   0.00000000  -0.00002997         -0.00      0.00     -4.41


     number of scf cycles    =   2
     number of bfgs steps    =   1

     enthalpy old            =     -95.1064881848 Ry
     enthalpy new            =     -95.1065063590 Ry

     CASE: enthalpy_new < enthalpy_old


     WARNING: bfgs curvature condition failed, Theta= 0.828
     new trust radius        =       0.0037148896 bohr
     new conv_thr            =            1.0E-12 Ry

     new unit-cell volume =    254.51634 a.u.^3 (    37.71543 Ang^3 )
     density =      1.01221 g/cm^3

CELL_PARAMETERS (alat=  8.00000000)
   0.499032206   0.499032206   0.499032206
  -0.499032206   0.499032206   0.499032206
  -0.499032206  -0.499032206   0.499032206

ATOMIC_POSITIONS (crystal)
Na       0.000000000   0.000000000   0.000000000



     Writing output data file na.bcc.save
     NEW-OLD atomic charge density approx. for the potential
     extrapolated charge    8.96857, renormalised to    9.00000

     total cpu time spent up to now is       18.8 secs

     per-process dynamical memory:    13.6 Mb

     Self-consistent Calculation

     iteration #  1     ecut=    40.00 Ry     beta=0.70
     Davidson diagonalization with overlap
     ethr =  1.00E-06,  avg # of iterations =  2.0

     total cpu time spent up to now is       19.7 secs

     total energy              =     -95.10588511 Ry
     Harris-Foulkes estimate   =     -95.35312021 Ry
     estimated scf accuracy    <       0.00036154 Ry

     iteration #  2     ecut=    40.00 Ry     beta=0.70
     Davidson diagonalization with overlap
     ethr =  4.02E-06,  avg # of iterations =  3.0

     total cpu time spent up to now is       20.7 secs

     total energy              =     -95.10654335 Ry
     Harris-Foulkes estimate   =     -95.10680900 Ry
     estimated scf accuracy    <       0.00060486 Ry

     iteration #  3     ecut=    40.00 Ry     beta=0.70
     Davidson diagonalization with overlap
     ethr =  4.02E-06,  avg # of iterations =  1.9

     total cpu time spent up to now is       21.4 secs

     total energy              =     -95.10654241 Ry
     Harris-Foulkes estimate   =     -95.10658368 Ry
     estimated scf accuracy    <       0.00011591 Ry

     iteration #  4     ecut=    40.00 Ry     beta=0.70
     Davidson diagonalization with overlap
     ethr =  1.29E-06,  avg # of iterations =  1.0

     total cpu time spent up to now is       21.9 secs

     total energy              =     -95.10653283 Ry
     Harris-Foulkes estimate   =     -95.10654796 Ry
     estimated scf accuracy    <       0.00003522 Ry

     iteration #  5     ecut=    40.00 Ry     beta=0.70
     Davidson diagonalization with overlap
     ethr =  3.91E-07,  avg # of iterations =  1.0

     total cpu time spent up to now is       22.6 secs

     total energy              =     -95.10653380 Ry
     Harris-Foulkes estimate   =     -95.10653526 Ry
     estimated scf accuracy    <       0.00000711 Ry

     iteration #  6     ecut=    40.00 Ry     beta=0.70
     Davidson diagonalization with overlap
     ethr =  7.90E-08,  avg # of iterations =  1.0

     total cpu time spent up to now is       23.2 secs

     total energy              =     -95.10653304 Ry
     Harris-Foulkes estimate   =     -95.10653400 Ry
     estimated scf accuracy    <       0.00000430 Ry

     iteration #  7     ecut=    40.00 Ry     beta=0.70
     Davidson diagonalization with overlap
     ethr =  4.77E-08,  avg # of iterations =  1.0

     total cpu time spent up to now is       23.7 secs

     total energy              =     -95.10653162 Ry
     Harris-Foulkes estimate   =     -95.10653312 Ry
     estimated scf accuracy    <       0.00000234 Ry

     iteration #  8     ecut=    40.00 Ry     beta=0.70
     Davidson diagonalization with overlap
     ethr =  2.60E-08,  avg # of iterations =  2.0

     total cpu time spent up to now is       24.5 secs

     total energy              =     -95.10653207 Ry
     Harris-Foulkes estimate   =     -95.10653208 Ry
     estimated scf accuracy    <       0.00000006 Ry

     iteration #  9     ecut=    40.00 Ry     beta=0.70
     Davidson diagonalization with overlap
     ethr =  6.30E-10,  avg # of iterations =  1.0

     total cpu time spent up to now is       25.1 secs

     total energy              =     -95.10653207 Ry
     Harris-Foulkes estimate   =     -95.10653207 Ry
     estimated scf accuracy    <          9.9E-09 Ry

     iteration # 10     ecut=    40.00 Ry     beta=0.70
     Davidson diagonalization with overlap
     ethr =  1.10E-10,  avg # of iterations =  1.0

     total cpu time spent up to now is       25.8 secs

     total energy              =     -95.10653207 Ry
     Harris-Foulkes estimate   =     -95.10653207 Ry
     estimated scf accuracy    <       0.00000002 Ry

     iteration # 11     ecut=    40.00 Ry     beta=0.70
     Davidson diagonalization with overlap
     ethr =  1.10E-10,  avg # of iterations =  2.0

     total cpu time spent up to now is       26.6 secs

     total energy              =     -95.10653207 Ry
     Harris-Foulkes estimate   =     -95.10653207 Ry
     estimated scf accuracy    <       0.00000002 Ry

     iteration # 12     ecut=    40.00 Ry     beta=0.70
     Davidson diagonalization with overlap
     ethr =  1.10E-10,  avg # of iterations =  2.0

     total cpu time spent up to now is       27.3 secs

     total energy              =     -95.10653207 Ry
     Harris-Foulkes estimate   =     -95.10653207 Ry
     estimated scf accuracy    <          9.5E-11 Ry

     iteration # 13     ecut=    40.00 Ry     beta=0.70
     Davidson diagonalization with overlap
     ethr =  1.06E-12,  avg # of iterations =  1.2

     total cpu time spent up to now is       27.9 secs

     total energy              =     -95.10653207 Ry
     Harris-Foulkes estimate   =     -95.10653207 Ry
     estimated scf accuracy    <          2.1E-12 Ry

     iteration # 14     ecut=    40.00 Ry     beta=0.70
     Davidson diagonalization with overlap
     ethr =  1.00E-13,  avg # of iterations =  1.0

     total cpu time spent up to now is       28.6 secs

     End of self-consistent calculation

     Number of k-points >= 100: set verbosity='high' to print the bands.

     the Fermi energy is     1.5355 ev

!    total energy              =     -95.10653207 Ry
     Harris-Foulkes estimate   =     -95.10653207 Ry
     estimated scf accuracy    <          1.3E-13 Ry

     The total energy is the sum of the following terms:

     one-electron contribution =     -88.51204925 Ry
     hartree contribution      =      44.59055752 Ry
     xc contribution           =     -14.26625057 Ry
     ewald contribution        =     -36.91869806 Ry
     smearing contrib. (-TS)   =      -0.00009171 Ry

     convergence has been achieved in  14 iterations

     Forces acting on atoms (cartesian axes, Ry/au):

     atom    1 type  1   force =     0.00000000    0.00000000    0.00000000

     Total force =     0.000000     Total SCF correction =     0.000000


     Computing stress (Cartesian axis) and pressure

          total   stress  (Ry/bohr**3)                   (kbar)     P=   -4.10
  -0.00002788   0.00000000  -0.00000000         -4.10      0.00     -0.00
  -0.00000000  -0.00002788   0.00000000         -0.00     -4.10      0.00
  -0.00000000   0.00000000  -0.00002788         -0.00      0.00     -4.10


     number of scf cycles    =   3
     number of bfgs steps    =   2

     enthalpy old            =     -95.1065063590 Ry
     enthalpy new            =     -95.1065320677 Ry

     CASE: enthalpy_new < enthalpy_old

     new trust radius        =       0.0055690952 bohr
     new conv_thr            =            1.0E-12 Ry

     new unit-cell volume =    253.18596 a.u.^3 (    37.51829 Ang^3 )
     density =      1.01752 g/cm^3

CELL_PARAMETERS (alat=  8.00000000)
   0.498161192   0.498161192   0.498161192
  -0.498161192   0.498161192   0.498161192
  -0.498161192  -0.498161192   0.498161192

ATOMIC_POSITIONS (crystal)
Na       0.000000000   0.000000000   0.000000000



     Writing output data file na.bcc.save
     NEW-OLD atomic charge density approx. for the potential
     extrapolated charge    8.95274, renormalised to    9.00000

     total cpu time spent up to now is       30.3 secs

     per-process dynamical memory:    13.6 Mb

     Self-consistent Calculation

     iteration #  1     ecut=    40.00 Ry     beta=0.70
     Davidson diagonalization with overlap
     ethr =  1.00E-06,  avg # of iterations =  2.5

     total cpu time spent up to now is       31.2 secs

     total energy              =     -95.10511398 Ry
     Harris-Foulkes estimate   =     -95.47669178 Ry
     estimated scf accuracy    <       0.00081232 Ry

     iteration #  2     ecut=    40.00 Ry     beta=0.70
     Davidson diagonalization with overlap
     ethr =  9.03E-06,  avg # of iterations =  3.0

     total cpu time spent up to now is       32.1 secs

     total energy              =     -95.10659161 Ry
     Harris-Foulkes estimate   =     -95.10718842 Ry
     estimated scf accuracy    <       0.00135884 Ry

     iteration #  3     ecut=    40.00 Ry     beta=0.70
     Davidson diagonalization with overlap
     ethr =  9.03E-06,  avg # of iterations =  1.9

     total cpu time spent up to now is       33.1 secs

     total energy              =     -95.10658907 Ry
     Harris-Foulkes estimate   =     -95.10668260 Ry
     estimated scf accuracy    <       0.00025923 Ry

     iteration #  4     ecut=    40.00 Ry     beta=0.70
     Davidson diagonalization with overlap
     ethr =  2.88E-06,  avg # of iterations =  1.0

     total cpu time spent up to now is       33.7 secs

     total energy              =     -95.10656783 Ry
     Harris-Foulkes estimate   =     -95.10660172 Ry
     estimated scf accuracy    <       0.00007698 Ry

     iteration #  5     ecut=    40.00 Ry     beta=0.70
     Davidson diagonalization with overlap
     ethr =  8.55E-07,  avg # of iterations =  1.0

     total cpu time spent up to now is       34.3 secs

     total energy              =     -95.10657087 Ry
     Harris-Foulkes estimate   =     -95.10657350 Ry
     estimated scf accuracy    <       0.00001432 Ry

     iteration #  6     ecut=    40.00 Ry     beta=0.70
     Davidson diagonalization with overlap
     ethr =  1.59E-07,  avg # of iterations =  1.0

     total cpu time spent up to now is       34.9 secs

     total energy              =     -95.10656823 Ry
     Harris-Foulkes estimate   =     -95.10657127 Ry
     estimated scf accuracy    <       0.00000942 Ry

     iteration #  7     ecut=    40.00 Ry     beta=0.70
     Davidson diagonalization with overlap
     ethr =  1.05E-07,  avg # of iterations =  1.0

     total cpu time spent up to now is       35.5 secs

     total energy              =     -95.10656724 Ry
     Harris-Foulkes estimate   =     -95.10656860 Ry
     estimated scf accuracy    <       0.00000342 Ry

     iteration #  8     ecut=    40.00 Ry     beta=0.70
     Davidson diagonalization with overlap
     ethr =  3.80E-08,  avg # of iterations =  1.0

     total cpu time spent up to now is       36.2 secs

     total energy              =     -95.10656695 Ry
     Harris-Foulkes estimate   =     -95.10656745 Ry
     estimated scf accuracy    <       0.00000081 Ry

     iteration #  9     ecut=    40.00 Ry     beta=0.70
     Davidson diagonalization with overlap
     ethr =  9.02E-09,  avg # of iterations =  2.0

     total cpu time spent up to now is       37.1 secs

     total energy              =     -95.10656711 Ry
     Harris-Foulkes estimate   =     -95.10656711 Ry
     estimated scf accuracy    <       0.00000003 Ry

     iteration # 10     ecut=    40.00 Ry     beta=0.70
     Davidson diagonalization with overlap
     ethr =  2.94E-10,  avg # of iterations =  1.0

     total cpu time spent up to now is       37.7 secs

     total energy              =     -95.10656711 Ry
     Harris-Foulkes estimate   =     -95.10656711 Ry
     estimated scf accuracy    <       0.00000003 Ry

     iteration # 11     ecut=    40.00 Ry     beta=0.70
     Davidson diagonalization with overlap
     ethr =  2.94E-10,  avg # of iterations =  2.0

     total cpu time spent up to now is       38.5 secs

     total energy              =     -95.10656709 Ry
     Harris-Foulkes estimate   =     -95.10656712 Ry
     estimated scf accuracy    <       0.00000006 Ry

     iteration # 12     ecut=    40.00 Ry     beta=0.70
     Davidson diagonalization with overlap
     ethr =  2.94E-10,  avg # of iterations =  2.0

     total cpu time spent up to now is       39.2 secs

     total energy              =     -95.10656710 Ry
     Harris-Foulkes estimate   =     -95.10656711 Ry
     estimated scf accuracy    <       0.00000003 Ry

     iteration # 13     ecut=    40.00 Ry     beta=0.70
     Davidson diagonalization with overlap
     ethr =  2.84E-10,  avg # of iterations =  1.0

     total cpu time spent up to now is       39.8 secs

     total energy              =     -95.10656710 Ry
     Harris-Foulkes estimate   =     -95.10656710 Ry
     estimated scf accuracy    <          2.4E-09 Ry

     iteration # 14     ecut=    40.00 Ry     beta=0.70
     Davidson diagonalization with overlap
     ethr =  2.67E-11,  avg # of iterations =  2.0

     total cpu time spent up to now is       40.5 secs

     total energy              =     -95.10656710 Ry
     Harris-Foulkes estimate   =     -95.10656710 Ry
     estimated scf accuracy    <          3.1E-10 Ry

     iteration # 15     ecut=    40.00 Ry     beta=0.70
     Davidson diagonalization with overlap
     ethr =  3.44E-12,  avg # of iterations =  2.0

     total cpu time spent up to now is       41.2 secs

     total energy              =     -95.10656710 Ry
     Harris-Foulkes estimate   =     -95.10656710 Ry
     estimated scf accuracy    <          6.1E-10 Ry

     iteration # 16     ecut=    40.00 Ry     beta=0.70
     Davidson diagonalization with overlap
     ethr =  3.44E-12,  avg # of iterations =  2.0

     total cpu time spent up to now is       42.0 secs

     total energy              =     -95.10656710 Ry
     Harris-Foulkes estimate   =     -95.10656710 Ry
     estimated scf accuracy    <          1.2E-10 Ry

     iteration # 17     ecut=    40.00 Ry     beta=0.70
     Davidson diagonalization with overlap
     ethr =  1.35E-12,  avg # of iterations =  2.2

     total cpu time spent up to now is       42.8 secs

     total energy              =     -95.10656710 Ry
     Harris-Foulkes estimate   =     -95.10656710 Ry
     estimated scf accuracy    <          3.2E-09 Ry

     iteration # 18     ecut=    40.00 Ry     beta=0.70
     Davidson diagonalization with overlap
     ethr =  1.35E-12,  avg # of iterations =  2.3

     total cpu time spent up to now is       43.6 secs

     total energy              =     -95.10656710 Ry
     Harris-Foulkes estimate   =     -95.10656710 Ry
     estimated scf accuracy    <          2.8E-10 Ry

     iteration # 19     ecut=    40.00 Ry     beta=0.70
     Davidson diagonalization with overlap
     ethr =  1.35E-12,  avg # of iterations =  2.0

     total cpu time spent up to now is       44.3 secs

     total energy              =     -95.10656710 Ry
     Harris-Foulkes estimate   =     -95.10656710 Ry
     estimated scf accuracy    <          9.4E-12 Ry

     iteration # 20     ecut=    40.00 Ry     beta=0.70
     Davidson diagonalization with overlap
     ethr =  1.05E-13,  avg # of iterations =  2.0

     total cpu time spent up to now is       45.0 secs

     End of self-consistent calculation

     Number of k-points >= 100: set verbosity='high' to print the bands.

     the Fermi energy is     1.5570 ev

!    total energy              =     -95.10656710 Ry
     Harris-Foulkes estimate   =     -95.10656710 Ry
     estimated scf accuracy    <          4.8E-14 Ry

     The total energy is the sum of the following terms:

     one-electron contribution =     -88.39866555 Ry
     hartree contribution      =      44.54236624 Ry
     xc contribution           =     -14.26692692 Ry
     ewald contribution        =     -36.98324889 Ry
     smearing contrib. (-TS)   =      -0.00009198 Ry

     convergence has been achieved in  20 iterations

     Forces acting on atoms (cartesian axes, Ry/au):

     atom    1 type  1   force =     0.00000000    0.00000000    0.00000000

     Total force =     0.000000     Total SCF correction =     0.000000


     Computing stress (Cartesian axis) and pressure

          total   stress  (Ry/bohr**3)                   (kbar)     P=   -3.64
  -0.00002476   0.00000000  -0.00000000         -3.64      0.00     -0.00
   0.00000000  -0.00002476   0.00000000          0.00     -3.64      0.00
  -0.00000000   0.00000000  -0.00002476         -0.00      0.00     -3.64


     number of scf cycles    =   4
     number of bfgs steps    =   3

     enthalpy old            =     -95.1065320677 Ry
     enthalpy new            =     -95.1065671037 Ry

     CASE: enthalpy_new < enthalpy_old

     new trust radius        =       0.0083463494 bohr
     new conv_thr            =            1.0E-12 Ry

     new unit-cell volume =    251.19910 a.u.^3 (    37.22387 Ang^3 )
     density =      1.02557 g/cm^3

CELL_PARAMETERS (alat=  8.00000000)
   0.496854670   0.496854670   0.496854670
  -0.496854670   0.496854670   0.496854670
  -0.496854670  -0.496854670   0.496854670

ATOMIC_POSITIONS (crystal)
Na       0.000000000   0.000000000   0.000000000



     Writing output data file na.bcc.save
     NEW-OLD atomic charge density approx. for the potential
     extrapolated charge    8.92886, renormalised to    9.00000

     total cpu time spent up to now is       46.8 secs

     per-process dynamical memory:    13.6 Mb

     Self-consistent Calculation

     iteration #  1     ecut=    40.00 Ry     beta=0.70
     Davidson diagonalization with overlap
     ethr =  1.00E-06,  avg # of iterations =  3.1

     total cpu time spent up to now is       47.8 secs

     total energy              =     -95.10334987 Ry
     Harris-Foulkes estimate   =     -95.66233823 Ry
     estimated scf accuracy    <       0.00182470 Ry

     iteration #  2     ecut=    40.00 Ry     beta=0.70
     Davidson diagonalization with overlap
     ethr =  2.03E-05,  avg # of iterations =  3.0

     total cpu time spent up to now is       48.7 secs

     total energy              =     -95.10666369 Ry
     Harris-Foulkes estimate   =     -95.10800382 Ry
     estimated scf accuracy    <       0.00305073 Ry

     iteration #  3     ecut=    40.00 Ry     beta=0.70
     Davidson diagonalization with overlap
     ethr =  2.03E-05,  avg # of iterations =  2.0

     total cpu time spent up to now is       49.4 secs

     total energy              =     -95.10665738 Ry
     Harris-Foulkes estimate   =     -95.10686926 Ry
     estimated scf accuracy    <       0.00057826 Ry

     iteration #  4     ecut=    40.00 Ry     beta=0.70
     Davidson diagonalization with overlap
     ethr =  6.43E-06,  avg # of iterations =  1.0

     total cpu time spent up to now is       50.0 secs

     total energy              =     -95.10661088 Ry
     Harris-Foulkes estimate   =     -95.10668638 Ry
     estimated scf accuracy    <       0.00016685 Ry

     iteration #  5     ecut=    40.00 Ry     beta=0.70
     Davidson diagonalization with overlap
     ethr =  1.85E-06,  avg # of iterations =  1.1

     total cpu time spent up to now is       50.6 secs

     total energy              =     -95.10662007 Ry
     Harris-Foulkes estimate   =     -95.10662413 Ry
     estimated scf accuracy    <       0.00002820 Ry

     iteration #  6     ecut=    40.00 Ry     beta=0.70
     Davidson diagonalization with overlap
     ethr =  3.13E-07,  avg # of iterations =  1.0

     total cpu time spent up to now is       51.2 secs

     total energy              =     -95.10661286 Ry
     Harris-Foulkes estimate   =     -95.10662081 Ry
     estimated scf accuracy    <       0.00002121 Ry

     iteration #  7     ecut=    40.00 Ry     beta=0.70
     Davidson diagonalization with overlap
     ethr =  2.36E-07,  avg # of iterations =  1.0

     total cpu time spent up to now is       51.9 secs

     total energy              =     -95.10661394 Ry
     Harris-Foulkes estimate   =     -95.10661407 Ry
     estimated scf accuracy    <       0.00000574 Ry

     iteration #  8     ecut=    40.00 Ry     beta=0.70
     Davidson diagonalization with overlap
     ethr =  6.38E-08,  avg # of iterations =  1.0

     total cpu time spent up to now is       52.4 secs

     total energy              =     -95.10661305 Ry
     Harris-Foulkes estimate   =     -95.10661398 Ry
     estimated scf accuracy    <       0.00000541 Ry

     iteration #  9     ecut=    40.00 Ry     beta=0.70
     Davidson diagonalization with overlap
     ethr =  6.01E-08,  avg # of iterations =  1.0

     total cpu time spent up to now is       53.1 secs

     total energy              =     -95.10661053 Ry
     Harris-Foulkes estimate   =     -95.10661311 Ry
     estimated scf accuracy    <       0.00000357 Ry

     iteration # 10     ecut=    40.00 Ry     beta=0.70
     Davidson diagonalization with overlap
     ethr =  3.96E-08,  avg # of iterations =  2.0

     total cpu time spent up to now is       53.8 secs

     total energy              =     -95.10661267 Ry
     Harris-Foulkes estimate   =     -95.10661197 Ry
     estimated scf accuracy    <       0.00000100 Ry

     iteration # 11     ecut=    40.00 Ry     beta=0.70
     Davidson diagonalization with overlap
     ethr =  1.11E-08,  avg # of iterations =  1.0

     total cpu time spent up to now is       54.4 secs

     total energy              =     -95.10661125 Ry
     Harris-Foulkes estimate   =     -95.10661276 Ry
     estimated scf accuracy    <       0.00000305 Ry

     iteration # 12     ecut=    40.00 Ry     beta=0.70
     Davidson diagonalization with overlap
     ethr =  1.11E-08,  avg # of iterations =  2.0

     total cpu time spent up to now is       55.1 secs

     total energy              =     -95.10661161 Ry
     Harris-Foulkes estimate   =     -95.10661162 Ry
     estimated scf accuracy    <       0.00000003 Ry

     iteration # 13     ecut=    40.00 Ry     beta=0.70
     Davidson diagonalization with overlap
     ethr =  3.18E-10,  avg # of iterations =  2.0

     total cpu time spent up to now is       55.9 secs

     total energy              =     -95.10661161 Ry
     Harris-Foulkes estimate   =     -95.10661161 Ry
     estimated scf accuracy    <       0.00000003 Ry

     iteration # 14     ecut=    40.00 Ry     beta=0.70
     Davidson diagonalization with overlap
     ethr =  3.18E-10,  avg # of iterations =  1.0

     total cpu time spent up to now is       56.5 secs

     total energy              =     -95.10661161 Ry
     Harris-Foulkes estimate   =     -95.10661161 Ry
     estimated scf accuracy    <          6.6E-09 Ry

     iteration # 15     ecut=    40.00 Ry     beta=0.70
     Davidson diagonalization with overlap
     ethr =  7.37E-11,  avg # of iterations =  2.0

     total cpu time spent up to now is       57.2 secs

     total energy              =     -95.10661161 Ry
     Harris-Foulkes estimate   =     -95.10661161 Ry
     estimated scf accuracy    <          9.3E-09 Ry

     iteration # 16     ecut=    40.00 Ry     beta=0.70
     Davidson diagonalization with overlap
     ethr =  7.37E-11,  avg # of iterations =  1.0

     total cpu time spent up to now is       57.8 secs

     total energy              =     -95.10661160 Ry
     Harris-Foulkes estimate   =     -95.10661161 Ry
     estimated scf accuracy    <       0.00000001 Ry

     iteration # 17     ecut=    40.00 Ry     beta=0.70
     Davidson diagonalization with overlap
     ethr =  7.37E-11,  avg # of iterations =  2.0

     total cpu time spent up to now is       58.5 secs

     total energy              =     -95.10661161 Ry
     Harris-Foulkes estimate   =     -95.10661161 Ry
     estimated scf accuracy    <          8.6E-10 Ry

     iteration # 18     ecut=    40.00 Ry     beta=0.70
     Davidson diagonalization with overlap
     ethr =  9.56E-12,  avg # of iterations =  2.0

     total cpu time spent up to now is       59.3 secs

     total energy              =     -95.10661161 Ry
     Harris-Foulkes estimate   =     -95.10661161 Ry
     estimated scf accuracy    <          7.2E-12 Ry

     iteration # 19     ecut=    40.00 Ry     beta=0.70
     Davidson diagonalization with overlap
     ethr =  1.00E-13,  avg # of iterations =  1.5

     total cpu time spent up to now is       60.0 secs

     total energy              =     -95.10661161 Ry
     Harris-Foulkes estimate   =     -95.10661161 Ry
     estimated scf accuracy    <          2.6E-12 Ry

     iteration # 20     ecut=    40.00 Ry     beta=0.70
     Davidson diagonalization with overlap
     ethr =  1.00E-13,  avg # of iterations =  1.0

     total cpu time spent up to now is       60.6 secs

     End of self-consistent calculation

     Number of k-points >= 100: set verbosity='high' to print the bands.

     the Fermi energy is     1.5895 ev

!    total energy              =     -95.10661161 Ry
     Harris-Foulkes estimate   =     -95.10661161 Ry
     estimated scf accuracy    <          8.5E-13 Ry

     The total energy is the sum of the following terms:

     one-electron contribution =     -88.22788309 Ry
     hartree contribution      =      44.46981190 Ry
     xc contribution           =     -14.26794853 Ry
     ewald contribution        =     -37.08049950 Ry
     smearing contrib. (-TS)   =      -0.00009238 Ry

     convergence has been achieved in  20 iterations

     Forces acting on atoms (cartesian axes, Ry/au):

     atom    1 type  1   force =     0.00000000    0.00000000    0.00000000

     Total force =     0.000000     Total SCF correction =     0.000000


     Computing stress (Cartesian axis) and pressure

          total   stress  (Ry/bohr**3)                   (kbar)     P=   -2.93
  -0.00001995  -0.00000000   0.00000000         -2.93     -0.00      0.00
   0.00000000  -0.00001995  -0.00000000          0.00     -2.93     -0.00
  -0.00000000   0.00000000  -0.00001995         -0.00      0.00     -2.93


     number of scf cycles    =   5
     number of bfgs steps    =   4

     enthalpy old            =     -95.1065671037 Ry
     enthalpy new            =     -95.1066116060 Ry

     CASE: enthalpy_new < enthalpy_old

     new trust radius        =       0.0125030959 bohr
     new conv_thr            =            1.0E-12 Ry

     new unit-cell volume =    248.23834 a.u.^3 (    36.78513 Ang^3 )
     density =      1.03781 g/cm^3

CELL_PARAMETERS (alat=  8.00000000)
   0.494894887   0.494894887   0.494894887
  -0.494894887   0.494894887   0.494894887
  -0.494894887  -0.494894887   0.494894887

ATOMIC_POSITIONS (crystal)
Na       0.000000000   0.000000000   0.000000000



     Writing output data file na.bcc.save
     NEW-OLD atomic charge density approx. for the potential
     extrapolated charge    8.89273, renormalised to    9.00000

     total cpu time spent up to now is       62.3 secs

     per-process dynamical memory:    13.6 Mb

     Self-consistent Calculation

     iteration #  1     ecut=    40.00 Ry     beta=0.70
     Davidson diagonalization with overlap
     ethr =  1.00E-06,  avg # of iterations =  3.4

     total cpu time spent up to now is       63.5 secs

     total energy              =     -95.09934760 Ry
     Harris-Foulkes estimate   =     -95.94144246 Ry
     estimated scf accuracy    <       0.00409539 Ry

     iteration #  2     ecut=    40.00 Ry     beta=0.70
     Davidson diagonalization with overlap
     ethr =  4.55E-05,  avg # of iterations =  2.9

     total cpu time spent up to now is       64.4 secs

     total energy              =     -95.10676675 Ry
     Harris-Foulkes estimate   =     -95.10977270 Ry
     estimated scf accuracy    <       0.00684107 Ry

     iteration #  3     ecut=    40.00 Ry     beta=0.70
     Davidson diagonalization with overlap
     ethr =  4.55E-05,  avg # of iterations =  2.0

     total cpu time spent up to now is       65.1 secs

     total energy              =     -95.10674722 Ry
     Harris-Foulkes estimate   =     -95.10723220 Ry
     estimated scf accuracy    <       0.00128346 Ry

     iteration #  4     ecut=    40.00 Ry     beta=0.70
     Davidson diagonalization with overlap
     ethr =  1.43E-05,  avg # of iterations =  1.0

     total cpu time spent up to now is       65.7 secs

     total energy              =     -95.10664971 Ry
     Harris-Foulkes estimate   =     -95.10681509 Ry
     estimated scf accuracy    <       0.00034871 Ry

     iteration #  5     ecut=    40.00 Ry     beta=0.70
     Davidson diagonalization with overlap
     ethr =  3.87E-06,  avg # of iterations =  1.6

     total cpu time spent up to now is       66.4 secs

     total energy              =     -95.10667939 Ry
     Harris-Foulkes estimate   =     -95.10668149 Ry
     estimated scf accuracy    <       0.00004884 Ry

     iteration #  6     ecut=    40.00 Ry     beta=0.70
     Davidson diagonalization with overlap
     ethr =  5.43E-07,  avg # of iterations =  1.0

     total cpu time spent up to now is       67.1 secs

     total energy              =     -95.10665981 Ry
     Harris-Foulkes estimate   =     -95.10668046 Ry
     estimated scf accuracy    <       0.00004759 Ry

     iteration #  7     ecut=    40.00 Ry     beta=0.70
     Davidson diagonalization with overlap
     ethr =  5.29E-07,  avg # of iterations =  1.0

     total cpu time spent up to now is       67.7 secs

     total energy              =     -95.10666465 Ry
     Harris-Foulkes estimate   =     -95.10666355 Ry
     estimated scf accuracy    <       0.00000889 Ry

     iteration #  8     ecut=    40.00 Ry     beta=0.70
     Davidson diagonalization with overlap
     ethr =  9.87E-08,  avg # of iterations =  1.0

     total cpu time spent up to now is       68.3 secs

     total energy              =     -95.10665749 Ry
     Harris-Foulkes estimate   =     -95.10666477 Ry
     estimated scf accuracy    <       0.00001212 Ry

     iteration #  9     ecut=    40.00 Ry     beta=0.70
     Davidson diagonalization with overlap
     ethr =  9.87E-08,  avg # of iterations =  2.0

     total cpu time spent up to now is       69.0 secs

     total energy              =     -95.10666067 Ry
     Harris-Foulkes estimate   =     -95.10665990 Ry
     estimated scf accuracy    <       0.00000011 Ry

     iteration # 10     ecut=    40.00 Ry     beta=0.70
     Davidson diagonalization with overlap
     ethr =  1.21E-09,  avg # of iterations =  3.0

     total cpu time spent up to now is       69.9 secs

     total energy              =     -95.10666021 Ry
     Harris-Foulkes estimate   =     -95.10666101 Ry
     estimated scf accuracy    <       0.00000335 Ry

     iteration # 11     ecut=    40.00 Ry     beta=0.70
     Davidson diagonalization with overlap
     ethr =  1.21E-09,  avg # of iterations =  2.0

     total cpu time spent up to now is       70.6 secs

     total energy              =     -95.10665988 Ry
     Harris-Foulkes estimate   =     -95.10666026 Ry
     estimated scf accuracy    <       0.00000112 Ry

     iteration # 12     ecut=    40.00 Ry     beta=0.70
     Davidson diagonalization with overlap
     ethr =  1.21E-09,  avg # of iterations =  2.0

     total cpu time spent up to now is       71.3 secs

     total energy              =     -95.10665984 Ry
     Harris-Foulkes estimate   =     -95.10665993 Ry
     estimated scf accuracy    <       0.00000018 Ry

     iteration # 13     ecut=    40.00 Ry     beta=0.70
     Davidson diagonalization with overlap
     ethr =  1.21E-09,  avg # of iterations =  2.0

     total cpu time spent up to now is       72.0 secs

     total energy              =     -95.10665986 Ry
     Harris-Foulkes estimate   =     -95.10665986 Ry
     estimated scf accuracy    <          9.4E-10 Ry

     iteration # 14     ecut=    40.00 Ry     beta=0.70
     Davidson diagonalization with overlap
     ethr =  1.05E-11,  avg # of iterations =  1.0

     total cpu time spent up to now is       72.8 secs

     total energy              =     -95.10665986 Ry
     Harris-Foulkes estimate   =     -95.10665986 Ry
     estimated scf accuracy    <          2.5E-10 Ry

     iteration # 15     ecut=    40.00 Ry     beta=0.70
     Davidson diagonalization with overlap
     ethr =  2.76E-12,  avg # of iterations =  1.0

     total cpu time spent up to now is       73.4 secs

     total energy              =     -95.10665986 Ry
     Harris-Foulkes estimate   =     -95.10665986 Ry
     estimated scf accuracy    <          2.4E-10 Ry

     iteration # 16     ecut=    40.00 Ry     beta=0.70
     Davidson diagonalization with overlap
     ethr =  2.66E-12,  avg # of iterations =  1.0

     total cpu time spent up to now is       74.0 secs

     total energy              =     -95.10665986 Ry
     Harris-Foulkes estimate   =     -95.10665986 Ry
     estimated scf accuracy    <          1.2E-10 Ry

     iteration # 17     ecut=    40.00 Ry     beta=0.70
     Davidson diagonalization with overlap
     ethr =  1.36E-12,  avg # of iterations =  1.0

     total cpu time spent up to now is       74.6 secs

     End of self-consistent calculation

     Number of k-points >= 100: set verbosity='high' to print the bands.

     the Fermi energy is     1.6389 ev

!    total energy              =     -95.10665986 Ry
     Harris-Foulkes estimate   =     -95.10665986 Ry
     estimated scf accuracy    <          1.7E-14 Ry

     The total energy is the sum of the following terms:

     one-electron contribution =     -87.97009261 Ry
     hartree contribution      =      44.36035795 Ry
     xc contribution           =     -14.26949401 Ry
     ewald contribution        =     -37.22733820 Ry
     smearing contrib. (-TS)   =      -0.00009299 Ry

     convergence has been achieved in  17 iterations

     Forces acting on atoms (cartesian axes, Ry/au):

     atom    1 type  1   force =     0.00000000    0.00000000    0.00000000

     Total force =     0.000000     Total SCF correction =     0.000000


     Computing stress (Cartesian axis) and pressure

          total   stress  (Ry/bohr**3)                   (kbar)     P=   -1.85
  -0.00001255   0.00000000  -0.00000000         -1.85      0.00     -0.00
   0.00000000  -0.00001255   0.00000000          0.00     -1.85      0.00
  -0.00000000   0.00000000  -0.00001255         -0.00      0.00     -1.85


     number of scf cycles    =   6
     number of bfgs steps    =   5

     enthalpy old            =     -95.1066116060 Ry
     enthalpy new            =     -95.1066598643 Ry

     CASE: enthalpy_new < enthalpy_old

     new trust radius        =       0.0187176197 bohr
     new conv_thr            =            1.0E-12 Ry

     new unit-cell volume =    243.84096 a.u.^3 (    36.13350 Ang^3 )
     density =      1.05652 g/cm^3

CELL_PARAMETERS (alat=  8.00000000)
   0.491955213   0.491955213   0.491955213
  -0.491955213   0.491955213   0.491955213
  -0.491955213  -0.491955213   0.491955213

ATOMIC_POSITIONS (crystal)
Na       0.000000000   0.000000000   0.000000000



     Writing output data file na.bcc.save
     NEW-OLD atomic charge density approx. for the potential
     extrapolated charge    8.83781, renormalised to    9.00000

     total cpu time spent up to now is       76.4 secs

     per-process dynamical memory:    13.6 Mb

     Self-consistent Calculation

     iteration #  1     ecut=    40.00 Ry     beta=0.70
     Davidson diagonalization with overlap
     ethr =  1.00E-06,  avg # of iterations =  3.9

     total cpu time spent up to now is       77.6 secs

     total energy              =     -95.09032234 Ry
     Harris-Foulkes estimate   =     -96.36146721 Ry
     estimated scf accuracy    <       0.00918422 Ry

     iteration #  2     ecut=    40.00 Ry     beta=0.70
     Davidson diagonalization with overlap
     ethr =  1.02E-04,  avg # of iterations =  2.9

     total cpu time spent up to now is       78.5 secs

     total energy              =     -95.10689492 Ry
     Harris-Foulkes estimate   =     -95.11362765 Ry
     estimated scf accuracy    <       0.01531611 Ry

     iteration #  3     ecut=    40.00 Ry     beta=0.70
     Davidson diagonalization with overlap
     ethr =  1.02E-04,  avg # of iterations =  2.0

     total cpu time spent up to now is       79.2 secs

     total energy              =     -95.10683645 Ry
     Harris-Foulkes estimate   =     -95.10795105 Ry
     estimated scf accuracy    <       0.00283262 Ry

     iteration #  4     ecut=    40.00 Ry     beta=0.70
     Davidson diagonalization with overlap
     ethr =  3.15E-05,  avg # of iterations =  1.0

     total cpu time spent up to now is       79.8 secs

     total energy              =     -95.10668956 Ry
     Harris-Foulkes estimate   =     -95.10699941 Ry
     estimated scf accuracy    <       0.00070271 Ry

     iteration #  5     ecut=    40.00 Ry     beta=0.70
     Davidson diagonalization with overlap
     ethr =  7.81E-06,  avg # of iterations =  1.2

     total cpu time spent up to now is       80.5 secs

     total energy              =     -95.10673156 Ry
     Harris-Foulkes estimate   =     -95.10674585 Ry
     estimated scf accuracy    <       0.00012563 Ry

     iteration #  6     ecut=    40.00 Ry     beta=0.70
     Davidson diagonalization with overlap
     ethr =  1.40E-06,  avg # of iterations =  1.1

     total cpu time spent up to now is       81.1 secs

     total energy              =     -95.10671197 Ry
     Harris-Foulkes estimate   =     -95.10673418 Ry
     estimated scf accuracy    <       0.00010331 Ry

     iteration #  7     ecut=    40.00 Ry     beta=0.70
     Davidson diagonalization with overlap
     ethr =  1.15E-06,  avg # of iterations =  1.0

     total cpu time spent up to now is       81.7 secs

     total energy              =     -95.10671847 Ry
     Harris-Foulkes estimate   =     -95.10671404 Ry
     estimated scf accuracy    <       0.00005523 Ry

     iteration #  8     ecut=    40.00 Ry     beta=0.70
     Davidson diagonalization with overlap
     ethr =  6.14E-07,  avg # of iterations =  1.0

     total cpu time spent up to now is       82.3 secs

     total energy              =     -95.10667346 Ry
     Harris-Foulkes estimate   =     -95.10671865 Ry
     estimated scf accuracy    <       0.00006855 Ry

     iteration #  9     ecut=    40.00 Ry     beta=0.70
     Davidson diagonalization with overlap
     ethr =  6.14E-07,  avg # of iterations =  2.0

     total cpu time spent up to now is       83.0 secs

     total energy              =     -95.10669246 Ry
     Harris-Foulkes estimate   =     -95.10669019 Ry
     estimated scf accuracy    <       0.00000266 Ry

     iteration # 10     ecut=    40.00 Ry     beta=0.70
     Davidson diagonalization with overlap
     ethr =  2.96E-08,  avg # of iterations =  2.0

     total cpu time spent up to now is       83.8 secs

     total energy              =     -95.10668792 Ry
     Harris-Foulkes estimate   =     -95.10669286 Ry
     estimated scf accuracy    <       0.00001047 Ry

     iteration # 11     ecut=    40.00 Ry     beta=0.70
     Davidson diagonalization with overlap
     ethr =  2.96E-08,  avg # of iterations =  2.0

     total cpu time spent up to now is       84.5 secs

     total energy              =     -95.10668943 Ry
     Harris-Foulkes estimate   =     -95.10668948 Ry
     estimated scf accuracy    <       0.00000023 Ry

     iteration # 12     ecut=    40.00 Ry     beta=0.70
     Davidson diagonalization with overlap
     ethr =  2.57E-09,  avg # of iterations =  2.0

     total cpu time spent up to now is       85.2 secs

     total energy              =     -95.10668929 Ry
     Harris-Foulkes estimate   =     -95.10668970 Ry
     estimated scf accuracy    <       0.00000086 Ry

     iteration # 13     ecut=    40.00 Ry     beta=0.70
     Davidson diagonalization with overlap
     ethr =  2.57E-09,  avg # of iterations =  2.0

     total cpu time spent up to now is       86.1 secs

     total energy              =     -95.10668939 Ry
     Harris-Foulkes estimate   =     -95.10668939 Ry
     estimated scf accuracy    <          3.7E-09 Ry

     iteration # 14     ecut=    40.00 Ry     beta=0.70
     Davidson diagonalization with overlap
     ethr =  4.14E-11,  avg # of iterations =  2.0

     total cpu time spent up to now is       86.9 secs

     total energy              =     -95.10668939 Ry
     Harris-Foulkes estimate   =     -95.10668939 Ry
     estimated scf accuracy    <          1.5E-10 Ry

     iteration # 15     ecut=    40.00 Ry     beta=0.70
     Davidson diagonalization with overlap
     ethr =  1.68E-12,  avg # of iterations =  1.1

     total cpu time spent up to now is       87.5 secs

     total energy              =     -95.10668939 Ry
     Harris-Foulkes estimate   =     -95.10668939 Ry
     estimated scf accuracy    <          1.9E-10 Ry

     iteration # 16     ecut=    40.00 Ry     beta=0.70
     Davidson diagonalization with overlap
     ethr =  1.68E-12,  avg # of iterations =  2.0

     total cpu time spent up to now is       88.3 secs

     End of self-consistent calculation

     Number of k-points >= 100: set verbosity='high' to print the bands.

     the Fermi energy is     1.7145 ev

!    total energy              =     -95.10668939 Ry
     Harris-Foulkes estimate   =     -95.10668939 Ry
     estimated scf accuracy    <          1.9E-13 Ry

     The total energy is the sum of the following terms:

     one-electron contribution =     -87.57974885 Ry
     hartree contribution      =      44.19479055 Ry
     xc contribution           =     -14.27184736 Ry
     ewald contribution        =     -37.44978983 Ry
     smearing contrib. (-TS)   =      -0.00009391 Ry

     convergence has been achieved in  16 iterations

     Forces acting on atoms (cartesian axes, Ry/au):

     atom    1 type  1   force =     0.00000000    0.00000000    0.00000000

     Total force =     0.000000     Total SCF correction =     0.000000


     Computing stress (Cartesian axis) and pressure

          total   stress  (Ry/bohr**3)                   (kbar)     P=   -0.11
  -0.00000076   0.00000000  -0.00000000         -0.11      0.00     -0.00
   0.00000000  -0.00000076   0.00000000          0.00     -0.11      0.00
  -0.00000000   0.00000000  -0.00000076         -0.00      0.00     -0.11


     number of scf cycles    =   7
     number of bfgs steps    =   6

     enthalpy old            =     -95.1066598643 Ry
     enthalpy new            =     -95.1066893933 Ry

     CASE: enthalpy_new < enthalpy_old

     new trust radius        =       0.0011854404 bohr
     new conv_thr            =            1.0E-12 Ry

     new unit-cell volume =    243.56340 a.u.^3 (    36.09237 Ang^3 )
     density =      1.05772 g/cm^3

CELL_PARAMETERS (alat=  8.00000000)
   0.491768480   0.491768480   0.491768480
  -0.491768480   0.491768480   0.491768480
  -0.491768480  -0.491768480   0.491768480

ATOMIC_POSITIONS (crystal)
Na       0.000000000   0.000000000   0.000000000



     Writing output data file na.bcc.save
     NEW-OLD atomic charge density approx. for the potential
     extrapolated charge    8.98975, renormalised to    9.00000

     total cpu time spent up to now is       90.0 secs

     per-process dynamical memory:    13.6 Mb

     Self-consistent Calculation

     iteration #  1     ecut=    40.00 Ry     beta=0.70
     Davidson diagonalization with overlap
     ethr =  1.00E-06,  avg # of iterations =  2.0

     total cpu time spent up to now is       90.8 secs

     total energy              =     -95.10662046 Ry
     Harris-Foulkes estimate   =     -95.18619329 Ry
     estimated scf accuracy    <       0.00003857 Ry

     iteration #  2     ecut=    40.00 Ry     beta=0.70
     Davidson diagonalization with overlap
     ethr =  4.29E-07,  avg # of iterations =  3.0

     total cpu time spent up to now is       91.7 secs

     total energy              =     -95.10669075 Ry
     Harris-Foulkes estimate   =     -95.10671910 Ry
     estimated scf accuracy    <       0.00006457 Ry

     iteration #  3     ecut=    40.00 Ry     beta=0.70
     Davidson diagonalization with overlap
     ethr =  4.29E-07,  avg # of iterations =  1.7

     total cpu time spent up to now is       92.3 secs

     total energy              =     -95.10669129 Ry
     Harris-Foulkes estimate   =     -95.10669498 Ry
     estimated scf accuracy    <       0.00001261 Ry

     iteration #  4     ecut=    40.00 Ry     beta=0.70
     Davidson diagonalization with overlap
     ethr =  1.40E-07,  avg # of iterations =  1.0

     total cpu time spent up to now is       93.3 secs

     total energy              =     -95.10669011 Ry
     Harris-Foulkes estimate   =     -95.10669179 Ry
     estimated scf accuracy    <       0.00000497 Ry

     iteration #  5     ecut=    40.00 Ry     beta=0.70
     Davidson diagonalization with overlap
     ethr =  5.52E-08,  avg # of iterations =  1.0

     total cpu time spent up to now is       93.9 secs

     total energy              =     -95.10668966 Ry
     Harris-Foulkes estimate   =     -95.10669029 Ry
     estimated scf accuracy    <       0.00000174 Ry

     iteration #  6     ecut=    40.00 Ry     beta=0.70
     Davidson diagonalization with overlap
     ethr =  1.93E-08,  avg # of iterations =  1.0

     total cpu time spent up to now is       94.5 secs

     total energy              =     -95.10668943 Ry
     Harris-Foulkes estimate   =     -95.10668974 Ry
     estimated scf accuracy    <       0.00000054 Ry

     iteration #  7     ecut=    40.00 Ry     beta=0.70
     Davidson diagonalization with overlap
     ethr =  5.96E-09,  avg # of iterations =  2.0

     total cpu time spent up to now is       95.2 secs

     total energy              =     -95.10668948 Ry
     Harris-Foulkes estimate   =     -95.10668950 Ry
     estimated scf accuracy    <       0.00000003 Ry

     iteration #  8     ecut=    40.00 Ry     beta=0.70
     Davidson diagonalization with overlap
     ethr =  2.84E-10,  avg # of iterations =  2.0

     total cpu time spent up to now is       95.9 secs

     total energy              =     -95.10668949 Ry
     Harris-Foulkes estimate   =     -95.10668949 Ry
     estimated scf accuracy    <          1.1E-09 Ry

     iteration #  9     ecut=    40.00 Ry     beta=0.70
     Davidson diagonalization with overlap
     ethr =  1.17E-11,  avg # of iterations =  2.0

     total cpu time spent up to now is       97.0 secs

     total energy              =     -95.10668949 Ry
     Harris-Foulkes estimate   =     -95.10668949 Ry
     estimated scf accuracy    <          9.5E-11 Ry

     iteration # 10     ecut=    40.00 Ry     beta=0.70
     Davidson diagonalization with overlap
     ethr =  1.06E-12,  avg # of iterations =  1.0

     total cpu time spent up to now is       97.6 secs

     total energy              =     -95.10668949 Ry
     Harris-Foulkes estimate   =     -95.10668949 Ry
     estimated scf accuracy    <          1.3E-10 Ry

     iteration # 11     ecut=    40.00 Ry     beta=0.70
     Davidson diagonalization with overlap
     ethr =  1.06E-12,  avg # of iterations =  2.0

     total cpu time spent up to now is       98.3 secs

     total energy              =     -95.10668949 Ry
     Harris-Foulkes estimate   =     -95.10668949 Ry
     estimated scf accuracy    <          1.8E-12 Ry

     iteration # 12     ecut=    40.00 Ry     beta=0.70
     Davidson diagonalization with overlap
     ethr =  1.00E-13,  avg # of iterations =  1.0

     total cpu time spent up to now is       98.9 secs

     total energy              =     -95.10668949 Ry
     Harris-Foulkes estimate   =     -95.10668949 Ry
     estimated scf accuracy    <          1.8E-12 Ry

     iteration # 13     ecut=    40.00 Ry     beta=0.70
     Davidson diagonalization with overlap
     ethr =  1.00E-13,  avg # of iterations =  1.0

     total cpu time spent up to now is       99.5 secs

     End of self-consistent calculation

     Number of k-points >= 100: set verbosity='high' to print the bands.

     the Fermi energy is     1.7194 ev

!    total energy              =     -95.10668949 Ry
     Harris-Foulkes estimate   =     -95.10668949 Ry
     estimated scf accuracy    <          2.9E-13 Ry

     The total energy is the sum of the following terms:

     one-electron contribution =     -87.55480579 Ry
     hartree contribution      =      44.18421915 Ry
     xc contribution           =     -14.27199870 Ry
     ewald contribution        =     -37.46401019 Ry
     smearing contrib. (-TS)   =      -0.00009396 Ry

     convergence has been achieved in  13 iterations

     Forces acting on atoms (cartesian axes, Ry/au):

     atom    1 type  1   force =     0.00000000    0.00000000    0.00000000

     Total force =     0.000000     Total SCF correction =     0.000000


     Computing stress (Cartesian axis) and pressure

          total   stress  (Ry/bohr**3)                   (kbar)     P=    0.01
   0.00000005  -0.00000000   0.00000000          0.01     -0.00      0.00
  -0.00000000   0.00000005  -0.00000000         -0.00      0.01     -0.00
   0.00000000  -0.00000000   0.00000005          0.00     -0.00      0.01


     bfgs converged in   8 scf cycles and   7 bfgs steps
     (criteria: energy <  1.0E-04 Ry, force <  1.0E-03Ry/Bohr, cell <  5.0E-02kbar)

     End of BFGS Geometry Optimization

     Final enthalpy =     -95.1066894917 Ry
Begin final coordinates
     new unit-cell volume =    243.56340 a.u.^3 (    36.09237 Ang^3 )
     density =      1.05772 g/cm^3

CELL_PARAMETERS (alat=  8.00000000)
   0.491768480   0.491768480   0.491768480
  -0.491768480   0.491768480   0.491768480
  -0.491768480  -0.491768480   0.491768480

ATOMIC_POSITIONS (crystal)
Na       0.000000000   0.000000000   0.000000000
End final coordinates



     A final scf calculation at the relaxed structure.
     The G-vectors are recalculated for the final unit cell
     Results may differ from those at the preceding step.

     Parallelization info
     --------------------
     sticks:   dense  smooth     PW     G-vecs:    dense   smooth      PW
     Min          69      34     10                 1464      523      90
     Max          70      35     11                 1468      526      94
     Sum        1113     557    173                23455     8391    1481



     bravais-lattice index     =            3
     lattice parameter (alat)  =       8.0000  a.u.
     unit-cell volume          =     243.5634 (a.u.)^3
     number of atoms/cell      =            1
     number of atomic types    =            1
     number of electrons       =         9.00
     number of Kohn-Sham states=            9
     kinetic-energy cutoff     =      40.0000  Ry
     charge density cutoff     =     320.0000  Ry
     convergence threshold     =      1.0E-12
     mixing beta               =       0.7000
     number of iterations used =            8  plain     mixing
     Exchange-correlation      = SLA  PW   PBE  PBE ( 1  4  3  4 0 0)

     celldm(1)=   8.000000  celldm(2)=   0.000000  celldm(3)=   0.000000
     celldm(4)=   0.000000  celldm(5)=   0.000000  celldm(6)=   0.000000

     crystal axes: (cart. coord. in units of alat)
               a(1) = (   0.491768   0.491768   0.491768 )  
               a(2) = (  -0.491768   0.491768   0.491768 )  
               a(3) = (  -0.491768  -0.491768   0.491768 )  

     reciprocal axes: (cart. coord. in units 2 pi/alat)
               b(1) = (  1.016739 -0.000000  1.016739 )  
               b(2) = ( -1.016739  1.016739  0.000000 )  
               b(3) = (  0.000000 -1.016739  1.016739 )  


     PseudoPot. # 1 for Na read from file:
     /home/s1333534/quantum_espresso/qe-6.1/pseudo/Na_pbe_v1.uspp.F.UPF
     MD5 check sum: 76a99c7e9422403d3e93cbc85ab7bccb
     Pseudo is Ultrasoft, Zval =  9.0
     Generated by new atomic code, or converted to UPF format
     Using radial grid of  819 points,  5 beta functions with: 
                l(1) =   0
                l(2) =   0
                l(3) =   1
                l(4) =   1
                l(5) =   2
     Q(r) pseudized with  8 coefficients,  rinner =    1.250   1.250   1.250
                                                       1.250   1.250

     atomic species   valence    mass     pseudopotential
        Na             9.00    22.99000     Na( 1.00)

     48 Sym. Ops., with inversion, found



   Cartesian axes

     site n.     atom                  positions (alat units)
         1           Na  tau(   1) = (   0.0000000   0.0000000   0.0000000  )

     number of k points=   250  Marzari-Vanderbilt smearing, width (Ry)=  0.0200

     Number of k-points >= 100: set verbosity='high' to print them.

     Dense  grid:    23455 G-vectors     FFT dimensions: (  40,  40,  40)

     Smooth grid:     8391 G-vectors     FFT dimensions: (  27,  27,  27)

     Estimated max dynamical RAM per process >       1.61MB

     Estimated total allocated dynamical RAM >     102.79MB

     Initial potential from superposition of free atoms

     starting charge    8.99371, renormalised to    9.00000
     Starting wfc are    5 randomized atomic wfcs +    4 random wfc

     Writing output data file na.bcc.save

     total cpu time spent up to now is      101.5 secs

     per-process dynamical memory:    13.3 Mb

     Self-consistent Calculation

     iteration #  1     ecut=    40.00 Ry     beta=0.70
     Davidson diagonalization with overlap
     c_bands:  1 eigenvalues not converged
     c_bands:  1 eigenvalues not converged
     c_bands:  1 eigenvalues not converged
     ethr =  1.00E-06,  avg # of iterations = 12.0

     total cpu time spent up to now is      103.8 secs

     total energy              =     -95.10637141 Ry
     Harris-Foulkes estimate   =     -95.10660625 Ry
     estimated scf accuracy    <       0.00089744 Ry

     iteration #  2     ecut=    40.00 Ry     beta=0.70
     Davidson diagonalization with overlap
     ethr =  9.97E-06,  avg # of iterations =  2.0

     total cpu time spent up to now is      104.5 secs

     total energy              =     -95.10647598 Ry
     Harris-Foulkes estimate   =     -95.10649992 Ry
     estimated scf accuracy    <       0.00010130 Ry

     iteration #  3     ecut=    40.00 Ry     beta=0.70
     Davidson diagonalization with overlap
     ethr =  1.13E-06,  avg # of iterations =  2.0

     total cpu time spent up to now is      105.2 secs

     total energy              =     -95.10648712 Ry
     Harris-Foulkes estimate   =     -95.10648841 Ry
     estimated scf accuracy    <       0.00000643 Ry

     iteration #  4     ecut=    40.00 Ry     beta=0.70
     Davidson diagonalization with overlap
     ethr =  7.14E-08,  avg # of iterations =  1.0

     total cpu time spent up to now is      106.0 secs

     total energy              =     -95.10648771 Ry
     Harris-Foulkes estimate   =     -95.10648767 Ry
     estimated scf accuracy    <          9.9E-09 Ry

     iteration #  5     ecut=    40.00 Ry     beta=0.70
     Davidson diagonalization with overlap
     ethr =  1.11E-10,  avg # of iterations =  3.0

     total cpu time spent up to now is      106.9 secs

     total energy              =     -95.10648774 Ry
     Harris-Foulkes estimate   =     -95.10648774 Ry
     estimated scf accuracy    <          1.6E-09 Ry

     iteration #  6     ecut=    40.00 Ry     beta=0.70
     Davidson diagonalization with overlap
     ethr =  1.76E-11,  avg # of iterations =  1.0

     total cpu time spent up to now is      107.5 secs

     total energy              =     -95.10648774 Ry
     Harris-Foulkes estimate   =     -95.10648774 Ry
     estimated scf accuracy    <          1.3E-10 Ry

     iteration #  7     ecut=    40.00 Ry     beta=0.70
     Davidson diagonalization with overlap
     ethr =  1.42E-12,  avg # of iterations =  1.6

     total cpu time spent up to now is      108.2 secs

     total energy              =     -95.10648774 Ry
     Harris-Foulkes estimate   =     -95.10648774 Ry
     estimated scf accuracy    <          3.3E-12 Ry

     iteration #  8     ecut=    40.00 Ry     beta=0.70
     Davidson diagonalization with overlap
     ethr =  1.00E-13,  avg # of iterations =  1.0

     total cpu time spent up to now is      108.8 secs

     End of self-consistent calculation

     Number of k-points >= 100: set verbosity='high' to print the bands.

     the Fermi energy is     1.7192 ev

!    total energy              =     -95.10648774 Ry
     Harris-Foulkes estimate   =     -95.10648774 Ry
     estimated scf accuracy    <          2.0E-13 Ry

     The total energy is the sum of the following terms:

     one-electron contribution =     -87.55445885 Ry
     hartree contribution      =      44.18397968 Ry
     xc contribution           =     -14.27190442 Ry
     ewald contribution        =     -37.46401019 Ry
     smearing contrib. (-TS)   =      -0.00009396 Ry

     convergence has been achieved in   8 iterations

     Forces acting on atoms (cartesian axes, Ry/au):

     atom    1 type  1   force =     0.00000000    0.00000000    0.00000000

     Total force =     0.000000     Total SCF correction =     0.000000


     Computing stress (Cartesian axis) and pressure

          total   stress  (Ry/bohr**3)                   (kbar)     P=   -0.87
  -0.00000593  -0.00000000   0.00000000         -0.87     -0.00      0.00
  -0.00000000  -0.00000593  -0.00000000         -0.00     -0.87     -0.00
   0.00000000  -0.00000000  -0.00000593          0.00     -0.00     -0.87


     Writing output data file na.bcc.save

     init_run     :      0.98s CPU      1.05s WALL (       2 calls)
     electrons    :     86.79s CPU     93.96s WALL (       9 calls)
     update_pot   :      1.43s CPU      1.45s WALL (       7 calls)
     forces       :      0.93s CPU      0.96s WALL (       9 calls)
     stress       :      3.14s CPU      3.15s WALL (       9 calls)

     Called by init_run:
     wfcinit      :      0.36s CPU      0.39s WALL (       2 calls)
     potinit      :      0.11s CPU      0.11s WALL (       2 calls)

     Called by electrons:
     c_bands      :     69.33s CPU     75.47s WALL (     127 calls)
     sum_band     :     14.14s CPU     14.92s WALL (     127 calls)
     v_of_rho     :      1.48s CPU      1.49s WALL (     135 calls)
     newd         :      1.36s CPU      1.38s WALL (     135 calls)
     mix_rho      :      0.26s CPU      0.26s WALL (     127 calls)

     Called by c_bands:
     init_us_2    :      1.40s CPU      1.50s WALL (   17262 calls)
     cegterg      :     64.02s CPU     69.88s WALL (    8001 calls)

     Called by sum_band:
     sum_band:bec :      0.09s CPU      0.09s WALL (    8001 calls)
     addusdens    :      1.62s CPU      1.64s WALL (     127 calls)

     Called by *egterg:
     h_psi        :     48.07s CPU     51.45s WALL (   22645 calls)
     s_psi        :      0.51s CPU      0.55s WALL (   22645 calls)
     g_psi        :      0.13s CPU      0.15s WALL (   14518 calls)
     cdiaghg      :      7.90s CPU      8.94s WALL (   22015 calls)

     Called by h_psi:
     h_psi:pot    :     47.87s CPU     51.21s WALL (   22645 calls)
     h_psi:calbec :      1.83s CPU      1.95s WALL (   22645 calls)
     vloc_psi     :     45.28s CPU     48.46s WALL (   22645 calls)
     add_vuspsi   :      0.54s CPU      0.58s WALL (   22645 calls)

     General routines
     calbec       :      2.65s CPU      2.81s WALL (   33481 calls)
     fft          :      1.49s CPU      1.52s WALL (    2207 calls)
     ffts         :      0.23s CPU      0.24s WALL (     262 calls)
     fftw         :     49.48s CPU     52.88s WALL (  415075 calls)
     interpolate  :      0.37s CPU      0.40s WALL (     262 calls)
     davcio       :      0.00s CPU      0.02s WALL (     126 calls)

     Parallel routines
     fft_scatter  :     24.30s CPU     25.84s WALL (  417544 calls)

     PWSCF        :  1m42.30s CPU     1m50.06s WALL


   This run was terminated on:  23:33:31  29Jan2018            

=------------------------------------------------------------------------------=
   JOB DONE.
=------------------------------------------------------------------------------=
