
     Program PWSCF v.6.1 (svn rev. 13369) starts on 29Jan2018 at 23:35:34 

     This program is part of the open-source Quantum ESPRESSO suite
     for quantum simulation of materials; please cite
         "P. Giannozzi et al., J. Phys.:Condens. Matter 21 395502 (2009);
          URL http://www.quantum-espresso.org", 
     in publications or presentations arising from this work. More details at
     http://www.quantum-espresso.org/quote

     Parallel version (MPI), running on    64 processors
     K-points division:     npool     =       4
     R & G space division:  proc/nbgrp/npool/nimage =      16
     Waiting for input...
     Reading input from standard input

     Current dimensions of program PWSCF are:
     Max number of different atomic species (ntypx) = 10
     Max number of k-points (npk) =  80000
     Max angular momentum in pseudopotentials (lmaxx) =  3

     Subspace diagonalization in iterative solution of the eigenvalue problem:
     a serial algorithm will be used


     Parallelization info
     --------------------
     sticks:   dense  smooth     PW     G-vecs:    dense   smooth      PW
     Min          71      35     10                 1550      542      91
     Max          72      36     11                 1553      545      95
     Sum        1151     571    173                24835     8685    1505



     bravais-lattice index     =            3
     lattice parameter (alat)  =       8.0000  a.u.
     unit-cell volume          =     256.0000 (a.u.)^3
     number of atoms/cell      =            1
     number of atomic types    =            1
     number of electrons       =         9.00
     number of Kohn-Sham states=            9
     kinetic-energy cutoff     =      40.0000  Ry
     charge density cutoff     =     320.0000  Ry
     convergence threshold     =      1.0E-10
     mixing beta               =       0.7000
     number of iterations used =            8  plain     mixing
     Exchange-correlation      = SLA  PW   PBE  PBE ( 1  4  3  4 0 0)
     nstep                     =           50


     celldm(1)=   8.000000  celldm(2)=   0.000000  celldm(3)=   0.000000
     celldm(4)=   0.000000  celldm(5)=   0.000000  celldm(6)=   0.000000

     crystal axes: (cart. coord. in units of alat)
               a(1) = (   0.500000   0.500000   0.500000 )  
               a(2) = (  -0.500000   0.500000   0.500000 )  
               a(3) = (  -0.500000  -0.500000   0.500000 )  

     reciprocal axes: (cart. coord. in units 2 pi/alat)
               b(1) = (  1.000000  0.000000  1.000000 )  
               b(2) = ( -1.000000  1.000000  0.000000 )  
               b(3) = (  0.000000 -1.000000  1.000000 )  


     PseudoPot. # 1 for Na read from file:
     /home/s1333534/quantum_espresso/qe-6.1/pseudo/Na_pbe_v1.uspp.F.UPF
     MD5 check sum: 76a99c7e9422403d3e93cbc85ab7bccb
     Pseudo is Ultrasoft, Zval =  9.0
     Generated by new atomic code, or converted to UPF format
     Using radial grid of  819 points,  5 beta functions with: 
                l(1) =   0
                l(2) =   0
                l(3) =   1
                l(4) =   1
                l(5) =   2
     Q(r) pseudized with  8 coefficients,  rinner =    1.250   1.250   1.250
                                                       1.250   1.250

     atomic species   valence    mass     pseudopotential
        Na             9.00    22.99000     Na( 1.00)

     48 Sym. Ops., with inversion, found



   Cartesian axes

     site n.     atom                  positions (alat units)
         1           Na  tau(   1) = (   0.0000000   0.0000000   0.0000000  )

     number of k points=   250  Marzari-Vanderbilt smearing, width (Ry)=  0.0200

     Number of k-points >= 100: set verbosity='high' to print them.

     Dense  grid:    24835 G-vectors     FFT dimensions: (  40,  40,  40)

     Smooth grid:     8685 G-vectors     FFT dimensions: (  27,  27,  27)

     Estimated max dynamical RAM per process >       1.67MB

     Estimated total allocated dynamical RAM >     106.95MB

     Initial potential from superposition of free atoms

     starting charge    8.99371, renormalised to    9.00000
     Starting wfc are    5 randomized atomic wfcs +    4 random wfc

     total cpu time spent up to now is        0.8 secs

     per-process dynamical memory:     8.7 Mb

     Self-consistent Calculation

     iteration #  1     ecut=    40.00 Ry     beta=0.70
     Davidson diagonalization with overlap
     ethr =  1.00E-02,  avg # of iterations =  5.9

     Threshold (ethr) on eigenvalues was too large:
     Diagonalizing with lowered threshold

     Davidson diagonalization with overlap
     ethr =  9.84E-06,  avg # of iterations =  4.6

     total cpu time spent up to now is        3.3 secs

     total energy              =     -95.10637783 Ry
     Harris-Foulkes estimate   =     -95.10656724 Ry
     estimated scf accuracy    <       0.00088330 Ry

     iteration #  2     ecut=    40.00 Ry     beta=0.70
     Davidson diagonalization with overlap
     ethr =  9.81E-06,  avg # of iterations =  2.0

     total cpu time spent up to now is        4.0 secs

     total energy              =     -95.10647613 Ry
     Harris-Foulkes estimate   =     -95.10649622 Ry
     estimated scf accuracy    <       0.00009726 Ry

     iteration #  3     ecut=    40.00 Ry     beta=0.70
     Davidson diagonalization with overlap
     ethr =  1.08E-06,  avg # of iterations =  2.1

     total cpu time spent up to now is        4.7 secs

     total energy              =     -95.10648758 Ry
     Harris-Foulkes estimate   =     -95.10648857 Ry
     estimated scf accuracy    <       0.00000602 Ry

     iteration #  4     ecut=    40.00 Ry     beta=0.70
     Davidson diagonalization with overlap
     ethr =  6.69E-08,  avg # of iterations =  1.0

     total cpu time spent up to now is        5.3 secs

     total energy              =     -95.10648815 Ry
     Harris-Foulkes estimate   =     -95.10648811 Ry
     estimated scf accuracy    <       0.00000001 Ry

     iteration #  5     ecut=    40.00 Ry     beta=0.70
     Davidson diagonalization with overlap
     ethr =  1.40E-10,  avg # of iterations =  3.0

     total cpu time spent up to now is        6.3 secs

     total energy              =     -95.10648818 Ry
     Harris-Foulkes estimate   =     -95.10648818 Ry
     estimated scf accuracy    <          1.7E-09 Ry

     iteration #  6     ecut=    40.00 Ry     beta=0.70
     Davidson diagonalization with overlap
     ethr =  1.91E-11,  avg # of iterations =  1.5

     total cpu time spent up to now is        7.0 secs

     End of self-consistent calculation

     Number of k-points >= 100: set verbosity='high' to print the bands.

     the Fermi energy is     1.5119 ev

!    total energy              =     -95.10648818 Ry
     Harris-Foulkes estimate   =     -95.10648818 Ry
     estimated scf accuracy    <          5.4E-11 Ry

     The total energy is the sum of the following terms:

     one-electron contribution =     -88.63760988 Ry
     hartree contribution      =      44.64395914 Ry
     xc contribution           =     -14.26550735 Ry
     ewald contribution        =     -36.84723868 Ry
     smearing contrib. (-TS)   =      -0.00009142 Ry

     convergence has been achieved in   6 iterations

     Forces acting on atoms (cartesian axes, Ry/au):

     atom    1 type  1   force =     0.00000000    0.00000000    0.00000000

     Total force =     0.000000     Total SCF correction =     0.000000


     Computing stress (Cartesian axis) and pressure

          total   stress  (Ry/bohr**3)                   (kbar)     P=   -4.56
  -0.00003097   0.00000000   0.00000000         -4.56      0.00      0.00
   0.00000000  -0.00003097   0.00000000          0.00     -4.56      0.00
   0.00000000   0.00000000  -0.00003097          0.00      0.00     -4.56


     BFGS Geometry Optimization

     number of scf cycles    =   1
     number of bfgs steps    =   0

     enthalpy new            =     -95.0194755387 Ry

     new trust radius        =       0.0296690046 bohr
     new conv_thr            =            1.0E-10 Ry

     new unit-cell volume =    248.94525 a.u.^3 (    36.88988 Ang^3 )
     density =      1.03486 g/cm^3

CELL_PARAMETERS (alat=  8.00000000)
   0.495364218   0.495364218   0.495364218
  -0.495364218   0.495364218   0.495364218
  -0.495364218  -0.495364218   0.495364218

ATOMIC_POSITIONS (crystal)
Na       0.000000000   0.000000000   0.000000000



     Writing output data file na.bcc.save
     NEW-OLD atomic charge density approx. for the potential
     extrapolated charge    8.74513, renormalised to    9.00000

     total cpu time spent up to now is        8.7 secs

     per-process dynamical memory:    13.5 Mb

     Self-consistent Calculation

     iteration #  1     ecut=    40.00 Ry     beta=0.70
     Davidson diagonalization with overlap
     ethr =  1.00E-06,  avg # of iterations =  4.4

     total cpu time spent up to now is       10.1 secs

     total energy              =     -95.06742174 Ry
     Harris-Foulkes estimate   =     -97.08531859 Ry
     estimated scf accuracy    <       0.02207552 Ry

     iteration #  2     ecut=    40.00 Ry     beta=0.70
     Davidson diagonalization with overlap
     ethr =  2.45E-04,  avg # of iterations =  2.9

     total cpu time spent up to now is       11.1 secs

     total energy              =     -95.10700826 Ry
     Harris-Foulkes estimate   =     -95.12315507 Ry
     estimated scf accuracy    <       0.03668877 Ry

     iteration #  3     ecut=    40.00 Ry     beta=0.70
     Davidson diagonalization with overlap
     ethr =  2.45E-04,  avg # of iterations =  2.0

     total cpu time spent up to now is       11.9 secs

     total energy              =     -95.10675376 Ry
     Harris-Foulkes estimate   =     -95.10959912 Ry
     estimated scf accuracy    <       0.00660943 Ry

     iteration #  4     ecut=    40.00 Ry     beta=0.70
     Davidson diagonalization with overlap
     ethr =  7.34E-05,  avg # of iterations =  1.0

     total cpu time spent up to now is       12.5 secs

     total energy              =     -95.10743946 Ry
     Harris-Foulkes estimate   =     -95.10720923 Ry
     estimated scf accuracy    <       0.00129973 Ry

     iteration #  5     ecut=    40.00 Ry     beta=0.70
     Davidson diagonalization with overlap
     ethr =  1.44E-05,  avg # of iterations =  1.0

     total cpu time spent up to now is       13.1 secs

     total energy              =     -95.10688561 Ry
     Harris-Foulkes estimate   =     -95.10746664 Ry
     estimated scf accuracy    <       0.00183488 Ry

     iteration #  6     ecut=    40.00 Ry     beta=0.70
     Davidson diagonalization with overlap
     ethr =  1.44E-05,  avg # of iterations =  1.0

     total cpu time spent up to now is       13.7 secs

     total energy              =     -95.10670586 Ry
     Harris-Foulkes estimate   =     -95.10695113 Ry
     estimated scf accuracy    <       0.00067160 Ry

     iteration #  7     ecut=    40.00 Ry     beta=0.70
     Davidson diagonalization with overlap
     ethr =  7.46E-06,  avg # of iterations =  1.0

     total cpu time spent up to now is       14.3 secs

     total energy              =     -95.10660974 Ry
     Harris-Foulkes estimate   =     -95.10673824 Ry
     estimated scf accuracy    <       0.00019531 Ry

     iteration #  8     ecut=    40.00 Ry     beta=0.70
     Davidson diagonalization with overlap
     ethr =  2.17E-06,  avg # of iterations =  2.1

     total cpu time spent up to now is       15.1 secs

     total energy              =     -95.10665058 Ry
     Harris-Foulkes estimate   =     -95.10665046 Ry
     estimated scf accuracy    <       0.00000032 Ry

     iteration #  9     ecut=    40.00 Ry     beta=0.70
     Davidson diagonalization with overlap
     ethr =  3.50E-09,  avg # of iterations =  2.0

     total cpu time spent up to now is       15.8 secs

     total energy              =     -95.10665047 Ry
     Harris-Foulkes estimate   =     -95.10665062 Ry
     estimated scf accuracy    <       0.00000073 Ry

     iteration # 10     ecut=    40.00 Ry     beta=0.70
     Davidson diagonalization with overlap
     ethr =  3.50E-09,  avg # of iterations =  2.0

     total cpu time spent up to now is       16.6 secs

     total energy              =     -95.10665106 Ry
     Harris-Foulkes estimate   =     -95.10665054 Ry
     estimated scf accuracy    <       0.00000076 Ry

     iteration # 11     ecut=    40.00 Ry     beta=0.70
     Davidson diagonalization with overlap
     ethr =  3.50E-09,  avg # of iterations =  1.6

     total cpu time spent up to now is       17.3 secs

     total energy              =     -95.10665497 Ry
     Harris-Foulkes estimate   =     -95.10665107 Ry
     estimated scf accuracy    <       0.00000289 Ry

     iteration # 12     ecut=    40.00 Ry     beta=0.70
     Davidson diagonalization with overlap
     ethr =  3.50E-09,  avg # of iterations =  2.0

     total cpu time spent up to now is       18.0 secs

     total energy              =     -95.10664996 Ry
     Harris-Foulkes estimate   =     -95.10665511 Ry
     estimated scf accuracy    <       0.00001878 Ry

     iteration # 13     ecut=    40.00 Ry     beta=0.70
     Davidson diagonalization with overlap
     ethr =  3.50E-09,  avg # of iterations =  2.1

     total cpu time spent up to now is       18.8 secs

     total energy              =     -95.10665035 Ry
     Harris-Foulkes estimate   =     -95.10665037 Ry
     estimated scf accuracy    <       0.00000007 Ry

     iteration # 14     ecut=    40.00 Ry     beta=0.70
     Davidson diagonalization with overlap
     ethr =  8.29E-10,  avg # of iterations =  1.0

     total cpu time spent up to now is       19.4 secs

     End of self-consistent calculation

     Number of k-points >= 100: set verbosity='high' to print the bands.

     the Fermi energy is     1.6270 ev

!    total energy              =     -95.10665036 Ry
     Harris-Foulkes estimate   =     -95.10665036 Ry
     estimated scf accuracy    <          7.9E-11 Ry

     The total energy is the sum of the following terms:

     one-electron contribution =     -88.03201350 Ry
     hartree contribution      =      44.38664695 Ry
     xc contribution           =     -14.26912365 Ry
     ewald contribution        =     -37.19206731 Ry
     smearing contrib. (-TS)   =      -0.00009284 Ry

     convergence has been achieved in  14 iterations

     Forces acting on atoms (cartesian axes, Ry/au):

     atom    1 type  1   force =     0.00000000    0.00000000    0.00000000

     Total force =     0.000000     Total SCF correction =     0.000000


     Computing stress (Cartesian axis) and pressure

          total   stress  (Ry/bohr**3)                   (kbar)     P=   -2.10
  -0.00001428  -0.00000000   0.00000000         -2.10     -0.00      0.00
  -0.00000000  -0.00001428  -0.00000000         -0.00     -2.10     -0.00
   0.00000000  -0.00000000  -0.00001428          0.00     -0.00     -2.10


     number of scf cycles    =   2
     number of bfgs steps    =   1

     enthalpy old            =     -95.0194755387 Ry
     enthalpy new            =     -95.0220355700 Ry

     CASE: enthalpy_new < enthalpy_old


     WARNING: bfgs curvature condition failed, Theta= 0.853
     new trust radius        =       0.0442967179 bohr
     new conv_thr            =            1.0E-12 Ry

     new unit-cell volume =    238.60803 a.u.^3 (    35.35806 Ang^3 )
     density =      1.07969 g/cm^3

CELL_PARAMETERS (alat=  8.00000000)
   0.488410545   0.488410545   0.488410545
  -0.488410545   0.488410545   0.488410545
  -0.488410545  -0.488410545   0.488410545

ATOMIC_POSITIONS (crystal)
Na       0.000000000   0.000000000   0.000000000



     Writing output data file na.bcc.save
     NEW-OLD atomic charge density approx. for the potential
     extrapolated charge    8.61037, renormalised to    9.00000

     total cpu time spent up to now is       21.3 secs

     per-process dynamical memory:    13.5 Mb

     Self-consistent Calculation

     iteration #  1     ecut=    40.00 Ry     beta=0.70
     Davidson diagonalization with overlap
     ethr =  1.00E-06,  avg # of iterations =  4.8

     total cpu time spent up to now is       22.6 secs

     total energy              =     -95.01926097 Ry
     Harris-Foulkes estimate   =     -98.08793233 Ry
     estimated scf accuracy    <       0.04949009 Ry

     iteration #  2     ecut=    40.00 Ry     beta=0.70
     Davidson diagonalization with overlap
     ethr =  5.50E-04,  avg # of iterations =  2.8

     total cpu time spent up to now is       23.6 secs

     total energy              =     -95.10701031 Ry
     Harris-Foulkes estimate   =     -95.14303067 Ry
     estimated scf accuracy    <       0.08169030 Ry

     iteration #  3     ecut=    40.00 Ry     beta=0.70
     Davidson diagonalization with overlap
     ethr =  5.50E-04,  avg # of iterations =  2.0

     total cpu time spent up to now is       24.3 secs

     total energy              =     -95.10666957 Ry
     Harris-Foulkes estimate   =     -95.11296462 Ry
     estimated scf accuracy    <       0.01420056 Ry

     iteration #  4     ecut=    40.00 Ry     beta=0.70
     Davidson diagonalization with overlap
     ethr =  1.58E-04,  avg # of iterations =  1.0

     total cpu time spent up to now is       24.9 secs

     total energy              =     -95.10774397 Ry
     Harris-Foulkes estimate   =     -95.10772206 Ry
     estimated scf accuracy    <       0.00252307 Ry

     iteration #  5     ecut=    40.00 Ry     beta=0.70
     Davidson diagonalization with overlap
     ethr =  2.80E-05,  avg # of iterations =  1.0

     total cpu time spent up to now is       25.6 secs

     total energy              =     -95.10685837 Ry
     Harris-Foulkes estimate   =     -95.10778999 Ry
     estimated scf accuracy    <       0.00263234 Ry

     iteration #  6     ecut=    40.00 Ry     beta=0.70
     Davidson diagonalization with overlap
     ethr =  2.80E-05,  avg # of iterations =  1.0

     total cpu time spent up to now is       26.2 secs

     total energy              =     -95.10679935 Ry
     Harris-Foulkes estimate   =     -95.10699275 Ry
     estimated scf accuracy    <       0.00076786 Ry

     iteration #  7     ecut=    40.00 Ry     beta=0.70
     Davidson diagonalization with overlap
     ethr =  8.53E-06,  avg # of iterations =  1.0

     total cpu time spent up to now is       26.9 secs

     total energy              =     -95.10680998 Ry
     Harris-Foulkes estimate   =     -95.10681988 Ry
     estimated scf accuracy    <       0.00036058 Ry

     iteration #  8     ecut=    40.00 Ry     beta=0.70
     Davidson diagonalization with overlap
     ethr =  4.01E-06,  avg # of iterations =  1.1

     total cpu time spent up to now is       27.5 secs

     total energy              =     -95.10657955 Ry
     Harris-Foulkes estimate   =     -95.10681115 Ry
     estimated scf accuracy    <       0.00035098 Ry

     iteration #  9     ecut=    40.00 Ry     beta=0.70
     Davidson diagonalization with overlap
     ethr =  3.90E-06,  avg # of iterations =  2.0

     total cpu time spent up to now is       28.2 secs

     total energy              =     -95.10665395 Ry
     Harris-Foulkes estimate   =     -95.10665398 Ry
     estimated scf accuracy    <       0.00000004 Ry

     iteration # 10     ecut=    40.00 Ry     beta=0.70
     Davidson diagonalization with overlap
     ethr =  4.91E-10,  avg # of iterations =  3.1

     total cpu time spent up to now is       29.1 secs

     total energy              =     -95.10665402 Ry
     Harris-Foulkes estimate   =     -95.10665403 Ry
     estimated scf accuracy    <       0.00000003 Ry

     iteration # 11     ecut=    40.00 Ry     beta=0.70
     Davidson diagonalization with overlap
     ethr =  3.82E-10,  avg # of iterations =  1.0

     total cpu time spent up to now is       29.7 secs

     total energy              =     -95.10665401 Ry
     Harris-Foulkes estimate   =     -95.10665402 Ry
     estimated scf accuracy    <       0.00000002 Ry

     iteration # 12     ecut=    40.00 Ry     beta=0.70
     Davidson diagonalization with overlap
     ethr =  1.82E-10,  avg # of iterations =  2.0

     total cpu time spent up to now is       30.5 secs

     total energy              =     -95.10665402 Ry
     Harris-Foulkes estimate   =     -95.10665402 Ry
     estimated scf accuracy    <          2.2E-09 Ry

     iteration # 13     ecut=    40.00 Ry     beta=0.70
     Davidson diagonalization with overlap
     ethr =  2.48E-11,  avg # of iterations =  2.0

     total cpu time spent up to now is       31.2 secs

     total energy              =     -95.10665401 Ry
     Harris-Foulkes estimate   =     -95.10665402 Ry
     estimated scf accuracy    <       0.00000001 Ry

     iteration # 14     ecut=    40.00 Ry     beta=0.70
     Davidson diagonalization with overlap
     ethr =  2.48E-11,  avg # of iterations =  2.0

     total cpu time spent up to now is       32.0 secs

     total energy              =     -95.10665402 Ry
     Harris-Foulkes estimate   =     -95.10665402 Ry
     estimated scf accuracy    <          1.3E-09 Ry

     iteration # 15     ecut=    40.00 Ry     beta=0.70
     Davidson diagonalization with overlap
     ethr =  1.50E-11,  avg # of iterations =  1.0

     total cpu time spent up to now is       32.6 secs

     total energy              =     -95.10665402 Ry
     Harris-Foulkes estimate   =     -95.10665402 Ry
     estimated scf accuracy    <          6.1E-10 Ry

     iteration # 16     ecut=    40.00 Ry     beta=0.70
     Davidson diagonalization with overlap
     ethr =  6.80E-12,  avg # of iterations =  1.0

     total cpu time spent up to now is       33.3 secs

     total energy              =     -95.10665402 Ry
     Harris-Foulkes estimate   =     -95.10665402 Ry
     estimated scf accuracy    <          1.1E-09 Ry

     iteration # 17     ecut=    40.00 Ry     beta=0.70
     Davidson diagonalization with overlap
     ethr =  6.80E-12,  avg # of iterations =  2.0

     total cpu time spent up to now is       34.1 secs

     total energy              =     -95.10665402 Ry
     Harris-Foulkes estimate   =     -95.10665402 Ry
     estimated scf accuracy    <          5.8E-10 Ry

     iteration # 18     ecut=    40.00 Ry     beta=0.70
     Davidson diagonalization with overlap
     ethr =  6.40E-12,  avg # of iterations =  1.0

     total cpu time spent up to now is       34.7 secs

     total energy              =     -95.10665402 Ry
     Harris-Foulkes estimate   =     -95.10665402 Ry
     estimated scf accuracy    <          6.0E-10 Ry

     iteration # 19     ecut=    40.00 Ry     beta=0.70
     Davidson diagonalization with overlap
     ethr =  6.40E-12,  avg # of iterations =  1.0

     total cpu time spent up to now is       35.3 secs

     total energy              =     -95.10665402 Ry
     Harris-Foulkes estimate   =     -95.10665402 Ry
     estimated scf accuracy    <          4.0E-10 Ry

     iteration # 20     ecut=    40.00 Ry     beta=0.70
     Davidson diagonalization with overlap
     ethr =  4.50E-12,  avg # of iterations =  1.0

     total cpu time spent up to now is       35.9 secs

     total energy              =     -95.10665402 Ry
     Harris-Foulkes estimate   =     -95.10665402 Ry
     estimated scf accuracy    <          2.5E-10 Ry

     iteration # 21     ecut=    40.00 Ry     beta=0.70
     Davidson diagonalization with overlap
     ethr =  2.75E-12,  avg # of iterations =  2.0

     total cpu time spent up to now is       36.7 secs

     End of self-consistent calculation

     Number of k-points >= 100: set verbosity='high' to print the bands.

     the Fermi energy is     1.8084 ev

!    total energy              =     -95.10665402 Ry
     Harris-Foulkes estimate   =     -95.10665402 Ry
     estimated scf accuracy    <          4.8E-13 Ry

     The total energy is the sum of the following terms:

     one-electron contribution =     -87.10312762 Ry
     hartree contribution      =      43.99289244 Ry
     xc contribution           =     -14.27473995 Ry
     ewald contribution        =     -37.72158388 Ry
     smearing contrib. (-TS)   =      -0.00009501 Ry

     convergence has been achieved in  21 iterations

     Forces acting on atoms (cartesian axes, Ry/au):

     atom    1 type  1   force =     0.00000000    0.00000000    0.00000000

     Total force =     0.000000     Total SCF correction =     0.000000


     Computing stress (Cartesian axis) and pressure

          total   stress  (Ry/bohr**3)                   (kbar)     P=    2.14
   0.00001452  -0.00000000   0.00000000          2.14     -0.00      0.00
  -0.00000000   0.00001452  -0.00000000         -0.00      2.14     -0.00
  -0.00000000   0.00000000   0.00001452         -0.00      0.00      2.14


     number of scf cycles    =   3
     number of bfgs steps    =   2

     enthalpy old            =     -95.0220355700 Ry
     enthalpy new            =     -95.0255527824 Ry

     CASE: enthalpy_new < enthalpy_old

     new trust radius        =       0.0659770673 bohr
     new conv_thr            =            1.0E-12 Ry

     new unit-cell volume =    223.64502 a.u.^3 (    33.14077 Ang^3 )
     density =      1.15193 g/cm^3

CELL_PARAMETERS (alat=  8.00000000)
   0.477980035   0.477980035   0.477980035
  -0.477980035   0.477980035   0.477980035
  -0.477980035  -0.477980035   0.477980035

ATOMIC_POSITIONS (crystal)
Na       0.000000000   0.000000000   0.000000000



     Writing output data file na.bcc.save
     NEW-OLD atomic charge density approx. for the potential
     extrapolated charge    8.39827, renormalised to    9.00000

     total cpu time spent up to now is       38.5 secs

     per-process dynamical memory:    13.5 Mb

     Self-consistent Calculation

     iteration #  1     ecut=    40.00 Ry     beta=0.70
     Davidson diagonalization with overlap
     ethr =  1.00E-06,  avg # of iterations =  5.3

     total cpu time spent up to now is       39.9 secs

     total energy              =     -94.91193177 Ry
     Harris-Foulkes estimate   =     -99.60430927 Ry
     estimated scf accuracy    <       0.11131155 Ry

     iteration #  2     ecut=    40.00 Ry     beta=0.70
     Davidson diagonalization with overlap
     ethr =  1.24E-03,  avg # of iterations =  2.7

     total cpu time spent up to now is       41.1 secs

     total energy              =     -95.10532211 Ry
     Harris-Foulkes estimate   =     -95.18550232 Ry
     estimated scf accuracy    <       0.18107106 Ry

     iteration #  3     ecut=    40.00 Ry     beta=0.70
     Davidson diagonalization with overlap
     ethr =  1.24E-03,  avg # of iterations =  2.0

     total cpu time spent up to now is       41.9 secs

     total energy              =     -95.10661454 Ry
     Harris-Foulkes estimate   =     -95.11917460 Ry
     estimated scf accuracy    <       0.02972031 Ry

     iteration #  4     ecut=    40.00 Ry     beta=0.70
     Davidson diagonalization with overlap
     ethr =  3.30E-04,  avg # of iterations =  1.0

     total cpu time spent up to now is       42.5 secs

     total energy              =     -95.10742158 Ry
     Harris-Foulkes estimate   =     -95.10862338 Ry
     estimated scf accuracy    <       0.00599660 Ry

     iteration #  5     ecut=    40.00 Ry     beta=0.70
     Davidson diagonalization with overlap
     ethr =  6.66E-05,  avg # of iterations =  1.0

     total cpu time spent up to now is       43.1 secs

     total energy              =     -95.10679321 Ry
     Harris-Foulkes estimate   =     -95.10760525 Ry
     estimated scf accuracy    <       0.00335619 Ry

     iteration #  6     ecut=    40.00 Ry     beta=0.70
     Davidson diagonalization with overlap
     ethr =  3.73E-05,  avg # of iterations =  1.0

     total cpu time spent up to now is       43.7 secs

     total energy              =     -95.10555562 Ry
     Harris-Foulkes estimate   =     -95.10685017 Ry
     estimated scf accuracy    <       0.00173028 Ry

     iteration #  7     ecut=    40.00 Ry     beta=0.70
     Davidson diagonalization with overlap
     ethr =  1.92E-05,  avg # of iterations =  2.0

     total cpu time spent up to now is       44.7 secs

     total energy              =     -95.10613058 Ry
     Harris-Foulkes estimate   =     -95.10610788 Ry
     estimated scf accuracy    <       0.00008506 Ry

     iteration #  8     ecut=    40.00 Ry     beta=0.70
     Davidson diagonalization with overlap
     ethr =  9.45E-07,  avg # of iterations =  2.0

     total cpu time spent up to now is       45.5 secs

     total energy              =     -95.10604275 Ry
     Harris-Foulkes estimate   =     -95.10613219 Ry
     estimated scf accuracy    <       0.00013727 Ry

     iteration #  9     ecut=    40.00 Ry     beta=0.70
     Davidson diagonalization with overlap
     ethr =  9.45E-07,  avg # of iterations =  2.0

     total cpu time spent up to now is       46.3 secs

     total energy              =     -95.10606922 Ry
     Harris-Foulkes estimate   =     -95.10606936 Ry
     estimated scf accuracy    <       0.00000021 Ry

     iteration # 10     ecut=    40.00 Ry     beta=0.70
     Davidson diagonalization with overlap
     ethr =  2.38E-09,  avg # of iterations =  3.0

     total cpu time spent up to now is       47.2 secs

     total energy              =     -95.10606913 Ry
     Harris-Foulkes estimate   =     -95.10606957 Ry
     estimated scf accuracy    <       0.00000065 Ry

     iteration # 11     ecut=    40.00 Ry     beta=0.70
     Davidson diagonalization with overlap
     ethr =  2.38E-09,  avg # of iterations =  2.0

     total cpu time spent up to now is       47.9 secs

     total energy              =     -95.10606928 Ry
     Harris-Foulkes estimate   =     -95.10606928 Ry
     estimated scf accuracy    <          3.1E-09 Ry

     iteration # 12     ecut=    40.00 Ry     beta=0.70
     Davidson diagonalization with overlap
     ethr =  3.45E-11,  avg # of iterations =  1.0

     total cpu time spent up to now is       48.5 secs

     total energy              =     -95.10606928 Ry
     Harris-Foulkes estimate   =     -95.10606928 Ry
     estimated scf accuracy    <          1.4E-09 Ry

     iteration # 13     ecut=    40.00 Ry     beta=0.70
     Davidson diagonalization with overlap
     ethr =  1.54E-11,  avg # of iterations =  1.0

     total cpu time spent up to now is       49.2 secs

     total energy              =     -95.10606928 Ry
     Harris-Foulkes estimate   =     -95.10606928 Ry
     estimated scf accuracy    <          6.6E-10 Ry

     iteration # 14     ecut=    40.00 Ry     beta=0.70
     Davidson diagonalization with overlap
     ethr =  7.34E-12,  avg # of iterations =  1.0

     total cpu time spent up to now is       49.8 secs

     total energy              =     -95.10606928 Ry
     Harris-Foulkes estimate   =     -95.10606928 Ry
     estimated scf accuracy    <          1.5E-09 Ry

     iteration # 15     ecut=    40.00 Ry     beta=0.70
     Davidson diagonalization with overlap
     ethr =  7.34E-12,  avg # of iterations =  2.0

     total cpu time spent up to now is       50.5 secs

     total energy              =     -95.10606928 Ry
     Harris-Foulkes estimate   =     -95.10606928 Ry
     estimated scf accuracy    <          2.7E-12 Ry

     iteration # 16     ecut=    40.00 Ry     beta=0.70
     Davidson diagonalization with overlap
     ethr =  1.00E-13,  avg # of iterations =  1.0

     total cpu time spent up to now is       51.1 secs

     total energy              =     -95.10606928 Ry
     Harris-Foulkes estimate   =     -95.10606928 Ry
     estimated scf accuracy    <          2.2E-12 Ry

     iteration # 17     ecut=    40.00 Ry     beta=0.70
     Davidson diagonalization with overlap
     ethr =  1.00E-13,  avg # of iterations =  1.0

     total cpu time spent up to now is       51.8 secs

     End of self-consistent calculation

     Number of k-points >= 100: set verbosity='high' to print the bands.

     the Fermi energy is     2.1019 ev

!    total energy              =     -95.10606928 Ry
     Harris-Foulkes estimate   =     -95.10606928 Ry
     estimated scf accuracy    <          1.1E-14 Ry

     The total energy is the sum of the following terms:

     one-electron contribution =     -85.66158573 Ry
     hartree contribution      =      43.38395892 Ry
     xc contribution           =     -14.28359772 Ry
     ewald contribution        =     -38.54474658 Ry
     smearing contrib. (-TS)   =      -0.00009816 Ry

     convergence has been achieved in  17 iterations

     Forces acting on atoms (cartesian axes, Ry/au):

     atom    1 type  1   force =     0.00000000    0.00000000    0.00000000

     Total force =     0.000000     Total SCF correction =     0.000000


     Computing stress (Cartesian axis) and pressure

          total   stress  (Ry/bohr**3)                   (kbar)     P=    9.66
   0.00006566  -0.00000000   0.00000000          9.66     -0.00      0.00
  -0.00000000   0.00006566  -0.00000000         -0.00      9.66     -0.00
   0.00000000  -0.00000000   0.00006566          0.00     -0.00      9.66


     number of scf cycles    =   4
     number of bfgs steps    =   3

     enthalpy old            =     -95.0255527824 Ry
     enthalpy new            =     -95.0300538713 Ry

     CASE: enthalpy_new < enthalpy_old

     new trust radius        =       0.0979031418 bohr
     new conv_thr            =            1.0E-12 Ry

     new unit-cell volume =    202.39427 a.u.^3 (    29.99174 Ang^3 )
     density =      1.27288 g/cm^3

CELL_PARAMETERS (alat=  8.00000000)
   0.462334271   0.462334271   0.462334271
  -0.462334271   0.462334271   0.462334271
  -0.462334271  -0.462334271   0.462334271

ATOMIC_POSITIONS (crystal)
Na       0.000000000   0.000000000   0.000000000



     Writing output data file na.bcc.save
     NEW-OLD atomic charge density approx. for the potential
     extrapolated charge    8.05569, renormalised to    9.00000

     total cpu time spent up to now is       53.5 secs

     per-process dynamical memory:    13.5 Mb

     Self-consistent Calculation

     iteration #  1     ecut=    40.00 Ry     beta=0.70
     Davidson diagonalization with overlap
     ethr =  1.00E-06,  avg # of iterations =  6.1

     total cpu time spent up to now is       55.1 secs

     total energy              =     -94.67369091 Ry
     Harris-Foulkes estimate   =    -101.89770155 Ry
     estimated scf accuracy    <       0.25319835 Ry

     iteration #  2     ecut=    40.00 Ry     beta=0.70
     Davidson diagonalization with overlap
     ethr =  2.81E-03,  avg # of iterations =  2.6

     total cpu time spent up to now is       56.1 secs

     total energy              =     -95.09656446 Ry
     Harris-Foulkes estimate   =     -95.27454661 Ry
     estimated scf accuracy    <       0.39817499 Ry

     iteration #  3     ecut=    40.00 Ry     beta=0.70
     Davidson diagonalization with overlap
     ethr =  2.81E-03,  avg # of iterations =  2.0

     total cpu time spent up to now is       56.8 secs

     total energy              =     -95.10559936 Ry
     Harris-Foulkes estimate   =     -95.12943747 Ry
     estimated scf accuracy    <       0.05924099 Ry

     iteration #  4     ecut=    40.00 Ry     beta=0.70
     Davidson diagonalization with overlap
     ethr =  6.58E-04,  avg # of iterations =  1.0

     total cpu time spent up to now is       57.5 secs

     total energy              =     -95.10481959 Ry
     Harris-Foulkes estimate   =     -95.10935188 Ry
     estimated scf accuracy    <       0.01321488 Ry

     iteration #  5     ecut=    40.00 Ry     beta=0.70
     Davidson diagonalization with overlap
     ethr =  1.47E-04,  avg # of iterations =  1.1

     total cpu time spent up to now is       58.1 secs

     total energy              =     -95.10444266 Ry
     Harris-Foulkes estimate   =     -95.10555069 Ry
     estimated scf accuracy    <       0.00403268 Ry

     iteration #  6     ecut=    40.00 Ry     beta=0.70
     Davidson diagonalization with overlap
     ethr =  4.48E-05,  avg # of iterations =  1.1

     total cpu time spent up to now is       58.7 secs

     total energy              =     -95.10331311 Ry
     Harris-Foulkes estimate   =     -95.10455133 Ry
     estimated scf accuracy    <       0.00183872 Ry

     iteration #  7     ecut=    40.00 Ry     beta=0.70
     Davidson diagonalization with overlap
     ethr =  2.04E-05,  avg # of iterations =  2.1

     total cpu time spent up to now is       59.5 secs

     total energy              =     -95.10371857 Ry
     Harris-Foulkes estimate   =     -95.10370533 Ry
     estimated scf accuracy    <       0.00000029 Ry

     iteration #  8     ecut=    40.00 Ry     beta=0.70
     Davidson diagonalization with overlap
     ethr =  3.24E-09,  avg # of iterations =  3.1

     total cpu time spent up to now is       60.5 secs

     total energy              =     -95.10370074 Ry
     Harris-Foulkes estimate   =     -95.10372751 Ry
     estimated scf accuracy    <       0.00004830 Ry

     iteration #  9     ecut=    40.00 Ry     beta=0.70
     Davidson diagonalization with overlap
     ethr =  3.24E-09,  avg # of iterations =  3.0

     total cpu time spent up to now is       61.4 secs

     total energy              =     -95.10370500 Ry
     Harris-Foulkes estimate   =     -95.10370671 Ry
     estimated scf accuracy    <       0.00000262 Ry

     iteration # 10     ecut=    40.00 Ry     beta=0.70
     Davidson diagonalization with overlap
     ethr =  3.24E-09,  avg # of iterations =  2.9

     total cpu time spent up to now is       62.2 secs

     total energy              =     -95.10370551 Ry
     Harris-Foulkes estimate   =     -95.10370551 Ry
     estimated scf accuracy    <          6.8E-09 Ry

     iteration # 11     ecut=    40.00 Ry     beta=0.70
     Davidson diagonalization with overlap
     ethr =  7.56E-11,  avg # of iterations =  2.0

     total cpu time spent up to now is       63.0 secs

     total energy              =     -95.10370550 Ry
     Harris-Foulkes estimate   =     -95.10370551 Ry
     estimated scf accuracy    <       0.00000001 Ry

     iteration # 12     ecut=    40.00 Ry     beta=0.70
     Davidson diagonalization with overlap
     ethr =  7.56E-11,  avg # of iterations =  1.6

     total cpu time spent up to now is       63.6 secs

     total energy              =     -95.10370551 Ry
     Harris-Foulkes estimate   =     -95.10370551 Ry
     estimated scf accuracy    <          1.0E-09 Ry

     iteration # 13     ecut=    40.00 Ry     beta=0.70
     Davidson diagonalization with overlap
     ethr =  1.12E-11,  avg # of iterations =  1.2

     total cpu time spent up to now is       64.3 secs

     total energy              =     -95.10370551 Ry
     Harris-Foulkes estimate   =     -95.10370551 Ry
     estimated scf accuracy    <          4.9E-10 Ry

     iteration # 14     ecut=    40.00 Ry     beta=0.70
     Davidson diagonalization with overlap
     ethr =  5.47E-12,  avg # of iterations =  2.0

     total cpu time spent up to now is       65.0 secs

     total energy              =     -95.10370551 Ry
     Harris-Foulkes estimate   =     -95.10370551 Ry
     estimated scf accuracy    <          1.0E-11 Ry

     iteration # 15     ecut=    40.00 Ry     beta=0.70
     Davidson diagonalization with overlap
     ethr =  1.16E-13,  avg # of iterations =  1.0

     total cpu time spent up to now is       65.6 secs

     total energy              =     -95.10370551 Ry
     Harris-Foulkes estimate   =     -95.10370551 Ry
     estimated scf accuracy    <          1.1E-11 Ry

     iteration # 16     ecut=    40.00 Ry     beta=0.70
     Davidson diagonalization with overlap
     ethr =  1.16E-13,  avg # of iterations =  1.6

     total cpu time spent up to now is       66.4 secs

     total energy              =     -95.10370551 Ry
     Harris-Foulkes estimate   =     -95.10370551 Ry
     estimated scf accuracy    <          2.3E-12 Ry

     iteration # 17     ecut=    40.00 Ry     beta=0.70
     Davidson diagonalization with overlap
     ethr =  1.00E-13,  avg # of iterations =  1.0

     total cpu time spent up to now is       67.0 secs

     End of self-consistent calculation

     Number of k-points >= 100: set verbosity='high' to print the bands.

     the Fermi energy is     2.5967 ev

!    total energy              =     -95.10370551 Ry
     Harris-Foulkes estimate   =     -95.10370551 Ry
     estimated scf accuracy    <          9.8E-13 Ry

     The total energy is the sum of the following terms:

     one-electron contribution =     -83.38331408 Ry
     hartree contribution      =      42.42675662 Ry
     xc contribution           =     -14.29791394 Ry
     ewald contribution        =     -39.84913187 Ry
     smearing contrib. (-TS)   =      -0.00010224 Ry

     convergence has been achieved in  17 iterations

     Forces acting on atoms (cartesian axes, Ry/au):

     atom    1 type  1   force =     0.00000000    0.00000000    0.00000000

     Total force =     0.000000     Total SCF correction =     0.000000


     Computing stress (Cartesian axis) and pressure

          total   stress  (Ry/bohr**3)                   (kbar)     P=   23.87
   0.00016230  -0.00000000   0.00000000         23.87     -0.00      0.00
  -0.00000000   0.00016230  -0.00000000         -0.00     23.87     -0.00
   0.00000000  -0.00000000   0.00016230          0.00     -0.00     23.87


     number of scf cycles    =   5
     number of bfgs steps    =   4

     enthalpy old            =     -95.0300538713 Ry
     enthalpy new            =     -95.0349130797 Ry

     CASE: enthalpy_new < enthalpy_old

     new trust radius        =       0.1444312111 bohr
     new conv_thr            =            1.0E-12 Ry

     new unit-cell volume =    173.11099 a.u.^3 (    25.65240 Ang^3 )
     density =      1.48820 g/cm^3

CELL_PARAMETERS (alat=  8.00000000)
   0.438865625   0.438865625   0.438865625
  -0.438865625   0.438865625   0.438865625
  -0.438865625  -0.438865625   0.438865625

ATOMIC_POSITIONS (crystal)
Na       0.000000000   0.000000000   0.000000000



     Writing output data file na.bcc.save
     NEW-OLD atomic charge density approx. for the potential
     extrapolated charge    7.47863, renormalised to    9.00000

     total cpu time spent up to now is       68.8 secs

     per-process dynamical memory:    13.5 Mb

     Self-consistent Calculation

     iteration #  1     ecut=    40.00 Ry     beta=0.70
     Davidson diagonalization with overlap
     ethr =  1.00E-06,  avg # of iterations =  6.6

     total cpu time spent up to now is       70.5 secs

     total energy              =     -94.14466131 Ry
     Harris-Foulkes estimate   =    -105.33344008 Ry
     estimated scf accuracy    <       0.59638402 Ry

     iteration #  2     ecut=    40.00 Ry     beta=0.70
     Davidson diagonalization with overlap
     ethr =  6.63E-03,  avg # of iterations =  2.4

     total cpu time spent up to now is       71.4 secs

     total energy              =     -95.06022849 Ry
     Harris-Foulkes estimate   =     -95.45325937 Ry
     estimated scf accuracy    <       0.85982723 Ry

     iteration #  3     ecut=    40.00 Ry     beta=0.70
     Davidson diagonalization with overlap
     ethr =  6.63E-03,  avg # of iterations =  2.0

     total cpu time spent up to now is       72.1 secs

     total energy              =     -95.09783797 Ry
     Harris-Foulkes estimate   =     -95.14068214 Ry
     estimated scf accuracy    <       0.10620360 Ry

     iteration #  4     ecut=    40.00 Ry     beta=0.70
     Davidson diagonalization with overlap
     ethr =  1.18E-03,  avg # of iterations =  1.2

     total cpu time spent up to now is       72.8 secs

     total energy              =     -95.09655296 Ry
     Harris-Foulkes estimate   =     -95.10553059 Ry
     estimated scf accuracy    <       0.02204202 Ry

     iteration #  5     ecut=    40.00 Ry     beta=0.70
     Davidson diagonalization with overlap
     ethr =  2.45E-04,  avg # of iterations =  1.3

     total cpu time spent up to now is       73.5 secs

     total energy              =     -95.09559587 Ry
     Harris-Foulkes estimate   =     -95.09822685 Ry
     estimated scf accuracy    <       0.00461050 Ry

     iteration #  6     ecut=    40.00 Ry     beta=0.70
     Davidson diagonalization with overlap
     ethr =  5.12E-05,  avg # of iterations =  2.2

     total cpu time spent up to now is       74.2 secs

     total energy              =     -95.09609324 Ry
     Harris-Foulkes estimate   =     -95.09623899 Ry
     estimated scf accuracy    <       0.00019513 Ry

     iteration #  7     ecut=    40.00 Ry     beta=0.70
     Davidson diagonalization with overlap
     ethr =  2.17E-06,  avg # of iterations =  2.8

     total cpu time spent up to now is       75.1 secs

     total energy              =     -95.09615737 Ry
     Harris-Foulkes estimate   =     -95.09616618 Ry
     estimated scf accuracy    <       0.00001046 Ry

     iteration #  8     ecut=    40.00 Ry     beta=0.70
     Davidson diagonalization with overlap
     ethr =  1.16E-07,  avg # of iterations =  2.0

     total cpu time spent up to now is       75.9 secs

     total energy              =     -95.09616119 Ry
     Harris-Foulkes estimate   =     -95.09616446 Ry
     estimated scf accuracy    <       0.00000669 Ry

     iteration #  9     ecut=    40.00 Ry     beta=0.70
     Davidson diagonalization with overlap
     ethr =  7.44E-08,  avg # of iterations =  1.0

     total cpu time spent up to now is       76.5 secs

     total energy              =     -95.09616125 Ry
     Harris-Foulkes estimate   =     -95.09616180 Ry
     estimated scf accuracy    <       0.00000073 Ry

     iteration # 10     ecut=    40.00 Ry     beta=0.70
     Davidson diagonalization with overlap
     ethr =  8.16E-09,  avg # of iterations =  2.0

     total cpu time spent up to now is       77.3 secs

     total energy              =     -95.09616150 Ry
     Harris-Foulkes estimate   =     -95.09616154 Ry
     estimated scf accuracy    <       0.00000005 Ry

     iteration # 11     ecut=    40.00 Ry     beta=0.70
     Davidson diagonalization with overlap
     ethr =  5.73E-10,  avg # of iterations =  2.0

     total cpu time spent up to now is       78.0 secs

     total energy              =     -95.09616152 Ry
     Harris-Foulkes estimate   =     -95.09616152 Ry
     estimated scf accuracy    <          4.1E-10 Ry

     iteration # 12     ecut=    40.00 Ry     beta=0.70
     Davidson diagonalization with overlap
     ethr =  4.51E-12,  avg # of iterations =  1.1

     total cpu time spent up to now is       78.7 secs

     total energy              =     -95.09616152 Ry
     Harris-Foulkes estimate   =     -95.09616152 Ry
     estimated scf accuracy    <          5.4E-11 Ry

     iteration # 13     ecut=    40.00 Ry     beta=0.70
     Davidson diagonalization with overlap
     ethr =  5.99E-13,  avg # of iterations =  2.1

     total cpu time spent up to now is       79.5 secs

     total energy              =     -95.09616152 Ry
     Harris-Foulkes estimate   =     -95.09616152 Ry
     estimated scf accuracy    <          1.1E-10 Ry

     iteration # 14     ecut=    40.00 Ry     beta=0.70
     Davidson diagonalization with overlap
     ethr =  5.99E-13,  avg # of iterations =  2.0

     total cpu time spent up to now is       80.4 secs

     End of self-consistent calculation

     Number of k-points >= 100: set verbosity='high' to print the bands.

     the Fermi energy is     3.4880 ev

!    total energy              =     -95.09616152 Ry
     Harris-Foulkes estimate   =     -95.09616152 Ry
     estimated scf accuracy    <          2.7E-13 Ry

     The total energy is the sum of the following terms:

     one-electron contribution =     -79.67724734 Ry
     hartree contribution      =      40.88333492 Ry
     xc contribution           =     -14.32205151 Ry
     ewald contribution        =     -41.98009209 Ry
     smearing contrib. (-TS)   =      -0.00010551 Ry

     convergence has been achieved in  14 iterations

     Forces acting on atoms (cartesian axes, Ry/au):

     atom    1 type  1   force =     0.00000000    0.00000000    0.00000000

     Total force =     0.000000     Total SCF correction =     0.000000


     Computing stress (Cartesian axis) and pressure

          total   stress  (Ry/bohr**3)                   (kbar)     P=   54.90
   0.00037323  -0.00000000  -0.00000000         54.90     -0.00     -0.00
   0.00000000   0.00037323   0.00000000          0.00     54.90      0.00
  -0.00000000   0.00000000   0.00037323         -0.00      0.00     54.90


     number of scf cycles    =   6
     number of bfgs steps    =   5

     enthalpy old            =     -95.0349130797 Ry
     enthalpy new            =     -95.0373222758 Ry

     CASE: enthalpy_new < enthalpy_old

     new trust radius        =       0.0203561911 bohr
     new conv_thr            =            1.0E-12 Ry

     new unit-cell volume =    177.15960 a.u.^3 (    26.25234 Ang^3 )
     density =      1.45419 g/cm^3

CELL_PARAMETERS (alat=  8.00000000)
   0.442260593   0.442260593   0.442260593
  -0.442260593   0.442260593   0.442260593
  -0.442260593  -0.442260593   0.442260593

ATOMIC_POSITIONS (crystal)
Na       0.000000000   0.000000000   0.000000000



     Writing output data file na.bcc.save
     NEW-OLD atomic charge density approx. for the potential
     extrapolated charge    9.20553, renormalised to    9.00000

     total cpu time spent up to now is       82.1 secs

     per-process dynamical memory:    13.5 Mb

     Self-consistent Calculation

     iteration #  1     ecut=    40.00 Ry     beta=0.70
     Davidson diagonalization with overlap
     ethr =  1.00E-06,  avg # of iterations =  3.6

     total cpu time spent up to now is       83.4 secs

     total energy              =     -95.06834698 Ry
     Harris-Foulkes estimate   =     -93.64014599 Ry
     estimated scf accuracy    <       0.01633452 Ry

     iteration #  2     ecut=    40.00 Ry     beta=0.70
     Davidson diagonalization with overlap
     ethr =  1.81E-04,  avg # of iterations =  3.0

     total cpu time spent up to now is       84.3 secs

     total energy              =     -95.09836178 Ry
     Harris-Foulkes estimate   =     -95.11037895 Ry
     estimated scf accuracy    <       0.02741854 Ry

     iteration #  3     ecut=    40.00 Ry     beta=0.70
     Davidson diagonalization with overlap
     ethr =  1.81E-04,  avg # of iterations =  1.3

     total cpu time spent up to now is       85.0 secs

     total energy              =     -95.09838596 Ry
     Harris-Foulkes estimate   =     -95.10008026 Ry
     estimated scf accuracy    <       0.00559384 Ry

     iteration #  4     ecut=    40.00 Ry     beta=0.70
     Davidson diagonalization with overlap
     ethr =  6.22E-05,  avg # of iterations =  1.0

     total cpu time spent up to now is       85.6 secs

     total energy              =     -95.09802945 Ry
     Harris-Foulkes estimate   =     -95.09859761 Ry
     estimated scf accuracy    <       0.00214754 Ry

     iteration #  5     ecut=    40.00 Ry     beta=0.70
     Davidson diagonalization with overlap
     ethr =  2.39E-05,  avg # of iterations =  1.0

     total cpu time spent up to now is       86.2 secs

     total energy              =     -95.09774111 Ry
     Harris-Foulkes estimate   =     -95.09807744 Ry
     estimated scf accuracy    <       0.00102485 Ry

     iteration #  6     ecut=    40.00 Ry     beta=0.70
     Davidson diagonalization with overlap
     ethr =  1.14E-05,  avg # of iterations =  1.0

     total cpu time spent up to now is       86.9 secs

     total energy              =     -95.09758666 Ry
     Harris-Foulkes estimate   =     -95.09777239 Ry
     estimated scf accuracy    <       0.00038472 Ry

     iteration #  7     ecut=    40.00 Ry     beta=0.70
     Davidson diagonalization with overlap
     ethr =  4.27E-06,  avg # of iterations =  1.0

     total cpu time spent up to now is       87.5 secs

     total energy              =     -95.09759568 Ry
     Harris-Foulkes estimate   =     -95.09761911 Ry
     estimated scf accuracy    <       0.00005317 Ry

     iteration #  8     ecut=    40.00 Ry     beta=0.70
     Davidson diagonalization with overlap
     ethr =  5.91E-07,  avg # of iterations =  1.9

     total cpu time spent up to now is       88.2 secs

     total energy              =     -95.09759558 Ry
     Harris-Foulkes estimate   =     -95.09760074 Ry
     estimated scf accuracy    <       0.00000969 Ry

     iteration #  9     ecut=    40.00 Ry     beta=0.70
     Davidson diagonalization with overlap
     ethr =  1.08E-07,  avg # of iterations =  1.5

     total cpu time spent up to now is       88.9 secs

     total energy              =     -95.09759616 Ry
     Harris-Foulkes estimate   =     -95.09759665 Ry
     estimated scf accuracy    <       0.00000085 Ry

     iteration # 10     ecut=    40.00 Ry     beta=0.70
     Davidson diagonalization with overlap
     ethr =  9.41E-09,  avg # of iterations =  2.0

     total cpu time spent up to now is       89.6 secs

     total energy              =     -95.09759627 Ry
     Harris-Foulkes estimate   =     -95.09759630 Ry
     estimated scf accuracy    <       0.00000005 Ry

     iteration # 11     ecut=    40.00 Ry     beta=0.70
     Davidson diagonalization with overlap
     ethr =  5.17E-10,  avg # of iterations =  2.0

     total cpu time spent up to now is       90.4 secs

     total energy              =     -95.09759628 Ry
     Harris-Foulkes estimate   =     -95.09759630 Ry
     estimated scf accuracy    <       0.00000006 Ry

     iteration # 12     ecut=    40.00 Ry     beta=0.70
     Davidson diagonalization with overlap
     ethr =  5.17E-10,  avg # of iterations =  1.0

     total cpu time spent up to now is       91.0 secs

     total energy              =     -95.09759628 Ry
     Harris-Foulkes estimate   =     -95.09759628 Ry
     estimated scf accuracy    <          2.9E-09 Ry

     iteration # 13     ecut=    40.00 Ry     beta=0.70
     Davidson diagonalization with overlap
     ethr =  3.26E-11,  avg # of iterations =  2.0

     total cpu time spent up to now is       91.7 secs

     total energy              =     -95.09759628 Ry
     Harris-Foulkes estimate   =     -95.09759628 Ry
     estimated scf accuracy    <          1.1E-10 Ry

     iteration # 14     ecut=    40.00 Ry     beta=0.70
     Davidson diagonalization with overlap
     ethr =  1.20E-12,  avg # of iterations =  2.0

     total cpu time spent up to now is       92.5 secs

     total energy              =     -95.09759628 Ry
     Harris-Foulkes estimate   =     -95.09759628 Ry
     estimated scf accuracy    <          3.8E-10 Ry

     iteration # 15     ecut=    40.00 Ry     beta=0.70
     Davidson diagonalization with overlap
     ethr =  1.20E-12,  avg # of iterations =  2.0

     total cpu time spent up to now is       93.2 secs

     total energy              =     -95.09759628 Ry
     Harris-Foulkes estimate   =     -95.09759628 Ry
     estimated scf accuracy    <          3.0E-12 Ry

     iteration # 16     ecut=    40.00 Ry     beta=0.70
     Davidson diagonalization with overlap
     ethr =  1.00E-13,  avg # of iterations =  1.0

     total cpu time spent up to now is       94.0 secs

     End of self-consistent calculation

     Number of k-points >= 100: set verbosity='high' to print the bands.

     the Fermi energy is     3.3464 ev

!    total energy              =     -95.09759628 Ry
     Harris-Foulkes estimate   =     -95.09759628 Ry
     estimated scf accuracy    <          3.4E-14 Ry

     The total energy is the sum of the following terms:

     one-electron contribution =     -80.23640777 Ry
     hartree contribution      =      41.11508736 Ry
     xc contribution           =     -14.31833441 Ry
     ewald contribution        =     -41.65783616 Ry
     smearing contrib. (-TS)   =      -0.00010530 Ry

     convergence has been achieved in  16 iterations

     Forces acting on atoms (cartesian axes, Ry/au):

     atom    1 type  1   force =     0.00000000    0.00000000    0.00000000

     Total force =     0.000000     Total SCF correction =     0.000000


     Computing stress (Cartesian axis) and pressure

          total   stress  (Ry/bohr**3)                   (kbar)     P=   49.44
   0.00033607   0.00000000  -0.00000000         49.44      0.00     -0.00
   0.00000000   0.00033607   0.00000000          0.00     49.44      0.00
  -0.00000000   0.00000000   0.00033607         -0.00      0.00     49.44


     number of scf cycles    =   7
     number of bfgs steps    =   6

     enthalpy old            =     -95.0373222758 Ry
     enthalpy new            =     -95.0373809478 Ry

     CASE: enthalpy_new < enthalpy_old

     new trust radius        =       0.0021324179 bohr
     new conv_thr            =            1.0E-12 Ry

     new unit-cell volume =    176.73420 a.u.^3 (    26.18931 Ang^3 )
     density =      1.45769 g/cm^3

CELL_PARAMETERS (alat=  8.00000000)
   0.441906320   0.441906320   0.441906320
  -0.441906320   0.441906320   0.441906320
  -0.441906320  -0.441906320   0.441906320

ATOMIC_POSITIONS (crystal)
Na       0.000000000   0.000000000   0.000000000



     Writing output data file na.bcc.save
     NEW-OLD atomic charge density approx. for the potential
     extrapolated charge    8.97835, renormalised to    9.00000

     total cpu time spent up to now is       95.7 secs

     per-process dynamical memory:    13.5 Mb

     Self-consistent Calculation

     iteration #  1     ecut=    40.00 Ry     beta=0.70
     Davidson diagonalization with overlap
     ethr =  1.00E-06,  avg # of iterations =  2.0

     total cpu time spent up to now is       96.6 secs

     total energy              =     -95.09715571 Ry
     Harris-Foulkes estimate   =     -95.25032582 Ry
     estimated scf accuracy    <       0.00016646 Ry

     iteration #  2     ecut=    40.00 Ry     beta=0.70
     Davidson diagonalization with overlap
     ethr =  1.85E-06,  avg # of iterations =  2.9

     total cpu time spent up to now is       97.6 secs

     total energy              =     -95.09745776 Ry
     Harris-Foulkes estimate   =     -95.09758006 Ry
     estimated scf accuracy    <       0.00027897 Ry

     iteration #  3     ecut=    40.00 Ry     beta=0.70
     Davidson diagonalization with overlap
     ethr =  1.85E-06,  avg # of iterations =  1.5

     total cpu time spent up to now is       98.3 secs

     total energy              =     -95.09746170 Ry
     Harris-Foulkes estimate   =     -95.09747622 Ry
     estimated scf accuracy    <       0.00005397 Ry

     iteration #  4     ecut=    40.00 Ry     beta=0.70
     Davidson diagonalization with overlap
     ethr =  6.00E-07,  avg # of iterations =  1.0

     total cpu time spent up to now is       98.9 secs

     total energy              =     -95.09745639 Ry
     Harris-Foulkes estimate   =     -95.09746342 Ry
     estimated scf accuracy    <       0.00002354 Ry

     iteration #  5     ecut=    40.00 Ry     beta=0.70
     Davidson diagonalization with overlap
     ethr =  2.62E-07,  avg # of iterations =  1.0

     total cpu time spent up to now is       99.5 secs

     total energy              =     -95.09745398 Ry
     Harris-Foulkes estimate   =     -95.09745703 Ry
     estimated scf accuracy    <       0.00000978 Ry

     iteration #  6     ecut=    40.00 Ry     beta=0.70
     Davidson diagonalization with overlap
     ethr =  1.09E-07,  avg # of iterations =  1.0

     total cpu time spent up to now is      100.2 secs

     total energy              =     -95.09745260 Ry
     Harris-Foulkes estimate   =     -95.09745428 Ry
     estimated scf accuracy    <       0.00000383 Ry

     iteration #  7     ecut=    40.00 Ry     beta=0.70
     Davidson diagonalization with overlap
     ethr =  4.26E-08,  avg # of iterations =  1.0

     total cpu time spent up to now is      101.1 secs

     total energy              =     -95.09745237 Ry
     Harris-Foulkes estimate   =     -95.09745285 Ry
     estimated scf accuracy    <       0.00000075 Ry

     iteration #  8     ecut=    40.00 Ry     beta=0.70
     Davidson diagonalization with overlap
     ethr =  8.38E-09,  avg # of iterations =  2.0

     total cpu time spent up to now is      101.8 secs

     total energy              =     -95.09745252 Ry
     Harris-Foulkes estimate   =     -95.09745252 Ry
     estimated scf accuracy    <          2.6E-09 Ry

     iteration #  9     ecut=    40.00 Ry     beta=0.70
     Davidson diagonalization with overlap
     ethr =  2.87E-11,  avg # of iterations =  1.6

     total cpu time spent up to now is      102.5 secs

     total energy              =     -95.09745252 Ry
     Harris-Foulkes estimate   =     -95.09745252 Ry
     estimated scf accuracy    <          2.4E-09 Ry

     iteration # 10     ecut=    40.00 Ry     beta=0.70
     Davidson diagonalization with overlap
     ethr =  2.63E-11,  avg # of iterations =  2.0

     total cpu time spent up to now is      103.2 secs

     total energy              =     -95.09745252 Ry
     Harris-Foulkes estimate   =     -95.09745252 Ry
     estimated scf accuracy    <          8.6E-11 Ry

     iteration # 11     ecut=    40.00 Ry     beta=0.70
     Davidson diagonalization with overlap
     ethr =  9.61E-13,  avg # of iterations =  2.0

     total cpu time spent up to now is      104.1 secs

     total energy              =     -95.09745252 Ry
     Harris-Foulkes estimate   =     -95.09745252 Ry
     estimated scf accuracy    <          1.4E-10 Ry

     iteration # 12     ecut=    40.00 Ry     beta=0.70
     Davidson diagonalization with overlap
     ethr =  9.61E-13,  avg # of iterations =  1.0

     total cpu time spent up to now is      104.8 secs

     total energy              =     -95.09745252 Ry
     Harris-Foulkes estimate   =     -95.09745252 Ry
     estimated scf accuracy    <          1.2E-10 Ry

     iteration # 13     ecut=    40.00 Ry     beta=0.70
     Davidson diagonalization with overlap
     ethr =  9.61E-13,  avg # of iterations =  2.0

     total cpu time spent up to now is      105.5 secs

     total energy              =     -95.09745252 Ry
     Harris-Foulkes estimate   =     -95.09745252 Ry
     estimated scf accuracy    <          1.2E-11 Ry

     iteration # 14     ecut=    40.00 Ry     beta=0.70
     Davidson diagonalization with overlap
     ethr =  1.28E-13,  avg # of iterations =  1.0

     total cpu time spent up to now is      106.2 secs

     total energy              =     -95.09745252 Ry
     Harris-Foulkes estimate   =     -95.09745252 Ry
     estimated scf accuracy    <          2.0E-11 Ry

     iteration # 15     ecut=    40.00 Ry     beta=0.70
     Davidson diagonalization with overlap
     ethr =  1.28E-13,  avg # of iterations =  1.5

     total cpu time spent up to now is      106.8 secs

     End of self-consistent calculation

     Number of k-points >= 100: set verbosity='high' to print the bands.

     the Fermi energy is     3.3609 ev

!    total energy              =     -95.09745252 Ry
     Harris-Foulkes estimate   =     -95.09745252 Ry
     estimated scf accuracy    <          2.6E-13 Ry

     The total energy is the sum of the following terms:

     one-electron contribution =     -80.17843809 Ry
     hartree contribution      =      41.09104232 Ry
     xc contribution           =     -14.31871847 Ry
     ewald contribution        =     -41.69123295 Ry
     smearing contrib. (-TS)   =      -0.00010533 Ry

     convergence has been achieved in  15 iterations

     Forces acting on atoms (cartesian axes, Ry/au):

     atom    1 type  1   force =     0.00000000    0.00000000    0.00000000

     Total force =     0.000000     Total SCF correction =     0.000000


     Computing stress (Cartesian axis) and pressure

          total   stress  (Ry/bohr**3)                   (kbar)     P=   49.99
   0.00033983   0.00000000   0.00000000         49.99      0.00      0.00
   0.00000000   0.00033983   0.00000000          0.00     49.99      0.00
  -0.00000000   0.00000000   0.00033983         -0.00      0.00     49.99


     bfgs converged in   8 scf cycles and   7 bfgs steps
     (criteria: energy <  1.0E-04 Ry, force <  1.0E-03Ry/Bohr, cell <  5.0E-02kbar)

     End of BFGS Geometry Optimization

     Final enthalpy =     -95.0373817774 Ry
Begin final coordinates
     new unit-cell volume =    176.73420 a.u.^3 (    26.18931 Ang^3 )
     density =      1.45769 g/cm^3

CELL_PARAMETERS (alat=  8.00000000)
   0.441906320   0.441906320   0.441906320
  -0.441906320   0.441906320   0.441906320
  -0.441906320  -0.441906320   0.441906320

ATOMIC_POSITIONS (crystal)
Na       0.000000000   0.000000000   0.000000000
End final coordinates



     A final scf calculation at the relaxed structure.
     The G-vectors are recalculated for the final unit cell
     Results may differ from those at the preceding step.

     Parallelization info
     --------------------
     sticks:   dense  smooth     PW     G-vecs:    dense   smooth      PW
     Min          56      28      8                 1069      377      65
     Max          57      29      9                 1071      380      68
     Sum         905     451    139                17117     6051    1061



     bravais-lattice index     =            3
     lattice parameter (alat)  =       8.0000  a.u.
     unit-cell volume          =     176.7342 (a.u.)^3
     number of atoms/cell      =            1
     number of atomic types    =            1
     number of electrons       =         9.00
     number of Kohn-Sham states=            9
     kinetic-energy cutoff     =      40.0000  Ry
     charge density cutoff     =     320.0000  Ry
     convergence threshold     =      1.0E-12
     mixing beta               =       0.7000
     number of iterations used =            8  plain     mixing
     Exchange-correlation      = SLA  PW   PBE  PBE ( 1  4  3  4 0 0)

     celldm(1)=   8.000000  celldm(2)=   0.000000  celldm(3)=   0.000000
     celldm(4)=   0.000000  celldm(5)=   0.000000  celldm(6)=   0.000000

     crystal axes: (cart. coord. in units of alat)
               a(1) = (   0.441906   0.441906   0.441906 )  
               a(2) = (  -0.441906   0.441906   0.441906 )  
               a(3) = (  -0.441906  -0.441906   0.441906 )  

     reciprocal axes: (cart. coord. in units 2 pi/alat)
               b(1) = (  1.131462  0.000000  1.131462 )  
               b(2) = ( -1.131462  1.131462  0.000000 )  
               b(3) = (  0.000000 -1.131462  1.131462 )  


     PseudoPot. # 1 for Na read from file:
     /home/s1333534/quantum_espresso/qe-6.1/pseudo/Na_pbe_v1.uspp.F.UPF
     MD5 check sum: 76a99c7e9422403d3e93cbc85ab7bccb
     Pseudo is Ultrasoft, Zval =  9.0
     Generated by new atomic code, or converted to UPF format
     Using radial grid of  819 points,  5 beta functions with: 
                l(1) =   0
                l(2) =   0
                l(3) =   1
                l(4) =   1
                l(5) =   2
     Q(r) pseudized with  8 coefficients,  rinner =    1.250   1.250   1.250
                                                       1.250   1.250

     atomic species   valence    mass     pseudopotential
        Na             9.00    22.99000     Na( 1.00)

     48 Sym. Ops., with inversion, found



   Cartesian axes

     site n.     atom                  positions (alat units)
         1           Na  tau(   1) = (   0.0000000   0.0000000   0.0000000  )

     number of k points=   250  Marzari-Vanderbilt smearing, width (Ry)=  0.0200

     Number of k-points >= 100: set verbosity='high' to print them.

     Dense  grid:    17117 G-vectors     FFT dimensions: (  36,  36,  36)

     Smooth grid:     6051 G-vectors     FFT dimensions: (  25,  25,  25)

     Estimated max dynamical RAM per process >       1.21MB

     Estimated total allocated dynamical RAM >      77.16MB

     Initial potential from superposition of free atoms

     starting charge    8.99371, renormalised to    9.00000
     Starting wfc are    5 randomized atomic wfcs +    4 random wfc

     Writing output data file na.bcc.save

     total cpu time spent up to now is      108.7 secs

     per-process dynamical memory:    12.9 Mb

     Self-consistent Calculation

     iteration #  1     ecut=    40.00 Ry     beta=0.70
     Davidson diagonalization with overlap
     ethr =  1.00E-06,  avg # of iterations = 11.0

     total cpu time spent up to now is      110.6 secs

     total energy              =     -95.09678668 Ry
     Harris-Foulkes estimate   =     -95.09722059 Ry
     estimated scf accuracy    <       0.00121927 Ry

     iteration #  2     ecut=    40.00 Ry     beta=0.70
     Davidson diagonalization with overlap
     ethr =  1.35E-05,  avg # of iterations =  2.0

     total cpu time spent up to now is      111.1 secs

     total energy              =     -95.09695120 Ry
     Harris-Foulkes estimate   =     -95.09698855 Ry
     estimated scf accuracy    <       0.00014167 Ry

     iteration #  3     ecut=    40.00 Ry     beta=0.70
     Davidson diagonalization with overlap
     ethr =  1.57E-06,  avg # of iterations =  2.0

     total cpu time spent up to now is      111.7 secs

     total energy              =     -95.09696762 Ry
     Harris-Foulkes estimate   =     -95.09696893 Ry
     estimated scf accuracy    <       0.00000854 Ry

     iteration #  4     ecut=    40.00 Ry     beta=0.70
     Davidson diagonalization with overlap
     ethr =  9.49E-08,  avg # of iterations =  1.0

     total cpu time spent up to now is      112.1 secs

     total energy              =     -95.09696835 Ry
     Harris-Foulkes estimate   =     -95.09696830 Ry
     estimated scf accuracy    <       0.00000001 Ry

     iteration #  5     ecut=    40.00 Ry     beta=0.70
     Davidson diagonalization with overlap
     ethr =  1.19E-10,  avg # of iterations =  3.0

     total cpu time spent up to now is      112.8 secs

     total energy              =     -95.09696838 Ry
     Harris-Foulkes estimate   =     -95.09696838 Ry
     estimated scf accuracy    <          1.0E-09 Ry

     iteration #  6     ecut=    40.00 Ry     beta=0.70
     Davidson diagonalization with overlap
     ethr =  1.16E-11,  avg # of iterations =  1.5

     total cpu time spent up to now is      113.3 secs

     total energy              =     -95.09696838 Ry
     Harris-Foulkes estimate   =     -95.09696838 Ry
     estimated scf accuracy    <          3.2E-11 Ry

     iteration #  7     ecut=    40.00 Ry     beta=0.70
     Davidson diagonalization with overlap
     ethr =  3.56E-13,  avg # of iterations =  2.0

     total cpu time spent up to now is      114.0 secs

     total energy              =     -95.09696838 Ry
     Harris-Foulkes estimate   =     -95.09696838 Ry
     estimated scf accuracy    <          3.2E-12 Ry

     iteration #  8     ecut=    40.00 Ry     beta=0.70
     Davidson diagonalization with overlap
     ethr =  1.00E-13,  avg # of iterations =  1.1

     total cpu time spent up to now is      114.5 secs

     End of self-consistent calculation

     Number of k-points >= 100: set verbosity='high' to print the bands.

     the Fermi energy is     3.3598 ev

!    total energy              =     -95.09696838 Ry
     Harris-Foulkes estimate   =     -95.09696838 Ry
     estimated scf accuracy    <          1.9E-13 Ry

     The total energy is the sum of the following terms:

     one-electron contribution =     -80.17758911 Ry
     hartree contribution      =      41.09050654 Ry
     xc contribution           =     -14.31854753 Ry
     ewald contribution        =     -41.69123295 Ry
     smearing contrib. (-TS)   =      -0.00010533 Ry

     convergence has been achieved in   8 iterations

     Forces acting on atoms (cartesian axes, Ry/au):

     atom    1 type  1   force =     0.00000000    0.00000000    0.00000000

     Total force =     0.000000     Total SCF correction =     0.000000


     Computing stress (Cartesian axis) and pressure

          total   stress  (Ry/bohr**3)                   (kbar)     P=   47.00
   0.00031948  -0.00000000   0.00000000         47.00     -0.00      0.00
  -0.00000000   0.00031948  -0.00000000         -0.00     47.00     -0.00
   0.00000000  -0.00000000   0.00031948          0.00     -0.00     47.00


     Writing output data file na.bcc.save

     init_run     :      0.94s CPU      1.00s WALL (       2 calls)
     electrons    :     92.16s CPU     99.57s WALL (       9 calls)
     update_pot   :      1.48s CPU      1.53s WALL (       7 calls)
     forces       :      0.86s CPU      0.87s WALL (       9 calls)
     stress       :      3.23s CPU      3.25s WALL (       9 calls)

     Called by init_run:
     wfcinit      :      0.30s CPU      0.33s WALL (       2 calls)
     potinit      :      0.14s CPU      0.15s WALL (       2 calls)

     Called by electrons:
     c_bands      :     73.82s CPU     80.43s WALL (     129 calls)
     sum_band     :     14.52s CPU     15.22s WALL (     129 calls)
     v_of_rho     :      1.44s CPU      1.46s WALL (     137 calls)
     newd         :      1.30s CPU      1.32s WALL (     137 calls)
     mix_rho      :      0.24s CPU      0.24s WALL (     129 calls)

     Called by c_bands:
     init_us_2    :      1.40s CPU      1.48s WALL (   17514 calls)
     cegterg      :     66.91s CPU     73.32s WALL (    8127 calls)

     Called by sum_band:
     sum_band:bec :      0.09s CPU      0.09s WALL (    8127 calls)
     addusdens    :      1.69s CPU      1.71s WALL (     129 calls)

     Called by *egterg:
     h_psi        :     49.58s CPU     53.11s WALL (   24526 calls)
     s_psi        :      0.54s CPU      0.58s WALL (   24526 calls)
     g_psi        :      0.14s CPU      0.17s WALL (   16273 calls)
     cdiaghg      :      8.72s CPU      9.91s WALL (   23896 calls)

     Called by h_psi:
     h_psi:pot    :     49.36s CPU     52.87s WALL (   24526 calls)
     h_psi:calbec :      1.98s CPU      2.11s WALL (   24526 calls)
     vloc_psi     :     46.60s CPU     49.92s WALL (   24526 calls)
     add_vuspsi   :      0.56s CPU      0.60s WALL (   24526 calls)

     General routines
     calbec       :      2.90s CPU      3.08s WALL (   35488 calls)
     fft          :      1.52s CPU      1.55s WALL (    2239 calls)
     ffts         :      0.06s CPU      0.11s WALL (     266 calls)
     fftw         :     50.89s CPU     54.31s WALL (  434197 calls)
     interpolate  :      0.20s CPU      0.26s WALL (     266 calls)
     davcio       :      0.00s CPU      0.02s WALL (     126 calls)

     Parallel routines
     fft_scatter  :     25.46s CPU     27.15s WALL (  436702 calls)

     PWSCF        :  1m47.75s CPU     1m55.70s WALL


   This run was terminated on:  23:37:30  29Jan2018            

=------------------------------------------------------------------------------=
   JOB DONE.
=------------------------------------------------------------------------------=
