
     Program PHONON v.6.1 (svn rev. 13369) starts on 21Dec2017 at 11:34:58 

     This program is part of the open-source Quantum ESPRESSO suite
     for quantum simulation of materials; please cite
         "P. Giannozzi et al., J. Phys.:Condens. Matter 21 395502 (2009);
          URL http://www.quantum-espresso.org", 
     in publications or presentations arising from this work. More details at
     http://www.quantum-espresso.org/quote

     Parallel version (MPI), running on     4 processors
     R & G space division:  proc/nbgrp/npool/nimage =       4

     Reading data from directory:
     ./na.bcc.save

   Info: using nr1, nr2, nr3 values from input

   Info: using nr1, nr2, nr3 values from input

     IMPORTANT: XC functional enforced from input :
     Exchange-correlation      = SLA  PW   PBE  PBE ( 1  4  3  4 0 0)
     Any further DFT definition will be discarded
     Please, verify this is what you really want


     Parallelization info
     --------------------
     sticks:   dense  smooth     PW     G-vecs:    dense   smooth      PW
     Min         278     139     43                 5863     2097     369
     Max         279     140     44                 5866     2099     372
     Sum        1113     557    173                23455     8391    1481



     Dynamical matrices for ( 8, 8, 8)  uniform grid of q-points
     (  29q-points):
       N         xq(1)         xq(2)         xq(3) 
       1   0.000000000   0.000000000   0.000000000
       2   0.000000000  -0.125000000   0.125000000
       3   0.000000000  -0.250000000   0.250000000
       4   0.000000000  -0.375000000   0.375000000
       5   0.000000000   0.500000000  -0.500000000
       6  -0.125000000  -0.125000000   0.250000000
       7  -0.125000000  -0.250000000   0.375000000
       8  -0.125000000   0.625000000  -0.500000000
       9  -0.250000000   0.750000000  -0.500000000
      10  -0.250000000   0.625000000  -0.375000000
      11   0.000000000   0.000000000   0.250000000
      12   0.000000000  -0.125000000   0.375000000
      13   0.000000000  -0.250000000   0.500000000
      14   0.000000000   0.625000000  -0.375000000
      15  -0.125000000  -0.125000000   0.500000000
      16  -0.125000000   0.750000000  -0.375000000
      17  -0.250000000   0.250000000   0.250000000
      18  -0.250000000   0.750000000  -0.250000000
      19   0.625000000  -0.625000000   0.250000000
      20   0.500000000  -0.500000000   0.250000000
      21   0.500000000  -0.625000000   0.375000000
      22   0.000000000   0.000000000   0.500000000
      23   0.000000000  -0.125000000   0.625000000
      24   0.000000000   0.750000000  -0.250000000
      25  -0.125000000   0.875000000  -0.250000000
      26   0.500000000  -0.500000000   0.500000000
      27   0.000000000   0.000000000   0.750000000
      28   0.000000000   0.875000000  -0.125000000
      29   0.000000000   0.000000000  -1.000000000

     Calculation of q =    0.0000000   0.0000000   0.0000000

                                                                                

     bravais-lattice index     =            3
     lattice parameter (alat)  =       7.8581  a.u.
     unit-cell volume          =     242.6175 (a.u.)^3
     number of atoms/cell      =            1
     number of atomic types    =            1
     kinetic-energy cut-off    =      40.0000  Ry
     charge density cut-off    =     320.0000  Ry
     convergence threshold     =      1.0E-12
     beta                      =       0.7000
     number of iterations used =            4
     Exchange-correlation      = SLA  PW   PBE  PBE ( 1  4  3  4 0 0)


     celldm(1)=    7.85810  celldm(2)=    0.00000  celldm(3)=    0.00000
     celldm(4)=    0.00000  celldm(5)=    0.00000  celldm(6)=    0.00000

     crystal axes: (cart. coord. in units of alat)
               a(1) = (  0.5000  0.5000  0.5000 )  
               a(2) = ( -0.5000  0.5000  0.5000 )  
               a(3) = ( -0.5000 -0.5000  0.5000 )  

     reciprocal axes: (cart. coord. in units 2 pi/alat)
               b(1) = (  1.0000  0.0000  1.0000 )  
               b(2) = ( -1.0000  1.0000  0.0000 )  
               b(3) = (  0.0000 -1.0000  1.0000 )  


     Atoms inside the unit cell: 

     Cartesian axes

     site n.  atom      mass           positions (alat units)
        1     Na  22.9900   tau(    1) = (    0.00000    0.00000    0.00000  )

     Computing dynamical matrix for 
                    q = (   0.0000000   0.0000000   0.0000000 )

     49 Sym.Ops. (with q -> -q+G )


     G cutoff =  500.5241  (   5866 G-vectors)     FFT grid: ( 40, 40, 40)
     G cutoff =  250.2621  (   2098 G-vectors)  smooth grid: ( 27, 27, 27)

     number of k points=   100  Marzari-Vanderbilt smearing, width (Ry)=  0.0200

     PseudoPot. # 1 for Na read from file:
     /home/s1333534/quantum_espresso/qe-6.1/pseudo/Na_pbe_v1.uspp.F.UPF
     MD5 check sum: 76a99c7e9422403d3e93cbc85ab7bccb
     Pseudo is Ultrasoft, Zval =  9.0
     Generated by new atomic code, or converted to UPF format
     Using radial grid of  819 points,  5 beta functions with: 
                l(1) =   0
                l(2) =   0
                l(3) =   1
                l(4) =   1
                l(5) =   2
     Q(r) pseudized with  8 coefficients,  rinner =    1.250   1.250   1.250
                                                       1.250   1.250

     Mode symmetry, O_h (m-3m)  point group:


     Atomic displacements:
     There are   1 irreducible representations

     Representation     1      3 modes -T_1u G_15  G_4-  To be done



     Alpha used in Ewald sum =   2.8000
     PHONON       :     1.11s CPU         1.15s WALL



     Representation #  1 modes #   1  2  3

     Self-consistent Calculation

     Pert. #  1: Fermi energy shift (Ry) =    -1.7233E-25     3.1347E-37
     Pert. #  2: Fermi energy shift (Ry) =     1.3786E-24    -2.6645E-37
     Pert. #  3: Fermi energy shift (Ry) =    -6.2039E-25     3.1347E-37

      iter #   1 total cpu time :     4.3 secs   av.it.:   5.4
      thresh= 1.000E-02 alpha_mix =  0.700 |ddv_scf|^2 =  1.449E-06

     Pert. #  1: Fermi energy shift (Ry) =    -4.0067E-25    -7.5305E-39
     Pert. #  2: Fermi energy shift (Ry) =    -8.7026E-25     1.2092E-38
     Pert. #  3: Fermi energy shift (Ry) =     3.2312E-26     2.8163E-39

      iter #   2 total cpu time :     7.8 secs   av.it.:   8.4
      thresh= 1.204E-04 alpha_mix =  0.700 |ddv_scf|^2 =  2.731E-08

     Pert. #  1: Fermi energy shift (Ry) =     1.7664E-25     7.6530E-41
     Pert. #  2: Fermi energy shift (Ry) =    -2.6926E-25     4.5152E-40
     Pert. #  3: Fermi energy shift (Ry) =    -5.4715E-25     7.0407E-40

      iter #   3 total cpu time :    11.5 secs   av.it.:   8.5
      thresh= 1.653E-05 alpha_mix =  0.700 |ddv_scf|^2 =  5.556E-10

     Pert. #  1: Fermi energy shift (Ry) =    -1.4799E-24     2.2959E-41
     Pert. #  2: Fermi energy shift (Ry) =     1.0447E-25     2.5829E-41
     Pert. #  3: Fermi energy shift (Ry) =    -3.0481E-25     2.2959E-41

      iter #   4 total cpu time :    15.0 secs   av.it.:   7.9
      thresh= 2.357E-06 alpha_mix =  0.700 |ddv_scf|^2 =  1.894E-12

     Pert. #  1: Fermi energy shift (Ry) =    -8.0564E-25     7.6530E-41
     Pert. #  2: Fermi energy shift (Ry) =    -2.0249E-25     1.3201E-40
     Pert. #  3: Fermi energy shift (Ry) =    -3.5543E-25     5.7397E-42

      iter #   5 total cpu time :    18.5 secs   av.it.:   8.3
      thresh= 1.376E-07 alpha_mix =  0.700 |ddv_scf|^2 =  4.259E-15

     End of self-consistent calculation

     Convergence has been achieved 

     Number of q in the star =    1
     List of q in the star:
          1   0.000000000   0.000000000   0.000000000

     Diagonalizing the dynamical matrix

     q = (    0.000000000   0.000000000   0.000000000 ) 

 **************************************************************************
     freq (    1) =       0.482326 [THz] =      16.088651 [cm-1]
     freq (    2) =       0.482326 [THz] =      16.088651 [cm-1]
     freq (    3) =       0.482326 [THz] =      16.088651 [cm-1]
 **************************************************************************

     Mode symmetry, O_h (m-3m)  point group:

     freq (  1 -  3) =         16.1  [cm-1]   --> T_1u G_15  G_4- I  

     Calculation of q =    0.0000000  -0.1250000   0.1250000

   Info: using nr1, nr2, nr3 values from input

   Info: using nr1, nr2, nr3 values from input

     Parallelization info
     --------------------
     sticks:   dense  smooth     PW     G-vecs:    dense   smooth      PW
     Min         278     139     43                 5863     2097     375
     Max         279     140     44                 5865     2099     378
     Sum        1113     557    173                23455     8391    1505



     bravais-lattice index     =            3
     lattice parameter (alat)  =       7.8581  a.u.
     unit-cell volume          =     242.6175 (a.u.)^3
     number of atoms/cell      =            1
     number of atomic types    =            1
     number of electrons       =         9.00
     number of Kohn-Sham states=            9
     kinetic-energy cutoff     =      40.0000  Ry
     charge density cutoff     =     320.0000  Ry
     Exchange-correlation      = SLA  PW   PBE  PBE ( 1  4  3  4 0 0)

     celldm(1)=   7.858097  celldm(2)=   0.000000  celldm(3)=   0.000000
     celldm(4)=   0.000000  celldm(5)=   0.000000  celldm(6)=   0.000000

     crystal axes: (cart. coord. in units of alat)
               a(1) = (   0.500000   0.500000   0.500000 )  
               a(2) = (  -0.500000   0.500000   0.500000 )  
               a(3) = (  -0.500000  -0.500000   0.500000 )  

     reciprocal axes: (cart. coord. in units 2 pi/alat)
               b(1) = (  1.000000  0.000000  1.000000 )  
               b(2) = ( -1.000000  1.000000  0.000000 )  
               b(3) = (  0.000000 -1.000000  1.000000 )  


     PseudoPot. # 1 for Na read from file:
     /home/s1333534/quantum_espresso/qe-6.1/pseudo/Na_pbe_v1.uspp.F.UPF
     MD5 check sum: 76a99c7e9422403d3e93cbc85ab7bccb
     Pseudo is Ultrasoft, Zval =  9.0
     Generated by new atomic code, or converted to UPF format
     Using radial grid of  819 points,  5 beta functions with: 
                l(1) =   0
                l(2) =   0
                l(3) =   1
                l(4) =   1
                l(5) =   2
     Q(r) pseudized with  8 coefficients,  rinner =    1.250   1.250   1.250
                                                       1.250   1.250

     atomic species   valence    mass     pseudopotential
        Na             9.00    22.99000     Na( 1.00)

     48 Sym. Ops., with inversion, found



   Cartesian axes

     site n.     atom                  positions (alat units)
         1           Na  tau(   1) = (   0.0000000   0.0000000   0.0000000  )

     number of k points=  1568  Marzari-Vanderbilt smearing, width (Ry)=  0.0200

     Number of k-points >= 100: set verbosity='high' to print them.

     Dense  grid:    23455 G-vectors     FFT dimensions: (  40,  40,  40)

     Smooth grid:     8391 G-vectors     FFT dimensions: (  27,  27,  27)

     Estimated max dynamical RAM per process >       2.19MB

     Estimated total allocated dynamical RAM >       8.75MB

     The potential is recalculated from file :
     ./_ph0/na.bcc.save/charge-density.dat

     Starting wfc are    5 atomic +    4 random wfc

     Band Structure Calculation
     Davidson diagonalization with overlap

     ethr =  1.11E-10,  avg # of iterations = 21.1

     total cpu time spent up to now is       46.0 secs

     End of band structure calculation

     Number of k-points >= 100: set verbosity='high' to print the bands.

     the Fermi energy is     1.7440 ev

     Writing output data file na.bcc.save

                                                                                

     bravais-lattice index     =            3
     lattice parameter (alat)  =       7.8581  a.u.
     unit-cell volume          =     242.6175 (a.u.)^3
     number of atoms/cell      =            1
     number of atomic types    =            1
     kinetic-energy cut-off    =      40.0000  Ry
     charge density cut-off    =     320.0000  Ry
     convergence threshold     =      1.0E-12
     beta                      =       0.7000
     number of iterations used =            4
     Exchange-correlation      = SLA  PW   PBE  PBE ( 1  4  3  4 0 0)


     celldm(1)=    7.85810  celldm(2)=    0.00000  celldm(3)=    0.00000
     celldm(4)=    0.00000  celldm(5)=    0.00000  celldm(6)=    0.00000

     crystal axes: (cart. coord. in units of alat)
               a(1) = (  0.5000  0.5000  0.5000 )  
               a(2) = ( -0.5000  0.5000  0.5000 )  
               a(3) = ( -0.5000 -0.5000  0.5000 )  

     reciprocal axes: (cart. coord. in units 2 pi/alat)
               b(1) = (  1.0000  0.0000  1.0000 )  
               b(2) = ( -1.0000  1.0000  0.0000 )  
               b(3) = (  0.0000 -1.0000  1.0000 )  


     Atoms inside the unit cell: 

     Cartesian axes

     site n.  atom      mass           positions (alat units)
        1     Na  22.9900   tau(    1) = (    0.00000    0.00000    0.00000  )

     Computing dynamical matrix for 
                    q = (   0.0000000  -0.1250000   0.1250000 )

      4 Sym.Ops. (no q -> -q+G )


     G cutoff =  500.5241  (   5863 G-vectors)     FFT grid: ( 40, 40, 40)
     G cutoff =  250.2621  (   2098 G-vectors)  smooth grid: ( 27, 27, 27)

     number of k points=  1568  Marzari-Vanderbilt smearing, width (Ry)=  0.0200

     PseudoPot. # 1 for Na read from file:
     /home/s1333534/quantum_espresso/qe-6.1/pseudo/Na_pbe_v1.uspp.F.UPF
     MD5 check sum: 76a99c7e9422403d3e93cbc85ab7bccb
     Pseudo is Ultrasoft, Zval =  9.0
     Generated by new atomic code, or converted to UPF format
     Using radial grid of  819 points,  5 beta functions with: 
                l(1) =   0
                l(2) =   0
                l(3) =   1
                l(4) =   1
                l(5) =   2
     Q(r) pseudized with  8 coefficients,  rinner =    1.250   1.250   1.250
                                                       1.250   1.250

     Mode symmetry, C_2v (mm2)  point group:


     Atomic displacements:
     There are   3 irreducible representations

     Representation     1      1 modes -A_1  D_1  S_1  To be done

     Representation     2      1 modes -B_1  D_3  S_3  To be done

     Representation     3      1 modes -B_2  D_4  S_4  To be done



     Alpha used in Ewald sum =   2.8000
     PHONON       :  1m 5.64s CPU     1m 9.08s WALL



     Representation #  1 mode #   1

     Self-consistent Calculation

      iter #   1 total cpu time :    76.3 secs   av.it.:   5.6
      thresh= 1.000E-02 alpha_mix =  0.700 |ddv_scf|^2 =  1.751E-01

      iter #   2 total cpu time :    83.7 secs   av.it.:   6.9
      thresh= 1.000E-02 alpha_mix =  0.700 |ddv_scf|^2 =  8.056E+01

      iter #   3 total cpu time :    91.3 secs   av.it.:   6.9
      thresh= 1.000E-02 alpha_mix =  0.700 |ddv_scf|^2 =  2.208E-04

      iter #   4 total cpu time :    97.5 secs   av.it.:   5.3
      thresh= 1.486E-03 alpha_mix =  0.700 |ddv_scf|^2 =  1.800E-07

      iter #   5 total cpu time :   105.7 secs   av.it.:   7.2
      thresh= 4.242E-05 alpha_mix =  0.700 |ddv_scf|^2 =  1.370E-07

      iter #   6 total cpu time :   110.8 secs   av.it.:   4.1
      thresh= 3.701E-05 alpha_mix =  0.700 |ddv_scf|^2 =  7.783E-08

      iter #   7 total cpu time :   117.5 secs   av.it.:   6.1
      thresh= 2.790E-05 alpha_mix =  0.700 |ddv_scf|^2 =  2.253E-11

      iter #   8 total cpu time :   125.8 secs   av.it.:   8.2
      thresh= 4.746E-07 alpha_mix =  0.700 |ddv_scf|^2 =  1.561E-12

      iter #   9 total cpu time :   134.0 secs   av.it.:   8.0
      thresh= 1.249E-07 alpha_mix =  0.700 |ddv_scf|^2 =  8.303E-14

     End of self-consistent calculation

     Convergence has been achieved 


     Representation #  2 mode #   2

     Self-consistent Calculation

      iter #   1 total cpu time :   141.2 secs   av.it.:   5.4
      thresh= 1.000E-02 alpha_mix =  0.700 |ddv_scf|^2 =  1.312E-05

      iter #   2 total cpu time :   149.1 secs   av.it.:   7.6
      thresh= 3.622E-04 alpha_mix =  0.700 |ddv_scf|^2 =  2.445E-07

      iter #   3 total cpu time :   157.1 secs   av.it.:   7.7
      thresh= 4.945E-05 alpha_mix =  0.700 |ddv_scf|^2 =  5.238E-09

      iter #   4 total cpu time :   164.7 secs   av.it.:   7.2
      thresh= 7.238E-06 alpha_mix =  0.700 |ddv_scf|^2 =  1.768E-11

      iter #   5 total cpu time :   172.6 secs   av.it.:   7.5
      thresh= 4.205E-07 alpha_mix =  0.700 |ddv_scf|^2 =  3.735E-14

     End of self-consistent calculation

     Convergence has been achieved 


     Representation #  3 mode #   3

     Self-consistent Calculation

      iter #   1 total cpu time :   179.8 secs   av.it.:   5.4
      thresh= 1.000E-02 alpha_mix =  0.700 |ddv_scf|^2 =  1.338E-05

      iter #   2 total cpu time :   187.6 secs   av.it.:   7.5
      thresh= 3.658E-04 alpha_mix =  0.700 |ddv_scf|^2 =  2.437E-07

      iter #   3 total cpu time :   195.6 secs   av.it.:   7.7
      thresh= 4.936E-05 alpha_mix =  0.700 |ddv_scf|^2 =  6.084E-09

      iter #   4 total cpu time :   203.2 secs   av.it.:   7.3
      thresh= 7.800E-06 alpha_mix =  0.700 |ddv_scf|^2 =  2.029E-11

      iter #   5 total cpu time :   211.2 secs   av.it.:   7.5
      thresh= 4.505E-07 alpha_mix =  0.700 |ddv_scf|^2 =  3.795E-14

     End of self-consistent calculation

     Convergence has been achieved 

     Number of q in the star =   12
     List of q in the star:
          1   0.000000000  -0.125000000   0.125000000
          2   0.125000000   0.000000000   0.125000000
          3  -0.125000000   0.000000000   0.125000000
          4   0.000000000   0.125000000   0.125000000
          5   0.125000000  -0.125000000   0.000000000
          6  -0.125000000   0.000000000  -0.125000000
          7   0.125000000   0.000000000  -0.125000000
          8   0.000000000  -0.125000000  -0.125000000
          9  -0.125000000  -0.125000000   0.000000000
         10  -0.125000000   0.125000000   0.000000000
         11   0.125000000   0.125000000   0.000000000
         12   0.000000000   0.125000000  -0.125000000

     Diagonalizing the dynamical matrix

     q = (    0.000000000  -0.125000000   0.125000000 ) 

 **************************************************************************
     freq (    1) =       0.436266 [THz] =      14.552282 [cm-1]
     freq (    2) =       0.949609 [THz] =      31.675536 [cm-1]
     freq (    3) =       2.000737 [THz] =      66.737409 [cm-1]
 **************************************************************************

     Mode symmetry, C_2v (mm2)  point group:

     freq (  1 -  1) =         14.6  [cm-1]   --> B_1  D_3  S_3      
     freq (  2 -  2) =         31.7  [cm-1]   --> B_2  D_4  S_4      
     freq (  3 -  3) =         66.7  [cm-1]   --> A_1  D_1  S_1      

     Calculation of q =    0.0000000  -0.2500000   0.2500000

   Info: using nr1, nr2, nr3 values from input

   Info: using nr1, nr2, nr3 values from input

     Parallelization info
     --------------------
     sticks:   dense  smooth     PW     G-vecs:    dense   smooth      PW
     Min         278     139     45                 5862     2097     400
     Max         279     140     46                 5865     2099     401
     Sum        1113     557    181                23455     8391    1601



     bravais-lattice index     =            3
     lattice parameter (alat)  =       7.8581  a.u.
     unit-cell volume          =     242.6175 (a.u.)^3
     number of atoms/cell      =            1
     number of atomic types    =            1
     number of electrons       =         9.00
     number of Kohn-Sham states=            9
     kinetic-energy cutoff     =      40.0000  Ry
     charge density cutoff     =     320.0000  Ry
     Exchange-correlation      = SLA  PW   PBE  PBE ( 1  4  3  4 0 0)

     celldm(1)=   7.858097  celldm(2)=   0.000000  celldm(3)=   0.000000
     celldm(4)=   0.000000  celldm(5)=   0.000000  celldm(6)=   0.000000

     crystal axes: (cart. coord. in units of alat)
               a(1) = (   0.500000   0.500000   0.500000 )  
               a(2) = (  -0.500000   0.500000   0.500000 )  
               a(3) = (  -0.500000  -0.500000   0.500000 )  

     reciprocal axes: (cart. coord. in units 2 pi/alat)
               b(1) = (  1.000000  0.000000  1.000000 )  
               b(2) = ( -1.000000  1.000000  0.000000 )  
               b(3) = (  0.000000 -1.000000  1.000000 )  


     PseudoPot. # 1 for Na read from file:
     /home/s1333534/quantum_espresso/qe-6.1/pseudo/Na_pbe_v1.uspp.F.UPF
     MD5 check sum: 76a99c7e9422403d3e93cbc85ab7bccb
     Pseudo is Ultrasoft, Zval =  9.0
     Generated by new atomic code, or converted to UPF format
     Using radial grid of  819 points,  5 beta functions with: 
                l(1) =   0
                l(2) =   0
                l(3) =   1
                l(4) =   1
                l(5) =   2
     Q(r) pseudized with  8 coefficients,  rinner =    1.250   1.250   1.250
                                                       1.250   1.250

     atomic species   valence    mass     pseudopotential
        Na             9.00    22.99000     Na( 1.00)

     48 Sym. Ops., with inversion, found



   Cartesian axes

     site n.     atom                  positions (alat units)
         1           Na  tau(   1) = (   0.0000000   0.0000000   0.0000000  )

     number of k points=  1568  Marzari-Vanderbilt smearing, width (Ry)=  0.0200

     Number of k-points >= 100: set verbosity='high' to print them.

     Dense  grid:    23455 G-vectors     FFT dimensions: (  40,  40,  40)

     Smooth grid:     8391 G-vectors     FFT dimensions: (  27,  27,  27)

     Estimated max dynamical RAM per process >       2.19MB

     Estimated total allocated dynamical RAM >       8.75MB

     The potential is recalculated from file :
     ./_ph0/na.bcc.save/charge-density.dat

     Starting wfc are    5 atomic +    4 random wfc

     Band Structure Calculation
     Davidson diagonalization with overlap

     ethr =  1.11E-10,  avg # of iterations = 21.1

     total cpu time spent up to now is       93.7 secs

     End of band structure calculation

     Number of k-points >= 100: set verbosity='high' to print the bands.

     the Fermi energy is     1.7440 ev

     Writing output data file na.bcc.save

                                                                                

     bravais-lattice index     =            3
     lattice parameter (alat)  =       7.8581  a.u.
     unit-cell volume          =     242.6175 (a.u.)^3
     number of atoms/cell      =            1
     number of atomic types    =            1
     kinetic-energy cut-off    =      40.0000  Ry
     charge density cut-off    =     320.0000  Ry
     convergence threshold     =      1.0E-12
     beta                      =       0.7000
     number of iterations used =            4
     Exchange-correlation      = SLA  PW   PBE  PBE ( 1  4  3  4 0 0)


     celldm(1)=    7.85810  celldm(2)=    0.00000  celldm(3)=    0.00000
     celldm(4)=    0.00000  celldm(5)=    0.00000  celldm(6)=    0.00000

     crystal axes: (cart. coord. in units of alat)
               a(1) = (  0.5000  0.5000  0.5000 )  
               a(2) = ( -0.5000  0.5000  0.5000 )  
               a(3) = ( -0.5000 -0.5000  0.5000 )  

     reciprocal axes: (cart. coord. in units 2 pi/alat)
               b(1) = (  1.0000  0.0000  1.0000 )  
               b(2) = ( -1.0000  1.0000  0.0000 )  
               b(3) = (  0.0000 -1.0000  1.0000 )  


     Atoms inside the unit cell: 

     Cartesian axes

     site n.  atom      mass           positions (alat units)
        1     Na  22.9900   tau(    1) = (    0.00000    0.00000    0.00000  )

     Computing dynamical matrix for 
                    q = (   0.0000000  -0.2500000   0.2500000 )

      4 Sym.Ops. (no q -> -q+G )


     G cutoff =  500.5241  (   5863 G-vectors)     FFT grid: ( 40, 40, 40)
     G cutoff =  250.2621  (   2098 G-vectors)  smooth grid: ( 27, 27, 27)

     number of k points=  1568  Marzari-Vanderbilt smearing, width (Ry)=  0.0200

     PseudoPot. # 1 for Na read from file:
     /home/s1333534/quantum_espresso/qe-6.1/pseudo/Na_pbe_v1.uspp.F.UPF
     MD5 check sum: 76a99c7e9422403d3e93cbc85ab7bccb
     Pseudo is Ultrasoft, Zval =  9.0
     Generated by new atomic code, or converted to UPF format
     Using radial grid of  819 points,  5 beta functions with: 
                l(1) =   0
                l(2) =   0
                l(3) =   1
                l(4) =   1
                l(5) =   2
     Q(r) pseudized with  8 coefficients,  rinner =    1.250   1.250   1.250
                                                       1.250   1.250

     Mode symmetry, C_2v (mm2)  point group:


     Atomic displacements:
     There are   3 irreducible representations

     Representation     1      1 modes -A_1  D_1  S_1  To be done

     Representation     2      1 modes -B_1  D_3  S_3  To be done

     Representation     3      1 modes -B_2  D_4  S_4  To be done



     Alpha used in Ewald sum =   2.8000
     PHONON       :  4m 6.00s CPU     4m22.66s WALL



     Representation #  1 mode #   1

     Self-consistent Calculation

      iter #   1 total cpu time :   270.0 secs   av.it.:   5.7
      thresh= 1.000E-02 alpha_mix =  0.700 |ddv_scf|^2 =  2.844E-03

      iter #   2 total cpu time :   276.8 secs   av.it.:   6.1
      thresh= 5.333E-03 alpha_mix =  0.700 |ddv_scf|^2 =  6.366E-02

      iter #   3 total cpu time :   283.3 secs   av.it.:   5.6
      thresh= 1.000E-02 alpha_mix =  0.700 |ddv_scf|^2 =  2.308E-06

      iter #   4 total cpu time :   291.0 secs   av.it.:   7.3
      thresh= 1.519E-04 alpha_mix =  0.700 |ddv_scf|^2 =  1.222E-08

      iter #   5 total cpu time :   300.1 secs   av.it.:   8.1
      thresh= 1.106E-05 alpha_mix =  0.700 |ddv_scf|^2 =  1.305E-09

      iter #   6 total cpu time :   308.2 secs   av.it.:   7.9
      thresh= 3.613E-06 alpha_mix =  0.700 |ddv_scf|^2 =  5.787E-11

      iter #   7 total cpu time :   316.4 secs   av.it.:   8.0
      thresh= 7.607E-07 alpha_mix =  0.700 |ddv_scf|^2 =  4.677E-10

      iter #   8 total cpu time :   322.9 secs   av.it.:   5.7
      thresh= 2.163E-06 alpha_mix =  0.700 |ddv_scf|^2 =  2.120E-12

      iter #   9 total cpu time :   331.2 secs   av.it.:   7.6
      thresh= 1.456E-07 alpha_mix =  0.700 |ddv_scf|^2 =  6.948E-13

     End of self-consistent calculation

     Convergence has been achieved 


     Representation #  2 mode #   2

     Self-consistent Calculation

      iter #   1 total cpu time :   338.4 secs   av.it.:   5.5
      thresh= 1.000E-02 alpha_mix =  0.700 |ddv_scf|^2 =  1.335E-05

      iter #   2 total cpu time :   346.4 secs   av.it.:   7.6
      thresh= 3.653E-04 alpha_mix =  0.700 |ddv_scf|^2 =  2.402E-07

      iter #   3 total cpu time :   354.5 secs   av.it.:   7.7
      thresh= 4.901E-05 alpha_mix =  0.700 |ddv_scf|^2 =  6.022E-09

      iter #   4 total cpu time :   362.1 secs   av.it.:   7.3
      thresh= 7.760E-06 alpha_mix =  0.700 |ddv_scf|^2 =  1.969E-11

      iter #   5 total cpu time :   370.2 secs   av.it.:   7.6
      thresh= 4.438E-07 alpha_mix =  0.700 |ddv_scf|^2 =  3.416E-14

     End of self-consistent calculation

     Convergence has been achieved 


     Representation #  3 mode #   3

     Self-consistent Calculation

      iter #   1 total cpu time :   377.7 secs   av.it.:   5.4
      thresh= 1.000E-02 alpha_mix =  0.700 |ddv_scf|^2 =  1.425E-05

      iter #   2 total cpu time :   385.6 secs   av.it.:   7.6
      thresh= 3.775E-04 alpha_mix =  0.700 |ddv_scf|^2 =  2.383E-07

      iter #   3 total cpu time :   393.7 secs   av.it.:   7.7
      thresh= 4.882E-05 alpha_mix =  0.700 |ddv_scf|^2 =  9.203E-09

      iter #   4 total cpu time :   401.4 secs   av.it.:   7.3
      thresh= 9.593E-06 alpha_mix =  0.700 |ddv_scf|^2 =  2.969E-11

      iter #   5 total cpu time :   409.4 secs   av.it.:   7.7
      thresh= 5.449E-07 alpha_mix =  0.700 |ddv_scf|^2 =  3.901E-14

     End of self-consistent calculation

     Convergence has been achieved 

     Number of q in the star =   12
     List of q in the star:
          1   0.000000000  -0.250000000   0.250000000
          2   0.250000000   0.000000000   0.250000000
          3  -0.250000000   0.000000000   0.250000000
          4   0.000000000   0.250000000   0.250000000
          5   0.250000000  -0.250000000   0.000000000
          6  -0.250000000   0.000000000  -0.250000000
          7   0.250000000   0.000000000  -0.250000000
          8   0.000000000  -0.250000000  -0.250000000
          9  -0.250000000  -0.250000000   0.000000000
         10  -0.250000000   0.250000000   0.000000000
         11   0.250000000   0.250000000   0.000000000
         12   0.000000000   0.250000000  -0.250000000

     Diagonalizing the dynamical matrix

     q = (    0.000000000  -0.250000000   0.250000000 ) 

 **************************************************************************
     freq (    1) =       0.834125 [THz] =      27.823419 [cm-1]
     freq (    2) =       1.831981 [THz] =      61.108324 [cm-1]
     freq (    3) =       3.010640 [THz] =     100.424156 [cm-1]
 **************************************************************************

     Mode symmetry, C_2v (mm2)  point group:

     freq (  1 -  1) =         27.8  [cm-1]   --> B_1  D_3  S_3      
     freq (  2 -  2) =         61.1  [cm-1]   --> B_2  D_4  S_4      
     freq (  3 -  3) =        100.4  [cm-1]   --> A_1  D_1  S_1      

     Calculation of q =    0.0000000  -0.3750000   0.3750000

   Info: using nr1, nr2, nr3 values from input

   Info: using nr1, nr2, nr3 values from input

     Parallelization info
     --------------------
     sticks:   dense  smooth     PW     G-vecs:    dense   smooth      PW
     Min         278     139     50                 5863     2097     436
     Max         279     140     51                 5866     2099     437
     Sum        1113     557    201                23455     8391    1745



     bravais-lattice index     =            3
     lattice parameter (alat)  =       7.8581  a.u.
     unit-cell volume          =     242.6175 (a.u.)^3
     number of atoms/cell      =            1
     number of atomic types    =            1
     number of electrons       =         9.00
     number of Kohn-Sham states=            9
     kinetic-energy cutoff     =      40.0000  Ry
     charge density cutoff     =     320.0000  Ry
     Exchange-correlation      = SLA  PW   PBE  PBE ( 1  4  3  4 0 0)

     celldm(1)=   7.858097  celldm(2)=   0.000000  celldm(3)=   0.000000
     celldm(4)=   0.000000  celldm(5)=   0.000000  celldm(6)=   0.000000

     crystal axes: (cart. coord. in units of alat)
               a(1) = (   0.500000   0.500000   0.500000 )  
               a(2) = (  -0.500000   0.500000   0.500000 )  
               a(3) = (  -0.500000  -0.500000   0.500000 )  

     reciprocal axes: (cart. coord. in units 2 pi/alat)
               b(1) = (  1.000000  0.000000  1.000000 )  
               b(2) = ( -1.000000  1.000000  0.000000 )  
               b(3) = (  0.000000 -1.000000  1.000000 )  


     PseudoPot. # 1 for Na read from file:
     /home/s1333534/quantum_espresso/qe-6.1/pseudo/Na_pbe_v1.uspp.F.UPF
     MD5 check sum: 76a99c7e9422403d3e93cbc85ab7bccb
     Pseudo is Ultrasoft, Zval =  9.0
     Generated by new atomic code, or converted to UPF format
     Using radial grid of  819 points,  5 beta functions with: 
                l(1) =   0
                l(2) =   0
                l(3) =   1
                l(4) =   1
                l(5) =   2
     Q(r) pseudized with  8 coefficients,  rinner =    1.250   1.250   1.250
                                                       1.250   1.250

     atomic species   valence    mass     pseudopotential
        Na             9.00    22.99000     Na( 1.00)

     48 Sym. Ops., with inversion, found



   Cartesian axes

     site n.     atom                  positions (alat units)
         1           Na  tau(   1) = (   0.0000000   0.0000000   0.0000000  )

     number of k points=  1568  Marzari-Vanderbilt smearing, width (Ry)=  0.0200

     Number of k-points >= 100: set verbosity='high' to print them.

     Dense  grid:    23455 G-vectors     FFT dimensions: (  40,  40,  40)

     Smooth grid:     8391 G-vectors     FFT dimensions: (  27,  27,  27)

     Estimated max dynamical RAM per process >       2.19MB

     Estimated total allocated dynamical RAM >       8.75MB

     The potential is recalculated from file :
     ./_ph0/na.bcc.save/charge-density.dat

     Starting wfc are    5 atomic +    4 random wfc

     Band Structure Calculation
     Davidson diagonalization with overlap

     ethr =  1.11E-10,  avg # of iterations = 21.0

     total cpu time spent up to now is      140.9 secs

     End of band structure calculation

     Number of k-points >= 100: set verbosity='high' to print the bands.

     the Fermi energy is     1.7440 ev

     Writing output data file na.bcc.save

                                                                                

     bravais-lattice index     =            3
     lattice parameter (alat)  =       7.8581  a.u.
     unit-cell volume          =     242.6175 (a.u.)^3
     number of atoms/cell      =            1
     number of atomic types    =            1
     kinetic-energy cut-off    =      40.0000  Ry
     charge density cut-off    =     320.0000  Ry
     convergence threshold     =      1.0E-12
     beta                      =       0.7000
     number of iterations used =            4
     Exchange-correlation      = SLA  PW   PBE  PBE ( 1  4  3  4 0 0)


     celldm(1)=    7.85810  celldm(2)=    0.00000  celldm(3)=    0.00000
     celldm(4)=    0.00000  celldm(5)=    0.00000  celldm(6)=    0.00000

     crystal axes: (cart. coord. in units of alat)
               a(1) = (  0.5000  0.5000  0.5000 )  
               a(2) = ( -0.5000  0.5000  0.5000 )  
               a(3) = ( -0.5000 -0.5000  0.5000 )  

     reciprocal axes: (cart. coord. in units 2 pi/alat)
               b(1) = (  1.0000  0.0000  1.0000 )  
               b(2) = ( -1.0000  1.0000  0.0000 )  
               b(3) = (  0.0000 -1.0000  1.0000 )  


     Atoms inside the unit cell: 

     Cartesian axes

     site n.  atom      mass           positions (alat units)
        1     Na  22.9900   tau(    1) = (    0.00000    0.00000    0.00000  )

     Computing dynamical matrix for 
                    q = (   0.0000000  -0.3750000   0.3750000 )

      4 Sym.Ops. (no q -> -q+G )


     G cutoff =  500.5241  (   5866 G-vectors)     FFT grid: ( 40, 40, 40)
     G cutoff =  250.2621  (   2098 G-vectors)  smooth grid: ( 27, 27, 27)

     number of k points=  1568  Marzari-Vanderbilt smearing, width (Ry)=  0.0200

     PseudoPot. # 1 for Na read from file:
     /home/s1333534/quantum_espresso/qe-6.1/pseudo/Na_pbe_v1.uspp.F.UPF
     MD5 check sum: 76a99c7e9422403d3e93cbc85ab7bccb
     Pseudo is Ultrasoft, Zval =  9.0
     Generated by new atomic code, or converted to UPF format
     Using radial grid of  819 points,  5 beta functions with: 
                l(1) =   0
                l(2) =   0
                l(3) =   1
                l(4) =   1
                l(5) =   2
     Q(r) pseudized with  8 coefficients,  rinner =    1.250   1.250   1.250
                                                       1.250   1.250

     Mode symmetry, C_2v (mm2)  point group:


     Atomic displacements:
     There are   3 irreducible representations

     Representation     1      1 modes -A_1  D_1  S_1  To be done

     Representation     2      1 modes -B_1  D_3  S_3  To be done

     Representation     3      1 modes -B_2  D_4  S_4  To be done



     Alpha used in Ewald sum =   2.8000
     PHONON       :  7m11.00s CPU     7m40.38s WALL



     Representation #  1 mode #   1

     Self-consistent Calculation

      iter #   1 total cpu time :   467.8 secs   av.it.:   5.7
      thresh= 1.000E-02 alpha_mix =  0.700 |ddv_scf|^2 =  3.046E-04

      iter #   2 total cpu time :   475.2 secs   av.it.:   6.7
      thresh= 1.745E-03 alpha_mix =  0.700 |ddv_scf|^2 =  9.025E-04

      iter #   3 total cpu time :   482.0 secs   av.it.:   6.0
      thresh= 3.004E-03 alpha_mix =  0.700 |ddv_scf|^2 =  4.006E-07

      iter #   4 total cpu time :   490.2 secs   av.it.:   7.8
      thresh= 6.330E-05 alpha_mix =  0.700 |ddv_scf|^2 =  1.242E-08

      iter #   5 total cpu time :   498.9 secs   av.it.:   8.1
      thresh= 1.114E-05 alpha_mix =  0.700 |ddv_scf|^2 =  3.853E-10

      iter #   6 total cpu time :   507.3 secs   av.it.:   8.0
      thresh= 1.963E-06 alpha_mix =  0.700 |ddv_scf|^2 =  2.011E-11

      iter #   7 total cpu time :   515.4 secs   av.it.:   7.7
      thresh= 4.484E-07 alpha_mix =  0.700 |ddv_scf|^2 =  1.130E-12

      iter #   8 total cpu time :   523.9 secs   av.it.:   8.1
      thresh= 1.063E-07 alpha_mix =  0.700 |ddv_scf|^2 =  4.332E-14

     End of self-consistent calculation

     Convergence has been achieved 


     Representation #  2 mode #   2

     Self-consistent Calculation

      iter #   1 total cpu time :   531.3 secs   av.it.:   5.5
      thresh= 1.000E-02 alpha_mix =  0.700 |ddv_scf|^2 =  1.362E-05

      iter #   2 total cpu time :   539.4 secs   av.it.:   7.6
      thresh= 3.691E-04 alpha_mix =  0.700 |ddv_scf|^2 =  2.349E-07

      iter #   3 total cpu time :   547.6 secs   av.it.:   7.8
      thresh= 4.846E-05 alpha_mix =  0.700 |ddv_scf|^2 =  7.148E-09

      iter #   4 total cpu time :   555.3 secs   av.it.:   7.3
      thresh= 8.455E-06 alpha_mix =  0.700 |ddv_scf|^2 =  2.227E-11

      iter #   5 total cpu time :   563.4 secs   av.it.:   7.7
      thresh= 4.720E-07 alpha_mix =  0.700 |ddv_scf|^2 =  2.976E-14

     End of self-consistent calculation

     Convergence has been achieved 


     Representation #  3 mode #   3

     Self-consistent Calculation

      iter #   1 total cpu time :   570.8 secs   av.it.:   5.5
      thresh= 1.000E-02 alpha_mix =  0.700 |ddv_scf|^2 =  1.522E-05

      iter #   2 total cpu time :   578.9 secs   av.it.:   7.6
      thresh= 3.902E-04 alpha_mix =  0.700 |ddv_scf|^2 =  2.340E-07

      iter #   3 total cpu time :   587.0 secs   av.it.:   7.7
      thresh= 4.837E-05 alpha_mix =  0.700 |ddv_scf|^2 =  1.319E-08

      iter #   4 total cpu time :   594.8 secs   av.it.:   7.3
      thresh= 1.149E-05 alpha_mix =  0.700 |ddv_scf|^2 =  4.197E-11

      iter #   5 total cpu time :   602.9 secs   av.it.:   7.7
      thresh= 6.479E-07 alpha_mix =  0.700 |ddv_scf|^2 =  4.261E-14

     End of self-consistent calculation

     Convergence has been achieved 

     Number of q in the star =   12
     List of q in the star:
          1   0.000000000  -0.375000000   0.375000000
          2   0.375000000   0.000000000   0.375000000
          3  -0.375000000   0.000000000   0.375000000
          4   0.000000000   0.375000000   0.375000000
          5   0.375000000  -0.375000000   0.000000000
          6  -0.375000000   0.000000000  -0.375000000
          7   0.375000000   0.000000000  -0.375000000
          8   0.000000000  -0.375000000  -0.375000000
          9  -0.375000000  -0.375000000   0.000000000
         10  -0.375000000   0.375000000   0.000000000
         11   0.375000000   0.375000000   0.000000000
         12   0.000000000   0.375000000  -0.375000000

     Diagonalizing the dynamical matrix

     q = (    0.000000000  -0.375000000   0.375000000 ) 

 **************************************************************************
     freq (    1) =       0.825464 [THz] =      27.534504 [cm-1]
     freq (    2) =       2.349844 [THz] =      78.382351 [cm-1]
     freq (    3) =       3.825703 [THz] =     127.611724 [cm-1]
 **************************************************************************

     Mode symmetry, C_2v (mm2)  point group:

     freq (  1 -  1) =         27.5  [cm-1]   --> B_1  D_3  S_3      
     freq (  2 -  2) =         78.4  [cm-1]   --> B_2  D_4  S_4      
     freq (  3 -  3) =        127.6  [cm-1]   --> A_1  D_1  S_1      

     Calculation of q =    0.0000000   0.5000000  -0.5000000

   Info: using nr1, nr2, nr3 values from input

   Info: using nr1, nr2, nr3 values from input

     Parallelization info
     --------------------
     sticks:   dense  smooth     PW     G-vecs:    dense   smooth      PW
     Min         278     139     50                 5863     2097     436
     Max         279     140     51                 5866     2099     437
     Sum        1113     557    201                23455     8391    1745



     bravais-lattice index     =            3
     lattice parameter (alat)  =       7.8581  a.u.
     unit-cell volume          =     242.6175 (a.u.)^3
     number of atoms/cell      =            1
     number of atomic types    =            1
     number of electrons       =         9.00
     number of Kohn-Sham states=            9
     kinetic-energy cutoff     =      40.0000  Ry
     charge density cutoff     =     320.0000  Ry
     Exchange-correlation      = SLA  PW   PBE  PBE ( 1  4  3  4 0 0)

     celldm(1)=   7.858097  celldm(2)=   0.000000  celldm(3)=   0.000000
     celldm(4)=   0.000000  celldm(5)=   0.000000  celldm(6)=   0.000000

     crystal axes: (cart. coord. in units of alat)
               a(1) = (   0.500000   0.500000   0.500000 )  
               a(2) = (  -0.500000   0.500000   0.500000 )  
               a(3) = (  -0.500000  -0.500000   0.500000 )  

     reciprocal axes: (cart. coord. in units 2 pi/alat)
               b(1) = (  1.000000  0.000000  1.000000 )  
               b(2) = ( -1.000000  1.000000  0.000000 )  
               b(3) = (  0.000000 -1.000000  1.000000 )  


     PseudoPot. # 1 for Na read from file:
     /home/s1333534/quantum_espresso/qe-6.1/pseudo/Na_pbe_v1.uspp.F.UPF
     MD5 check sum: 76a99c7e9422403d3e93cbc85ab7bccb
     Pseudo is Ultrasoft, Zval =  9.0
     Generated by new atomic code, or converted to UPF format
     Using radial grid of  819 points,  5 beta functions with: 
                l(1) =   0
                l(2) =   0
                l(3) =   1
                l(4) =   1
                l(5) =   2
     Q(r) pseudized with  8 coefficients,  rinner =    1.250   1.250   1.250
                                                       1.250   1.250

     atomic species   valence    mass     pseudopotential
        Na             9.00    22.99000     Na( 1.00)

     48 Sym. Ops., with inversion, found



   Cartesian axes

     site n.     atom                  positions (alat units)
         1           Na  tau(   1) = (   0.0000000   0.0000000   0.0000000  )

     number of k points=   840  Marzari-Vanderbilt smearing, width (Ry)=  0.0200

     Number of k-points >= 100: set verbosity='high' to print them.

     Dense  grid:    23455 G-vectors     FFT dimensions: (  40,  40,  40)

     Smooth grid:     8391 G-vectors     FFT dimensions: (  27,  27,  27)

     Estimated max dynamical RAM per process >       2.19MB

     Estimated total allocated dynamical RAM >       8.75MB

     The potential is recalculated from file :
     ./_ph0/na.bcc.save/charge-density.dat

     Starting wfc are    5 atomic +    4 random wfc

     Band Structure Calculation
     Davidson diagonalization with overlap

     ethr =  1.11E-10,  avg # of iterations = 21.1

     total cpu time spent up to now is      166.9 secs

     End of band structure calculation

     Number of k-points >= 100: set verbosity='high' to print the bands.

     the Fermi energy is     1.7440 ev

     Writing output data file na.bcc.save

                                                                                

     bravais-lattice index     =            3
     lattice parameter (alat)  =       7.8581  a.u.
     unit-cell volume          =     242.6175 (a.u.)^3
     number of atoms/cell      =            1
     number of atomic types    =            1
     kinetic-energy cut-off    =      40.0000  Ry
     charge density cut-off    =     320.0000  Ry
     convergence threshold     =      1.0E-12
     beta                      =       0.7000
     number of iterations used =            4
     Exchange-correlation      = SLA  PW   PBE  PBE ( 1  4  3  4 0 0)


     celldm(1)=    7.85810  celldm(2)=    0.00000  celldm(3)=    0.00000
     celldm(4)=    0.00000  celldm(5)=    0.00000  celldm(6)=    0.00000

     crystal axes: (cart. coord. in units of alat)
               a(1) = (  0.5000  0.5000  0.5000 )  
               a(2) = ( -0.5000  0.5000  0.5000 )  
               a(3) = ( -0.5000 -0.5000  0.5000 )  

     reciprocal axes: (cart. coord. in units 2 pi/alat)
               b(1) = (  1.0000  0.0000  1.0000 )  
               b(2) = ( -1.0000  1.0000  0.0000 )  
               b(3) = (  0.0000 -1.0000  1.0000 )  


     Atoms inside the unit cell: 

     Cartesian axes

     site n.  atom      mass           positions (alat units)
        1     Na  22.9900   tau(    1) = (    0.00000    0.00000    0.00000  )

     Computing dynamical matrix for 
                    q = (   0.0000000   0.5000000  -0.5000000 )

      9 Sym.Ops. (with q -> -q+G )


     G cutoff =  500.5241  (   5866 G-vectors)     FFT grid: ( 40, 40, 40)
     G cutoff =  250.2621  (   2098 G-vectors)  smooth grid: ( 27, 27, 27)

     number of k points=   840  Marzari-Vanderbilt smearing, width (Ry)=  0.0200

     PseudoPot. # 1 for Na read from file:
     /home/s1333534/quantum_espresso/qe-6.1/pseudo/Na_pbe_v1.uspp.F.UPF
     MD5 check sum: 76a99c7e9422403d3e93cbc85ab7bccb
     Pseudo is Ultrasoft, Zval =  9.0
     Generated by new atomic code, or converted to UPF format
     Using radial grid of  819 points,  5 beta functions with: 
                l(1) =   0
                l(2) =   0
                l(3) =   1
                l(4) =   1
                l(5) =   2
     Q(r) pseudized with  8 coefficients,  rinner =    1.250   1.250   1.250
                                                       1.250   1.250

     Mode symmetry, D_2h (mmm)  point group:


     Atomic displacements:
     There are   3 irreducible representations

     Representation     1      1 modes -B_1u  To be done

     Representation     2      1 modes -B_2u  To be done

     Representation     3      1 modes -B_3u  To be done



     Alpha used in Ewald sum =   2.8000
     PHONON       :  9m49.78s CPU    10m30.65s WALL



     Representation #  1 mode #   1

     Self-consistent Calculation

      iter #   1 total cpu time :   634.6 secs   av.it.:   5.5
      thresh= 1.000E-02 alpha_mix =  0.700 |ddv_scf|^2 =  1.565E-05

      iter #   2 total cpu time :   638.9 secs   av.it.:   7.6
      thresh= 3.956E-04 alpha_mix =  0.700 |ddv_scf|^2 =  2.320E-07

      iter #   3 total cpu time :   643.3 secs   av.it.:   7.7
      thresh= 4.817E-05 alpha_mix =  0.700 |ddv_scf|^2 =  1.495E-08

      iter #   4 total cpu time :   647.4 secs   av.it.:   7.1
      thresh= 1.223E-05 alpha_mix =  0.700 |ddv_scf|^2 =  4.807E-11

      iter #   5 total cpu time :   651.7 secs   av.it.:   7.5
      thresh= 6.934E-07 alpha_mix =  0.700 |ddv_scf|^2 =  4.494E-14

     End of self-consistent calculation

     Convergence has been achieved 


     Representation #  2 mode #   2

     Self-consistent Calculation

      iter #   1 total cpu time :   655.7 secs   av.it.:   5.5
      thresh= 1.000E-02 alpha_mix =  0.700 |ddv_scf|^2 =  1.375E-05

      iter #   2 total cpu time :   660.0 secs   av.it.:   7.6
      thresh= 3.709E-04 alpha_mix =  0.700 |ddv_scf|^2 =  2.320E-07

      iter #   3 total cpu time :   664.7 secs   av.it.:   7.7
      thresh= 4.816E-05 alpha_mix =  0.700 |ddv_scf|^2 =  7.640E-09

      iter #   4 total cpu time :   668.9 secs   av.it.:   7.1
      thresh= 8.741E-06 alpha_mix =  0.700 |ddv_scf|^2 =  2.352E-11

      iter #   5 total cpu time :   673.2 secs   av.it.:   7.5
      thresh= 4.850E-07 alpha_mix =  0.700 |ddv_scf|^2 =  2.768E-14

     End of self-consistent calculation

     Convergence has been achieved 


     Representation #  3 mode #   3

     Self-consistent Calculation

      iter #   1 total cpu time :   677.3 secs   av.it.:   5.6
      thresh= 1.000E-02 alpha_mix =  0.700 |ddv_scf|^2 =  1.142E-04

      iter #   2 total cpu time :   681.2 secs   av.it.:   6.7
      thresh= 1.069E-03 alpha_mix =  0.700 |ddv_scf|^2 =  5.629E-05

      iter #   3 total cpu time :   685.1 secs   av.it.:   6.4
      thresh= 7.502E-04 alpha_mix =  0.700 |ddv_scf|^2 =  9.128E-08

      iter #   4 total cpu time :   689.5 secs   av.it.:   7.7
      thresh= 3.021E-05 alpha_mix =  0.700 |ddv_scf|^2 =  3.308E-10

      iter #   5 total cpu time :   693.4 secs   av.it.:   6.6
      thresh= 1.819E-06 alpha_mix =  0.700 |ddv_scf|^2 =  5.725E-12

      iter #   6 total cpu time :   697.3 secs   av.it.:   6.6
      thresh= 2.393E-07 alpha_mix =  0.700 |ddv_scf|^2 =  2.101E-14

     End of self-consistent calculation

     Convergence has been achieved 

     Number of q in the star =    6
     List of q in the star:
          1   0.000000000   0.500000000  -0.500000000
          2  -0.500000000   0.500000000   0.000000000
          3   0.500000000   0.000000000   0.500000000
          4   0.500000000   0.000000000  -0.500000000
          5   0.000000000   0.500000000   0.500000000
          6   0.500000000   0.500000000   0.000000000

     Diagonalizing the dynamical matrix

     q = (    0.000000000   0.500000000  -0.500000000 ) 

 **************************************************************************
     freq (    1) =       0.720087 [THz] =      24.019520 [cm-1]
     freq (    2) =       2.524472 [THz] =      84.207324 [cm-1]
     freq (    3) =       4.145691 [THz] =     138.285370 [cm-1]
 **************************************************************************

     Mode symmetry, D_2h (mmm)  point group:

     freq (  1 -  1) =         24.0  [cm-1]   --> B_2u               
     freq (  2 -  2) =         84.2  [cm-1]   --> B_1u               
     freq (  3 -  3) =        138.3  [cm-1]   --> B_3u               

     Calculation of q =   -0.1250000  -0.1250000   0.2500000

   Info: using nr1, nr2, nr3 values from input

   Info: using nr1, nr2, nr3 values from input

     Parallelization info
     --------------------
     sticks:   dense  smooth     PW     G-vecs:    dense   smooth      PW
     Min         278     139     45                 5862     2097     400
     Max         279     140     46                 5865     2099     401
     Sum        1113     557    181                23455     8391    1601



     bravais-lattice index     =            3
     lattice parameter (alat)  =       7.8581  a.u.
     unit-cell volume          =     242.6175 (a.u.)^3
     number of atoms/cell      =            1
     number of atomic types    =            1
     number of electrons       =         9.00
     number of Kohn-Sham states=            9
     kinetic-energy cutoff     =      40.0000  Ry
     charge density cutoff     =     320.0000  Ry
     Exchange-correlation      = SLA  PW   PBE  PBE ( 1  4  3  4 0 0)

     celldm(1)=   7.858097  celldm(2)=   0.000000  celldm(3)=   0.000000
     celldm(4)=   0.000000  celldm(5)=   0.000000  celldm(6)=   0.000000

     crystal axes: (cart. coord. in units of alat)
               a(1) = (   0.500000   0.500000   0.500000 )  
               a(2) = (  -0.500000   0.500000   0.500000 )  
               a(3) = (  -0.500000  -0.500000   0.500000 )  

     reciprocal axes: (cart. coord. in units 2 pi/alat)
               b(1) = (  1.000000  0.000000  1.000000 )  
               b(2) = ( -1.000000  1.000000  0.000000 )  
               b(3) = (  0.000000 -1.000000  1.000000 )  


     PseudoPot. # 1 for Na read from file:
     /home/s1333534/quantum_espresso/qe-6.1/pseudo/Na_pbe_v1.uspp.F.UPF
     MD5 check sum: 76a99c7e9422403d3e93cbc85ab7bccb
     Pseudo is Ultrasoft, Zval =  9.0
     Generated by new atomic code, or converted to UPF format
     Using radial grid of  819 points,  5 beta functions with: 
                l(1) =   0
                l(2) =   0
                l(3) =   1
                l(4) =   1
                l(5) =   2
     Q(r) pseudized with  8 coefficients,  rinner =    1.250   1.250   1.250
                                                       1.250   1.250

     atomic species   valence    mass     pseudopotential
        Na             9.00    22.99000     Na( 1.00)

     48 Sym. Ops., with inversion, found



   Cartesian axes

     site n.     atom                  positions (alat units)
         1           Na  tau(   1) = (   0.0000000   0.0000000   0.0000000  )

     number of k points=  2940  Marzari-Vanderbilt smearing, width (Ry)=  0.0200

     Number of k-points >= 100: set verbosity='high' to print them.

     Dense  grid:    23455 G-vectors     FFT dimensions: (  40,  40,  40)

     Smooth grid:     8391 G-vectors     FFT dimensions: (  27,  27,  27)

     Estimated max dynamical RAM per process >       2.19MB

     Estimated total allocated dynamical RAM >       8.75MB

     The potential is recalculated from file :
     ./_ph0/na.bcc.save/charge-density.dat

     Starting wfc are    5 atomic +    4 random wfc

     Band Structure Calculation
     Davidson diagonalization with overlap

     ethr =  1.11E-10,  avg # of iterations = 21.2

     total cpu time spent up to now is      253.9 secs

     End of band structure calculation

     Number of k-points >= 100: set verbosity='high' to print the bands.

     the Fermi energy is     1.7440 ev

     Writing output data file na.bcc.save

                                                                                

     bravais-lattice index     =            3
     lattice parameter (alat)  =       7.8581  a.u.
     unit-cell volume          =     242.6175 (a.u.)^3
     number of atoms/cell      =            1
     number of atomic types    =            1
     kinetic-energy cut-off    =      40.0000  Ry
     charge density cut-off    =     320.0000  Ry
     convergence threshold     =      1.0E-12
     beta                      =       0.7000
     number of iterations used =            4
     Exchange-correlation      = SLA  PW   PBE  PBE ( 1  4  3  4 0 0)


     celldm(1)=    7.85810  celldm(2)=    0.00000  celldm(3)=    0.00000
     celldm(4)=    0.00000  celldm(5)=    0.00000  celldm(6)=    0.00000

     crystal axes: (cart. coord. in units of alat)
               a(1) = (  0.5000  0.5000  0.5000 )  
               a(2) = ( -0.5000  0.5000  0.5000 )  
               a(3) = ( -0.5000 -0.5000  0.5000 )  

     reciprocal axes: (cart. coord. in units 2 pi/alat)
               b(1) = (  1.0000  0.0000  1.0000 )  
               b(2) = ( -1.0000  1.0000  0.0000 )  
               b(3) = (  0.0000 -1.0000  1.0000 )  


     Atoms inside the unit cell: 

     Cartesian axes

     site n.  atom      mass           positions (alat units)
        1     Na  22.9900   tau(    1) = (    0.00000    0.00000    0.00000  )

     Computing dynamical matrix for 
                    q = (  -0.1250000  -0.1250000   0.2500000 )

      2 Sym.Ops. (no q -> -q+G )


     G cutoff =  500.5241  (   5863 G-vectors)     FFT grid: ( 40, 40, 40)
     G cutoff =  250.2621  (   2098 G-vectors)  smooth grid: ( 27, 27, 27)

     number of k points=  2940  Marzari-Vanderbilt smearing, width (Ry)=  0.0200

     PseudoPot. # 1 for Na read from file:
     /home/s1333534/quantum_espresso/qe-6.1/pseudo/Na_pbe_v1.uspp.F.UPF
     MD5 check sum: 76a99c7e9422403d3e93cbc85ab7bccb
     Pseudo is Ultrasoft, Zval =  9.0
     Generated by new atomic code, or converted to UPF format
     Using radial grid of  819 points,  5 beta functions with: 
                l(1) =   0
                l(2) =   0
                l(3) =   1
                l(4) =   1
                l(5) =   2
     Q(r) pseudized with  8 coefficients,  rinner =    1.250   1.250   1.250
                                                       1.250   1.250

     Mode symmetry, C_s (m)     point group:


     Atomic displacements:
     There are   3 irreducible representations

     Representation     1      1 modes -A'  To be done

     Representation     2      1 modes -A'  To be done

     Representation     3      1 modes -A''  To be done



     Alpha used in Ewald sum =   2.8000
     PHONON       : 12m21.44s CPU    13m12.01s WALL



     Representation #  1 mode #   1

     Self-consistent Calculation

      iter #   1 total cpu time :   805.6 secs   av.it.:   5.6
      thresh= 1.000E-02 alpha_mix =  0.700 |ddv_scf|^2 =  6.985E-04

      iter #   2 total cpu time :   819.2 secs   av.it.:   6.7
      thresh= 2.643E-03 alpha_mix =  0.700 |ddv_scf|^2 =  3.090E-02

      iter #   3 total cpu time :   830.5 secs   av.it.:   4.8
      thresh= 1.000E-02 alpha_mix =  0.700 |ddv_scf|^2 =  2.868E-07

      iter #   4 total cpu time :   846.2 secs   av.it.:   8.1
      thresh= 5.355E-05 alpha_mix =  0.700 |ddv_scf|^2 =  8.011E-09

      iter #   5 total cpu time :   861.3 secs   av.it.:   7.8
      thresh= 8.950E-06 alpha_mix =  0.700 |ddv_scf|^2 =  6.698E-10

      iter #   6 total cpu time :   876.2 secs   av.it.:   7.7
      thresh= 2.588E-06 alpha_mix =  0.700 |ddv_scf|^2 =  9.186E-10

      iter #   7 total cpu time :   887.5 secs   av.it.:   5.3
      thresh= 3.031E-06 alpha_mix =  0.700 |ddv_scf|^2 =  6.946E-11

      iter #   8 total cpu time :   902.4 secs   av.it.:   7.5
      thresh= 8.334E-07 alpha_mix =  0.700 |ddv_scf|^2 =  6.528E-11

      iter #   9 total cpu time :   914.1 secs   av.it.:   5.5
      thresh= 8.079E-07 alpha_mix =  0.700 |ddv_scf|^2 =  4.094E-12

      iter #  10 total cpu time :   929.2 secs   av.it.:   7.4
      thresh= 2.023E-07 alpha_mix =  0.700 |ddv_scf|^2 =  2.579E-14

     End of self-consistent calculation

     Convergence has been achieved 


     Representation #  2 mode #   2

     Self-consistent Calculation

      iter #   1 total cpu time :   943.2 secs   av.it.:   5.7
      thresh= 1.000E-02 alpha_mix =  0.700 |ddv_scf|^2 =  6.194E-03

      iter #   2 total cpu time :   956.0 secs   av.it.:   6.1
      thresh= 7.870E-03 alpha_mix =  0.700 |ddv_scf|^2 =  2.787E-01

      iter #   3 total cpu time :   968.6 secs   av.it.:   5.9
      thresh= 1.000E-02 alpha_mix =  0.700 |ddv_scf|^2 =  2.973E-06

      iter #   4 total cpu time :   982.9 secs   av.it.:   7.3
      thresh= 1.724E-04 alpha_mix =  0.700 |ddv_scf|^2 =  2.557E-08

      iter #   5 total cpu time :   998.1 secs   av.it.:   7.8
      thresh= 1.599E-05 alpha_mix =  0.700 |ddv_scf|^2 =  2.474E-09

      iter #   6 total cpu time :  1012.9 secs   av.it.:   7.7
      thresh= 4.974E-06 alpha_mix =  0.700 |ddv_scf|^2 =  2.438E-10

      iter #   7 total cpu time :  1027.6 secs   av.it.:   7.6
      thresh= 1.561E-06 alpha_mix =  0.700 |ddv_scf|^2 =  2.862E-09

      iter #   8 total cpu time :  1039.6 secs   av.it.:   5.7
      thresh= 5.349E-06 alpha_mix =  0.700 |ddv_scf|^2 =  3.079E-12

      iter #   9 total cpu time :  1054.1 secs   av.it.:   7.0
      thresh= 1.755E-07 alpha_mix =  0.700 |ddv_scf|^2 =  1.455E-13

     End of self-consistent calculation

     Convergence has been achieved 


     Representation #  3 mode #   3

     Self-consistent Calculation

      iter #   1 total cpu time :  1067.7 secs   av.it.:   5.5
      thresh= 1.000E-02 alpha_mix =  0.700 |ddv_scf|^2 =  1.424E-05

      iter #   2 total cpu time :  1082.5 secs   av.it.:   7.6
      thresh= 3.774E-04 alpha_mix =  0.700 |ddv_scf|^2 =  2.340E-07

      iter #   3 total cpu time :  1098.1 secs   av.it.:   7.8
      thresh= 4.838E-05 alpha_mix =  0.700 |ddv_scf|^2 =  9.229E-09

      iter #   4 total cpu time :  1112.6 secs   av.it.:   7.5
      thresh= 9.607E-06 alpha_mix =  0.700 |ddv_scf|^2 =  4.284E-11

      iter #   5 total cpu time :  1127.6 secs   av.it.:   7.6
      thresh= 6.545E-07 alpha_mix =  0.700 |ddv_scf|^2 =  4.190E-14

     End of self-consistent calculation

     Convergence has been achieved 

     Number of q in the star =   24
     List of q in the star:
          1  -0.125000000  -0.125000000   0.250000000
          2  -0.125000000  -0.250000000   0.125000000
          3   0.125000000  -0.250000000   0.125000000
          4  -0.125000000   0.125000000  -0.250000000
          5  -0.125000000   0.250000000  -0.125000000
          6   0.125000000   0.125000000  -0.250000000
          7   0.125000000   0.250000000  -0.125000000
          8   0.125000000  -0.250000000  -0.125000000
          9  -0.250000000   0.125000000  -0.125000000
         10   0.250000000   0.125000000   0.125000000
         11   0.125000000   0.125000000   0.250000000
         12  -0.250000000  -0.125000000   0.125000000
         13   0.250000000  -0.125000000  -0.125000000
         14   0.125000000  -0.125000000  -0.250000000
         15   0.125000000  -0.125000000   0.250000000
         16   0.125000000   0.250000000   0.125000000
         17  -0.125000000  -0.125000000  -0.250000000
         18  -0.125000000   0.125000000   0.250000000
         19  -0.125000000   0.250000000   0.125000000
         20  -0.125000000  -0.250000000  -0.125000000
         21   0.250000000   0.125000000  -0.125000000
         22  -0.250000000   0.125000000   0.125000000
         23   0.250000000  -0.125000000   0.125000000
         24  -0.250000000  -0.125000000  -0.125000000

     Diagonalizing the dynamical matrix

     q = (   -0.125000000  -0.125000000   0.250000000 ) 

 **************************************************************************
     freq (    1) =       1.430702 [THz] =      47.723067 [cm-1]
     freq (    2) =       1.522967 [THz] =      50.800721 [cm-1]
     freq (    3) =       2.843874 [THz] =      94.861428 [cm-1]
 **************************************************************************

     Mode symmetry, C_s (m)     point group:

     freq (  1 -  1) =         47.7  [cm-1]   --> A'                 
     freq (  2 -  2) =         50.8  [cm-1]   --> A''                
     freq (  3 -  3) =         94.9  [cm-1]   --> A'                 

     Calculation of q =   -0.1250000  -0.2500000   0.3750000

   Info: using nr1, nr2, nr3 values from input

   Info: using nr1, nr2, nr3 values from input

     Parallelization info
     --------------------
     sticks:   dense  smooth     PW     G-vecs:    dense   smooth      PW
     Min         278     139     49                 5863     2097     430
     Max         279     140     50                 5865     2099     431
     Sum        1113     557    197                23455     8391    1721



     bravais-lattice index     =            3
     lattice parameter (alat)  =       7.8581  a.u.
     unit-cell volume          =     242.6175 (a.u.)^3
     number of atoms/cell      =            1
     number of atomic types    =            1
     number of electrons       =         9.00
     number of Kohn-Sham states=            9
     kinetic-energy cutoff     =      40.0000  Ry
     charge density cutoff     =     320.0000  Ry
     Exchange-correlation      = SLA  PW   PBE  PBE ( 1  4  3  4 0 0)

     celldm(1)=   7.858097  celldm(2)=   0.000000  celldm(3)=   0.000000
     celldm(4)=   0.000000  celldm(5)=   0.000000  celldm(6)=   0.000000

     crystal axes: (cart. coord. in units of alat)
               a(1) = (   0.500000   0.500000   0.500000 )  
               a(2) = (  -0.500000   0.500000   0.500000 )  
               a(3) = (  -0.500000  -0.500000   0.500000 )  

     reciprocal axes: (cart. coord. in units 2 pi/alat)
               b(1) = (  1.000000  0.000000  1.000000 )  
               b(2) = ( -1.000000  1.000000  0.000000 )  
               b(3) = (  0.000000 -1.000000  1.000000 )  


     PseudoPot. # 1 for Na read from file:
     /home/s1333534/quantum_espresso/qe-6.1/pseudo/Na_pbe_v1.uspp.F.UPF
     MD5 check sum: 76a99c7e9422403d3e93cbc85ab7bccb
     Pseudo is Ultrasoft, Zval =  9.0
     Generated by new atomic code, or converted to UPF format
     Using radial grid of  819 points,  5 beta functions with: 
                l(1) =   0
                l(2) =   0
                l(3) =   1
                l(4) =   1
                l(5) =   2
     Q(r) pseudized with  8 coefficients,  rinner =    1.250   1.250   1.250
                                                       1.250   1.250

     atomic species   valence    mass     pseudopotential
        Na             9.00    22.99000     Na( 1.00)

     48 Sym. Ops., with inversion, found



   Cartesian axes

     site n.     atom                  positions (alat units)
         1           Na  tau(   1) = (   0.0000000   0.0000000   0.0000000  )

     number of k points=  5488  Marzari-Vanderbilt smearing, width (Ry)=  0.0200

     Number of k-points >= 100: set verbosity='high' to print them.

     Dense  grid:    23455 G-vectors     FFT dimensions: (  40,  40,  40)

     Smooth grid:     8391 G-vectors     FFT dimensions: (  27,  27,  27)

     Estimated max dynamical RAM per process >       2.19MB

     Estimated total allocated dynamical RAM >       8.75MB

     The potential is recalculated from file :
     ./_ph0/na.bcc.save/charge-density.dat

     Starting wfc are    5 atomic +    4 random wfc

     Band Structure Calculation
     Davidson diagonalization with overlap

     ethr =  1.11E-10,  avg # of iterations = 21.0

     total cpu time spent up to now is      419.9 secs

     End of band structure calculation

     Number of k-points >= 100: set verbosity='high' to print the bands.

     the Fermi energy is     1.7440 ev

     Writing output data file na.bcc.save

                                                                                

     bravais-lattice index     =            3
     lattice parameter (alat)  =       7.8581  a.u.
     unit-cell volume          =     242.6175 (a.u.)^3
     number of atoms/cell      =            1
     number of atomic types    =            1
     kinetic-energy cut-off    =      40.0000  Ry
     charge density cut-off    =     320.0000  Ry
     convergence threshold     =      1.0E-12
     beta                      =       0.7000
     number of iterations used =            4
     Exchange-correlation      = SLA  PW   PBE  PBE ( 1  4  3  4 0 0)


     celldm(1)=    7.85810  celldm(2)=    0.00000  celldm(3)=    0.00000
     celldm(4)=    0.00000  celldm(5)=    0.00000  celldm(6)=    0.00000

     crystal axes: (cart. coord. in units of alat)
               a(1) = (  0.5000  0.5000  0.5000 )  
               a(2) = ( -0.5000  0.5000  0.5000 )  
               a(3) = ( -0.5000 -0.5000  0.5000 )  

     reciprocal axes: (cart. coord. in units 2 pi/alat)
               b(1) = (  1.0000  0.0000  1.0000 )  
               b(2) = ( -1.0000  1.0000  0.0000 )  
               b(3) = (  0.0000 -1.0000  1.0000 )  


     Atoms inside the unit cell: 

     Cartesian axes

     site n.  atom      mass           positions (alat units)
        1     Na  22.9900   tau(    1) = (    0.00000    0.00000    0.00000  )

     Computing dynamical matrix for 
                    q = (  -0.1250000  -0.2500000   0.3750000 )

     No symmetry!

     G cutoff =  500.5241  (   5863 G-vectors)     FFT grid: ( 40, 40, 40)
     G cutoff =  250.2621  (   2098 G-vectors)  smooth grid: ( 27, 27, 27)

     number of k points=  5488  Marzari-Vanderbilt smearing, width (Ry)=  0.0200

     PseudoPot. # 1 for Na read from file:
     /home/s1333534/quantum_espresso/qe-6.1/pseudo/Na_pbe_v1.uspp.F.UPF
     MD5 check sum: 76a99c7e9422403d3e93cbc85ab7bccb
     Pseudo is Ultrasoft, Zval =  9.0
     Generated by new atomic code, or converted to UPF format
     Using radial grid of  819 points,  5 beta functions with: 
                l(1) =   0
                l(2) =   0
                l(3) =   1
                l(4) =   1
                l(5) =   2
     Q(r) pseudized with  8 coefficients,  rinner =    1.250   1.250   1.250
                                                       1.250   1.250

     Mode symmetry, C_1 (1)     point group:


     Atomic displacements:
     There are   3 irreducible representations

     Representation     1      1 modes -A  To be done

     Representation     2      1 modes -A  To be done

     Representation     3      1 modes -A  To be done



     Alpha used in Ewald sum =   2.8000
     PHONON       : 20m22.98s CPU    21m47.08s WALL



     Representation #  1 mode #   1

     Self-consistent Calculation

      iter #   1 total cpu time :  1332.9 secs   av.it.:   5.7
      thresh= 1.000E-02 alpha_mix =  0.700 |ddv_scf|^2 =  2.158E-05

      iter #   2 total cpu time :  1362.1 secs   av.it.:   7.9
      thresh= 4.646E-04 alpha_mix =  0.700 |ddv_scf|^2 =  4.399E-05

      iter #   3 total cpu time :  1386.3 secs   av.it.:   6.1
      thresh= 6.632E-04 alpha_mix =  0.700 |ddv_scf|^2 =  4.248E-06

      iter #   4 total cpu time :  1413.2 secs   av.it.:   7.1
      thresh= 2.061E-04 alpha_mix =  0.700 |ddv_scf|^2 =  6.115E-09

      iter #   5 total cpu time :  1442.6 secs   av.it.:   7.9
      thresh= 7.820E-06 alpha_mix =  0.700 |ddv_scf|^2 =  1.458E-10

      iter #   6 total cpu time :  1472.0 secs   av.it.:   8.1
      thresh= 1.207E-06 alpha_mix =  0.700 |ddv_scf|^2 =  5.588E-12

      iter #   7 total cpu time :  1502.9 secs   av.it.:   8.4
      thresh= 2.364E-07 alpha_mix =  0.700 |ddv_scf|^2 =  6.471E-13

     End of self-consistent calculation

     Convergence has been achieved 


     Representation #  2 mode #   2

     Self-consistent Calculation

      iter #   1 total cpu time :  1529.8 secs   av.it.:   5.8
      thresh= 1.000E-02 alpha_mix =  0.700 |ddv_scf|^2 =  3.009E-04

      iter #   2 total cpu time :  1558.1 secs   av.it.:   7.1
      thresh= 1.735E-03 alpha_mix =  0.700 |ddv_scf|^2 =  1.717E-03

      iter #   3 total cpu time :  1581.3 secs   av.it.:   5.7
      thresh= 4.144E-03 alpha_mix =  0.700 |ddv_scf|^2 =  2.504E-07

      iter #   4 total cpu time :  1611.6 secs   av.it.:   8.2
      thresh= 5.004E-05 alpha_mix =  0.700 |ddv_scf|^2 =  8.618E-09

      iter #   5 total cpu time :  1641.6 secs   av.it.:   8.2
      thresh= 9.283E-06 alpha_mix =  0.700 |ddv_scf|^2 =  5.111E-10

      iter #   6 total cpu time :  1671.6 secs   av.it.:   8.3
      thresh= 2.261E-06 alpha_mix =  0.700 |ddv_scf|^2 =  2.327E-11

      iter #   7 total cpu time :  1701.0 secs   av.it.:   8.0
      thresh= 4.824E-07 alpha_mix =  0.700 |ddv_scf|^2 =  2.877E-12

      iter #   8 total cpu time :  1729.5 secs   av.it.:   7.6
      thresh= 1.696E-07 alpha_mix =  0.700 |ddv_scf|^2 =  9.790E-12

      iter #   9 total cpu time :  1754.3 secs   av.it.:   6.3
      thresh= 3.129E-07 alpha_mix =  0.700 |ddv_scf|^2 =  4.781E-14

     End of self-consistent calculation

     Convergence has been achieved 


     Representation #  3 mode #   3

     Self-consistent Calculation

      iter #   1 total cpu time :  1781.3 secs   av.it.:   5.8
      thresh= 1.000E-02 alpha_mix =  0.700 |ddv_scf|^2 =  2.921E-04

      iter #   2 total cpu time :  1808.8 secs   av.it.:   7.1
      thresh= 1.709E-03 alpha_mix =  0.700 |ddv_scf|^2 =  1.648E-03

      iter #   3 total cpu time :  1831.9 secs   av.it.:   5.7
      thresh= 4.060E-03 alpha_mix =  0.700 |ddv_scf|^2 =  2.074E-07

      iter #   4 total cpu time :  1862.4 secs   av.it.:   8.2
      thresh= 4.554E-05 alpha_mix =  0.700 |ddv_scf|^2 =  9.322E-09

      iter #   5 total cpu time :  1892.5 secs   av.it.:   8.3
      thresh= 9.655E-06 alpha_mix =  0.700 |ddv_scf|^2 =  3.682E-10

      iter #   6 total cpu time :  1922.3 secs   av.it.:   8.3
      thresh= 1.919E-06 alpha_mix =  0.700 |ddv_scf|^2 =  2.516E-11

      iter #   7 total cpu time :  1951.7 secs   av.it.:   8.0
      thresh= 5.016E-07 alpha_mix =  0.700 |ddv_scf|^2 =  1.244E-12

      iter #   8 total cpu time :  1980.6 secs   av.it.:   7.3
      thresh= 1.115E-07 alpha_mix =  0.700 |ddv_scf|^2 =  3.779E-12

      iter #   9 total cpu time :  2005.2 secs   av.it.:   6.2
      thresh= 1.944E-07 alpha_mix =  0.700 |ddv_scf|^2 =  1.077E-13

     End of self-consistent calculation

     Convergence has been achieved 

     Number of q in the star =   48
     List of q in the star:
          1  -0.125000000  -0.250000000   0.375000000
          2  -0.250000000  -0.125000000   0.375000000
          3  -0.125000000  -0.375000000   0.250000000
          4   0.125000000  -0.375000000   0.250000000
          5  -0.125000000   0.250000000  -0.375000000
          6  -0.125000000   0.375000000  -0.250000000
          7   0.125000000   0.250000000  -0.375000000
          8   0.125000000   0.375000000  -0.250000000
          9   0.250000000  -0.375000000  -0.125000000
         10  -0.375000000   0.125000000  -0.250000000
         11   0.375000000   0.125000000   0.250000000
         12   0.250000000   0.125000000   0.375000000
         13  -0.375000000  -0.125000000   0.250000000
         14   0.375000000  -0.125000000  -0.250000000
         15   0.125000000  -0.250000000  -0.375000000
         16   0.250000000  -0.125000000  -0.375000000
         17  -0.250000000   0.125000000  -0.375000000
         18  -0.375000000  -0.250000000   0.125000000
         19  -0.375000000   0.250000000  -0.125000000
         20   0.375000000   0.250000000   0.125000000
         21   0.250000000  -0.125000000   0.375000000
         22  -0.250000000   0.375000000  -0.125000000
         23   0.125000000  -0.375000000  -0.250000000
         24   0.125000000   0.375000000   0.250000000
         25   0.250000000   0.125000000  -0.375000000
         26  -0.125000000  -0.250000000  -0.375000000
         27  -0.250000000   0.125000000   0.375000000
         28  -0.125000000   0.375000000   0.250000000
         29  -0.125000000   0.250000000   0.375000000
         30   0.125000000  -0.250000000   0.375000000
         31  -0.125000000  -0.375000000  -0.250000000
         32   0.125000000   0.250000000   0.375000000
         33   0.375000000  -0.250000000  -0.125000000
         34   0.250000000   0.375000000   0.125000000
         35  -0.250000000  -0.375000000   0.125000000
         36   0.375000000   0.250000000  -0.125000000
         37  -0.375000000   0.250000000   0.125000000
         38   0.375000000  -0.250000000   0.125000000
         39  -0.375000000  -0.250000000  -0.125000000
         40  -0.250000000  -0.125000000  -0.375000000
         41   0.250000000  -0.375000000   0.125000000
         42  -0.250000000  -0.375000000  -0.125000000
         43   0.250000000   0.375000000  -0.125000000
         44  -0.250000000   0.375000000   0.125000000
         45  -0.375000000   0.125000000   0.250000000
         46  -0.375000000  -0.125000000  -0.250000000
         47   0.375000000  -0.125000000   0.250000000
         48   0.375000000   0.125000000  -0.250000000

     Diagonalizing the dynamical matrix

     q = (   -0.125000000  -0.250000000   0.375000000 ) 

 **************************************************************************
     freq (    1) =       1.901289 [THz] =      63.420182 [cm-1]
     freq (    2) =       2.417597 [THz] =      80.642349 [cm-1]
     freq (    3) =       3.534979 [THz] =     117.914211 [cm-1]
 **************************************************************************

     Mode symmetry, C_1 (1)     point group:

     freq (  1 -  1) =         63.4  [cm-1]   --> A                  
     freq (  2 -  2) =         80.6  [cm-1]   --> A                  
     freq (  3 -  3) =        117.9  [cm-1]   --> A                  

     Calculation of q =   -0.1250000   0.6250000  -0.5000000

   Info: using nr1, nr2, nr3 values from input

   Info: using nr1, nr2, nr3 values from input

     Parallelization info
     --------------------
     sticks:   dense  smooth     PW     G-vecs:    dense   smooth      PW
     Min         278     139     51                 5863     2097     466
     Max         279     140     52                 5866     2099     467
     Sum        1113     557    205                23455     8391    1865



     bravais-lattice index     =            3
     lattice parameter (alat)  =       7.8581  a.u.
     unit-cell volume          =     242.6175 (a.u.)^3
     number of atoms/cell      =            1
     number of atomic types    =            1
     number of electrons       =         9.00
     number of Kohn-Sham states=            9
     kinetic-energy cutoff     =      40.0000  Ry
     charge density cutoff     =     320.0000  Ry
     Exchange-correlation      = SLA  PW   PBE  PBE ( 1  4  3  4 0 0)

     celldm(1)=   7.858097  celldm(2)=   0.000000  celldm(3)=   0.000000
     celldm(4)=   0.000000  celldm(5)=   0.000000  celldm(6)=   0.000000

     crystal axes: (cart. coord. in units of alat)
               a(1) = (   0.500000   0.500000   0.500000 )  
               a(2) = (  -0.500000   0.500000   0.500000 )  
               a(3) = (  -0.500000  -0.500000   0.500000 )  

     reciprocal axes: (cart. coord. in units 2 pi/alat)
               b(1) = (  1.000000  0.000000  1.000000 )  
               b(2) = ( -1.000000  1.000000  0.000000 )  
               b(3) = (  0.000000 -1.000000  1.000000 )  


     PseudoPot. # 1 for Na read from file:
     /home/s1333534/quantum_espresso/qe-6.1/pseudo/Na_pbe_v1.uspp.F.UPF
     MD5 check sum: 76a99c7e9422403d3e93cbc85ab7bccb
     Pseudo is Ultrasoft, Zval =  9.0
     Generated by new atomic code, or converted to UPF format
     Using radial grid of  819 points,  5 beta functions with: 
                l(1) =   0
                l(2) =   0
                l(3) =   1
                l(4) =   1
                l(5) =   2
     Q(r) pseudized with  8 coefficients,  rinner =    1.250   1.250   1.250
                                                       1.250   1.250

     atomic species   valence    mass     pseudopotential
        Na             9.00    22.99000     Na( 1.00)

     48 Sym. Ops., with inversion, found



   Cartesian axes

     site n.     atom                  positions (alat units)
         1           Na  tau(   1) = (   0.0000000   0.0000000   0.0000000  )

     number of k points=  5488  Marzari-Vanderbilt smearing, width (Ry)=  0.0200

     Number of k-points >= 100: set verbosity='high' to print them.

     Dense  grid:    23455 G-vectors     FFT dimensions: (  40,  40,  40)

     Smooth grid:     8391 G-vectors     FFT dimensions: (  27,  27,  27)

     Estimated max dynamical RAM per process >       2.19MB

     Estimated total allocated dynamical RAM >       8.75MB

     The potential is recalculated from file :
     ./_ph0/na.bcc.save/charge-density.dat

     Starting wfc are    5 atomic +    4 random wfc

     Band Structure Calculation
     Davidson diagonalization with overlap

     ethr =  1.11E-10,  avg # of iterations = 21.0

     total cpu time spent up to now is      585.5 secs

     End of band structure calculation

     Number of k-points >= 100: set verbosity='high' to print the bands.

     the Fermi energy is     1.7440 ev

     Writing output data file na.bcc.save

                                                                                

     bravais-lattice index     =            3
     lattice parameter (alat)  =       7.8581  a.u.
     unit-cell volume          =     242.6175 (a.u.)^3
     number of atoms/cell      =            1
     number of atomic types    =            1
     kinetic-energy cut-off    =      40.0000  Ry
     charge density cut-off    =     320.0000  Ry
     convergence threshold     =      1.0E-12
     beta                      =       0.7000
     number of iterations used =            4
     Exchange-correlation      = SLA  PW   PBE  PBE ( 1  4  3  4 0 0)


     celldm(1)=    7.85810  celldm(2)=    0.00000  celldm(3)=    0.00000
     celldm(4)=    0.00000  celldm(5)=    0.00000  celldm(6)=    0.00000

     crystal axes: (cart. coord. in units of alat)
               a(1) = (  0.5000  0.5000  0.5000 )  
               a(2) = ( -0.5000  0.5000  0.5000 )  
               a(3) = ( -0.5000 -0.5000  0.5000 )  

[...]
     Exchange-correlation      = SLA  PW   PBE  PBE ( 1  4  3  4 0 0)


     celldm(1)=    7.85810  celldm(2)=    0.00000  celldm(3)=    0.00000
     celldm(4)=    0.00000  celldm(5)=    0.00000  celldm(6)=    0.00000

     crystal axes: (cart. coord. in units of alat)
               a(1) = (  0.5000  0.5000  0.5000 )  
               a(2) = ( -0.5000  0.5000  0.5000 )  
               a(3) = ( -0.5000 -0.5000  0.5000 )  

     reciprocal axes: (cart. coord. in units 2 pi/alat)
               b(1) = (  1.0000  0.0000  1.0000 )  
               b(2) = ( -1.0000  1.0000  0.0000 )  
               b(3) = (  0.0000 -1.0000  1.0000 )  


     Atoms inside the unit cell: 

     Cartesian axes

     site n.  atom      mass           positions (alat units)
        1     Na  22.9900   tau(    1) = (    0.00000    0.00000    0.00000  )

     Computing dynamical matrix for 
                    q = (   0.0000000   0.8750000  -0.1250000 )

      4 Sym.Ops. (no q -> -q+G )


     G cutoff =  500.5241  (   5866 G-vectors)     FFT grid: ( 40, 40, 40)
     G cutoff =  250.2621  (   2098 G-vectors)  smooth grid: ( 27, 27, 27)

     number of k points=  1568  Marzari-Vanderbilt smearing, width (Ry)=  0.0200

     PseudoPot. # 1 for Na read from file:
     /home/s1333534/quantum_espresso/qe-6.1/pseudo/Na_pbe_v1.uspp.F.UPF
     MD5 check sum: 76a99c7e9422403d3e93cbc85ab7bccb
     Pseudo is Ultrasoft, Zval =  9.0
     Generated by new atomic code, or converted to UPF format
     Using radial grid of  819 points,  5 beta functions with: 
                l(1) =   0
                l(2) =   0
                l(3) =   1
                l(4) =   1
                l(5) =   2
     Q(r) pseudized with  8 coefficients,  rinner =    1.250   1.250   1.250
                                                       1.250   1.250

     Mode symmetry, C_2v (mm2)  point group:


     Atomic displacements:
     There are   3 irreducible representations

     Representation     1      1 modes -A_1  D_1  S_1  To be done

     Representation     2      1 modes -B_1  D_3  S_3  To be done

     Representation     3      1 modes -B_2  D_4  S_4  To be done



     Alpha used in Ewald sum =   2.8000
     PHONON       :     2h10m CPU        2h20m WALL



     Representation #  1 mode #   1

     Self-consistent Calculation

      iter #   1 total cpu time :  8442.5 secs   av.it.:   5.7
      thresh= 1.000E-02 alpha_mix =  0.700 |ddv_scf|^2 =  2.538E-05

      iter #   2 total cpu time :  8450.8 secs   av.it.:   7.7
      thresh= 5.038E-04 alpha_mix =  0.700 |ddv_scf|^2 =  8.439E-07

      iter #   3 total cpu time :  8459.0 secs   av.it.:   7.6
      thresh= 9.186E-05 alpha_mix =  0.700 |ddv_scf|^2 =  2.990E-08

      iter #   4 total cpu time :  8467.6 secs   av.it.:   8.0
      thresh= 1.729E-05 alpha_mix =  0.700 |ddv_scf|^2 =  1.531E-09

      iter #   5 total cpu time :  8476.8 secs   av.it.:   8.1
      thresh= 3.913E-06 alpha_mix =  0.700 |ddv_scf|^2 =  1.035E-10

      iter #   6 total cpu time :  8485.3 secs   av.it.:   7.9
      thresh= 1.017E-06 alpha_mix =  0.700 |ddv_scf|^2 =  7.815E-13

     End of self-consistent calculation

     Convergence has been achieved 


     Representation #  2 mode #   2

     Self-consistent Calculation

      iter #   1 total cpu time :  8492.9 secs   av.it.:   5.5
      thresh= 1.000E-02 alpha_mix =  0.700 |ddv_scf|^2 =  2.310E-05

      iter #   2 total cpu time :  8500.9 secs   av.it.:   7.5
      thresh= 4.806E-04 alpha_mix =  0.700 |ddv_scf|^2 =  3.251E-07

      iter #   3 total cpu time :  8509.0 secs   av.it.:   7.5
      thresh= 5.702E-05 alpha_mix =  0.700 |ddv_scf|^2 =  2.976E-08

      iter #   4 total cpu time :  8517.2 secs   av.it.:   7.5
      thresh= 1.725E-05 alpha_mix =  0.700 |ddv_scf|^2 =  1.209E-10

      iter #   5 total cpu time :  8525.2 secs   av.it.:   7.4
      thresh= 1.100E-06 alpha_mix =  0.700 |ddv_scf|^2 =  4.994E-14

     End of self-consistent calculation

     Convergence has been achieved 


     Representation #  3 mode #   3

     Self-consistent Calculation

      iter #   1 total cpu time :  8532.9 secs   av.it.:   5.6
      thresh= 1.000E-02 alpha_mix =  0.700 |ddv_scf|^2 =  3.143E-05

      iter #   2 total cpu time :  8541.0 secs   av.it.:   7.5
      thresh= 5.606E-04 alpha_mix =  0.700 |ddv_scf|^2 =  1.385E-06

      iter #   3 total cpu time :  8548.9 secs   av.it.:   7.3
      thresh= 1.177E-04 alpha_mix =  0.700 |ddv_scf|^2 =  3.557E-08

      iter #   4 total cpu time :  8557.2 secs   av.it.:   7.6
      thresh= 1.886E-05 alpha_mix =  0.700 |ddv_scf|^2 =  1.083E-09

      iter #   5 total cpu time :  8565.1 secs   av.it.:   7.3
      thresh= 3.291E-06 alpha_mix =  0.700 |ddv_scf|^2 =  2.875E-12

      iter #   6 total cpu time :  8573.5 secs   av.it.:   7.8
      thresh= 1.696E-07 alpha_mix =  0.700 |ddv_scf|^2 =  4.135E-15

     End of self-consistent calculation

     Convergence has been achieved 

     Number of q in the star =   12
     List of q in the star:
          1   0.000000000   0.875000000  -0.125000000
          2   0.000000000  -0.875000000  -0.125000000
          3   0.875000000   0.000000000  -0.125000000
          4  -0.875000000   0.000000000  -0.125000000
          5   0.125000000   0.000000000  -0.875000000
          6   0.125000000   0.875000000   0.000000000
          7   0.000000000   0.875000000   0.125000000
          8   0.875000000   0.000000000   0.125000000
          9   0.125000000  -0.875000000   0.000000000
         10  -0.125000000  -0.875000000   0.000000000
         11   0.875000000  -0.125000000   0.000000000
         12   0.000000000  -0.875000000   0.125000000

     Diagonalizing the dynamical matrix

     q = (    0.000000000   0.875000000  -0.125000000 ) 

 **************************************************************************
     freq (    1) =       3.679241 [THz] =     122.726278 [cm-1]
     freq (    2) =       3.951240 [THz] =     131.799180 [cm-1]
     freq (    3) =       4.229977 [THz] =     141.096843 [cm-1]
 **************************************************************************

     Mode symmetry, C_2v (mm2)  point group:

     freq (  1 -  1) =        122.7  [cm-1]   --> B_1  D_3  S_3      
     freq (  2 -  2) =        131.8  [cm-1]   --> B_2  D_4  S_4      
     freq (  3 -  3) =        141.1  [cm-1]   --> A_1  D_1  S_1      

     Calculation of q =    0.0000000   0.0000000  -1.0000000

   Info: using nr1, nr2, nr3 values from input

   Info: using nr1, nr2, nr3 values from input

     Parallelization info
     --------------------
     sticks:   dense  smooth     PW     G-vecs:    dense   smooth      PW
     Min         278     139     51                 5863     2097     466
     Max         279     140     52                 5866     2099     467
     Sum        1113     557    205                23455     8391    1865



     bravais-lattice index     =            3
     lattice parameter (alat)  =       7.8581  a.u.
     unit-cell volume          =     242.6175 (a.u.)^3
     number of atoms/cell      =            1
     number of atomic types    =            1
     number of electrons       =         9.00
     number of Kohn-Sham states=            9
     kinetic-energy cutoff     =      40.0000  Ry
     charge density cutoff     =     320.0000  Ry
     Exchange-correlation      = SLA  PW   PBE  PBE ( 1  4  3  4 0 0)

     celldm(1)=   7.858097  celldm(2)=   0.000000  celldm(3)=   0.000000
     celldm(4)=   0.000000  celldm(5)=   0.000000  celldm(6)=   0.000000

     crystal axes: (cart. coord. in units of alat)
               a(1) = (   0.500000   0.500000   0.500000 )  
               a(2) = (  -0.500000   0.500000   0.500000 )  
               a(3) = (  -0.500000  -0.500000   0.500000 )  

     reciprocal axes: (cart. coord. in units 2 pi/alat)
               b(1) = (  1.000000  0.000000  1.000000 )  
               b(2) = ( -1.000000  1.000000  0.000000 )  
               b(3) = (  0.000000 -1.000000  1.000000 )  


     PseudoPot. # 1 for Na read from file:
     /home/s1333534/quantum_espresso/qe-6.1/pseudo/Na_pbe_v1.uspp.F.UPF
     MD5 check sum: 76a99c7e9422403d3e93cbc85ab7bccb
     Pseudo is Ultrasoft, Zval =  9.0
     Generated by new atomic code, or converted to UPF format
     Using radial grid of  819 points,  5 beta functions with: 
                l(1) =   0
                l(2) =   0
                l(3) =   1
                l(4) =   1
                l(5) =   2
     Q(r) pseudized with  8 coefficients,  rinner =    1.250   1.250   1.250
                                                       1.250   1.250

     atomic species   valence    mass     pseudopotential
        Na             9.00    22.99000     Na( 1.00)

     48 Sym. Ops., with inversion, found



   Cartesian axes

     site n.     atom                  positions (alat units)
         1           Na  tau(   1) = (   0.0000000   0.0000000   0.0000000  )

     number of k points=   200  Marzari-Vanderbilt smearing, width (Ry)=  0.0200

     Number of k-points >= 100: set verbosity='high' to print them.

     Dense  grid:    23455 G-vectors     FFT dimensions: (  40,  40,  40)

     Smooth grid:     8391 G-vectors     FFT dimensions: (  27,  27,  27)

     Estimated max dynamical RAM per process >       2.19MB

     Estimated total allocated dynamical RAM >       8.75MB

     The potential is recalculated from file :
     ./_ph0/na.bcc.save/charge-density.dat

     Starting wfc are    5 atomic +    4 random wfc

     Band Structure Calculation
     Davidson diagonalization with overlap

     ethr =  1.11E-10,  avg # of iterations = 21.4

     total cpu time spent up to now is     1922.1 secs

     End of band structure calculation

     Number of k-points >= 100: set verbosity='high' to print the bands.

     the Fermi energy is     1.7440 ev

     Writing output data file na.bcc.save

                                                                                

     bravais-lattice index     =            3
     lattice parameter (alat)  =       7.8581  a.u.
     unit-cell volume          =     242.6175 (a.u.)^3
     number of atoms/cell      =            1
     number of atomic types    =            1
     kinetic-energy cut-off    =      40.0000  Ry
     charge density cut-off    =     320.0000  Ry
     convergence threshold     =      1.0E-12
     beta                      =       0.7000
     number of iterations used =            4
     Exchange-correlation      = SLA  PW   PBE  PBE ( 1  4  3  4 0 0)


     celldm(1)=    7.85810  celldm(2)=    0.00000  celldm(3)=    0.00000
     celldm(4)=    0.00000  celldm(5)=    0.00000  celldm(6)=    0.00000

     crystal axes: (cart. coord. in units of alat)
               a(1) = (  0.5000  0.5000  0.5000 )  
               a(2) = ( -0.5000  0.5000  0.5000 )  
               a(3) = ( -0.5000 -0.5000  0.5000 )  

     reciprocal axes: (cart. coord. in units 2 pi/alat)
               b(1) = (  1.0000  0.0000  1.0000 )  
               b(2) = ( -1.0000  1.0000  0.0000 )  
               b(3) = (  0.0000 -1.0000  1.0000 )  


     Atoms inside the unit cell: 

     Cartesian axes

     site n.  atom      mass           positions (alat units)
        1     Na  22.9900   tau(    1) = (    0.00000    0.00000    0.00000  )

     Computing dynamical matrix for 
                    q = (   0.0000000   0.0000000  -1.0000000 )

     49 Sym.Ops. (with q -> -q+G )


     G cutoff =  500.5241  (   5866 G-vectors)     FFT grid: ( 40, 40, 40)
     G cutoff =  250.2621  (   2098 G-vectors)  smooth grid: ( 27, 27, 27)

     number of k points=   200  Marzari-Vanderbilt smearing, width (Ry)=  0.0200

     PseudoPot. # 1 for Na read from file:
     /home/s1333534/quantum_espresso/qe-6.1/pseudo/Na_pbe_v1.uspp.F.UPF
     MD5 check sum: 76a99c7e9422403d3e93cbc85ab7bccb
     Pseudo is Ultrasoft, Zval =  9.0
     Generated by new atomic code, or converted to UPF format
     Using radial grid of  819 points,  5 beta functions with: 
                l(1) =   0
                l(2) =   0
                l(3) =   1
                l(4) =   1
                l(5) =   2
     Q(r) pseudized with  8 coefficients,  rinner =    1.250   1.250   1.250
                                                       1.250   1.250

     Mode symmetry, O_h (m-3m)  point group:


     Atomic displacements:
     There are   1 irreducible representations

     Representation     1      3 modes -T_1u G_15  G_4-  To be done



     Alpha used in Ewald sum =   2.8000
     PHONON       :     2h12m CPU        2h23m WALL



     Representation #  1 modes #   1  2  3

     Self-consistent Calculation

      iter #   1 total cpu time :  8583.9 secs   av.it.:   5.7
      thresh= 1.000E-02 alpha_mix =  0.700 |ddv_scf|^2 =  2.731E-06

      iter #   2 total cpu time :  8587.6 secs   av.it.:   8.4
      thresh= 1.653E-04 alpha_mix =  0.700 |ddv_scf|^2 =  4.177E-08

      iter #   3 total cpu time :  8591.2 secs   av.it.:   8.2
      thresh= 2.044E-05 alpha_mix =  0.700 |ddv_scf|^2 =  3.528E-09

      iter #   4 total cpu time :  8594.8 secs   av.it.:   8.3
      thresh= 5.940E-06 alpha_mix =  0.700 |ddv_scf|^2 =  1.372E-11

      iter #   5 total cpu time :  8598.5 secs   av.it.:   8.2
      thresh= 3.704E-07 alpha_mix =  0.700 |ddv_scf|^2 =  4.569E-15

     End of self-consistent calculation

     Convergence has been achieved 

     Number of q in the star =    1
     List of q in the star:
          1   0.000000000   0.000000000  -1.000000000

     Diagonalizing the dynamical matrix

     q = (    0.000000000   0.000000000  -1.000000000 ) 

 **************************************************************************
     freq (    1) =       3.849500 [THz] =     128.405511 [cm-1]
     freq (    2) =       3.849500 [THz] =     128.405511 [cm-1]
     freq (    3) =       3.849500 [THz] =     128.405511 [cm-1]
 **************************************************************************

     Mode symmetry, O_h (m-3m)  point group:

     freq (  1 -  3) =        128.4  [cm-1]   --> T_1u G_15  G_4-    

     init_run     :      5.76s CPU      5.80s WALL (      28 calls)
     electrons    :   1769.25s CPU   1871.55s WALL (      28 calls)

     Called by init_run:
     wfcinit      :      0.00s CPU      0.00s WALL (      28 calls)
     potinit      :      0.43s CPU      0.44s WALL (      28 calls)

     Called by electrons:
     c_bands      :   1768.95s CPU   1871.25s WALL (      28 calls)
     v_of_rho     :      0.34s CPU      0.34s WALL (      29 calls)
     newd         :      0.41s CPU      0.42s WALL (      29 calls)

     Called by c_bands:
     init_us_2    :     97.64s CPU     95.37s WALL (  902301 calls)
     cegterg      :   1630.55s CPU   1721.78s WALL (   88769 calls)

     Called by sum_band:

     Called by *egterg:
     h_psi        :   5491.06s CPU   5855.06s WALL ( 7662740 calls)
     s_psi        :    130.30s CPU    155.80s WALL (14479051 calls)
     g_psi        :     10.32s CPU     12.48s WALL ( 1331096 calls)
     cdiaghg      :    278.73s CPU    284.64s WALL ( 1394262 calls)

     Called by h_psi:
     h_psi:pot    :   5464.32s CPU   5824.58s WALL ( 7662740 calls)
     h_psi:calbec :    119.76s CPU    131.90s WALL ( 7662740 calls)
     vloc_psi     :   5224.99s CPU   5575.51s WALL ( 7662740 calls)
     add_vuspsi   :    102.30s CPU     94.52s WALL ( 7662740 calls)

     General routines
     calbec       :    264.61s CPU    258.10s WALL (16034160 calls)
     fft          :      3.12s CPU      3.29s WALL (    8917 calls)
     ffts         :      9.88s CPU     10.49s WALL (   97067 calls)
     fftw         :   5955.66s CPU   6089.22s WALL (73834161 calls)
     interpolate  :      0.59s CPU      0.68s WALL (    1237 calls)
     davcio       :     46.64s CPU     98.01s WALL ( 3408363 calls)

     Parallel routines
     fft_scatter  :    888.91s CPU   1196.07s WALL (73940145 calls)

     PHONON       :     2h13m CPU        2h23m WALL

     INITIALIZATION: 
     phq_setup    :      1.03s CPU      1.04s WALL (      29 calls)
     phq_init     :    127.78s CPU    134.25s WALL (      29 calls)

     phq_init     :    127.78s CPU    134.25s WALL (      29 calls)
     init_vloc    :      0.09s CPU      0.09s WALL (      29 calls)
     init_us_1    :      2.87s CPU      2.88s WALL (      29 calls)
     newd         :      0.41s CPU      0.42s WALL (      29 calls)
     dvanqq       :      1.68s CPU      1.69s WALL (      29 calls)
     drho         :    102.87s CPU    108.25s WALL (      29 calls)

     DYNAMICAL MATRIX:
     dynmat0      :     13.80s CPU     14.26s WALL (      29 calls)
     phqscf       :   6044.28s CPU   6538.67s WALL (      29 calls)
     dynmatrix    :      0.03s CPU      0.04s WALL (      29 calls)

     phqscf       :   6044.28s CPU   6538.67s WALL (      29 calls)
     solve_linter :   6020.42s CPU   6513.73s WALL (      76 calls)
     drhodv       :     23.78s CPU     24.82s WALL (      76 calls)

     dynmat0      :     13.80s CPU     14.26s WALL (      29 calls)
     dynmat_us    :     13.75s CPU     14.21s WALL (      29 calls)
     d2ionq       :      0.03s CPU      0.03s WALL (      29 calls)

     dynmat_us    :     13.75s CPU     14.21s WALL (      29 calls)
     addusdynmat  :      0.00s CPU      0.00s WALL (      29 calls)

     phqscf       :   6044.28s CPU   6538.67s WALL (      29 calls)
     solve_linter :   6020.42s CPU   6513.73s WALL (      76 calls)

     solve_linter :   6020.42s CPU   6513.73s WALL (      76 calls)
     dvqpsi_us    :    175.05s CPU    186.23s WALL (   95049 calls)
     ortho        :     44.43s CPU     52.94s WALL (  636602 calls)
     cgsolve      :   4667.26s CPU   4997.02s WALL (  636602 calls)
     incdrhoscf   :    522.02s CPU    572.50s WALL (  636602 calls)
     addusddens   :     12.87s CPU     12.92s WALL (     567 calls)
     vpsifft      :    425.04s CPU    465.20s WALL (  541553 calls)
     dv_of_drho   :      3.84s CPU      3.95s WALL (     546 calls)
     mix_pot      :      0.49s CPU      0.99s WALL (     491 calls)
     ef_shift     :      0.01s CPU      0.02s WALL (       6 calls)
     localdos     :      0.08s CPU      0.08s WALL (       1 calls)
     psymdvscf    :      8.47s CPU      8.61s WALL (     423 calls)
     newdq        :     11.51s CPU     11.57s WALL (     491 calls)
     adddvscf     :     21.01s CPU     16.39s WALL (  541553 calls)
     drhodvus     :      0.02s CPU      0.03s WALL (      76 calls)

     dvqpsi_us    :    175.05s CPU    186.23s WALL (   95049 calls)
     dvqpsi_us_on :     22.74s CPU     22.55s WALL (   95049 calls)

     cgsolve      :   4667.26s CPU   4997.02s WALL (  636602 calls)
     ch_psi       :   4577.71s CPU   4910.09s WALL ( 6179709 calls)

     ch_psi       :   4577.71s CPU   4910.09s WALL ( 6179709 calls)
     h_psi        :   5491.06s CPU   5855.06s WALL ( 7662740 calls)
     last         :    258.46s CPU    287.64s WALL ( 6179709 calls)

     h_psi        :   5491.06s CPU   5855.06s WALL ( 7662740 calls)
     add_vuspsi   :    102.30s CPU     94.52s WALL ( 7662740 calls)

     incdrhoscf   :    522.02s CPU    572.50s WALL (  636602 calls)
     addusdbec    :     17.68s CPU     22.77s WALL (  731651 calls)

     drhodvus     :      0.02s CPU      0.03s WALL (      76 calls)

      General routines
     calbec       :    264.61s CPU    258.10s WALL (16034160 calls)
     fft          :      3.12s CPU      3.29s WALL (    8917 calls)
     ffts         :      9.88s CPU     10.49s WALL (   97067 calls)
     fftw         :   5955.66s CPU   6089.22s WALL (73834161 calls)
     davcio       :     46.64s CPU     98.01s WALL ( 3408363 calls)
     write_rec    :      0.42s CPU      1.52s WALL (     567 calls)


     PHONON       :     2h13m CPU        2h23m WALL


   This run was terminated on:  13:58:17  21Dec2017            

=------------------------------------------------------------------------------=
   JOB DONE.
=------------------------------------------------------------------------------=
