
     Program PWSCF v.6.1 (svn rev. 13369) starts on 13Feb2018 at 17:51:44 

     This program is part of the open-source Quantum ESPRESSO suite
     for quantum simulation of materials; please cite
         "P. Giannozzi et al., J. Phys.:Condens. Matter 21 395502 (2009);
          URL http://www.quantum-espresso.org", 
     in publications or presentations arising from this work. More details at
     http://www.quantum-espresso.org/quote

     Parallel version (MPI), running on    64 processors
     K-points division:     npool     =       4
     R & G space division:  proc/nbgrp/npool/nimage =      16
     Waiting for input...
     Reading input from standard input

     Current dimensions of program PWSCF are:
     Max number of different atomic species (ntypx) = 10
     Max number of k-points (npk) =  80000
     Max angular momentum in pseudopotentials (lmaxx) =  3

     Subspace diagonalization in iterative solution of the eigenvalue problem:
     a serial algorithm will be used


     Parallelization info
     --------------------
     sticks:   dense  smooth     PW     G-vecs:    dense   smooth      PW
     Min          60      30     10                 1255      444      87
     Max          62      32     11                 1257      446      90
     Sum         967     499    163                20107     7119    1411



     bravais-lattice index     =            2
     lattice parameter (alat)  =       9.4000  a.u.
     unit-cell volume          =     207.6460 (a.u.)^3
     number of atoms/cell      =            1
     number of atomic types    =            1
     number of electrons       =         9.00
     number of Kohn-Sham states=            9
     kinetic-energy cutoff     =      40.0000  Ry
     charge density cutoff     =     320.0000  Ry
     convergence threshold     =      1.0E-10
     mixing beta               =       0.7000
     number of iterations used =            8  plain     mixing
     Exchange-correlation      = SLA  PW   PBE  PBE ( 1  4  3  4 0 0)

     celldm(1)=   9.400000  celldm(2)=   0.000000  celldm(3)=   0.000000
     celldm(4)=   0.000000  celldm(5)=   0.000000  celldm(6)=   0.000000

     crystal axes: (cart. coord. in units of alat)
               a(1) = (  -0.500000   0.000000   0.500000 )  
               a(2) = (   0.000000   0.500000   0.500000 )  
               a(3) = (  -0.500000   0.500000   0.000000 )  

     reciprocal axes: (cart. coord. in units 2 pi/alat)
               b(1) = ( -1.000000 -1.000000  1.000000 )  
               b(2) = (  1.000000  1.000000  1.000000 )  
               b(3) = ( -1.000000  1.000000 -1.000000 )  


     PseudoPot. # 1 for Na read from file:
     /home/s1333534/quantum_espresso/qe-6.1/pseudo/Na_pbe_v1.uspp.F.UPF
     MD5 check sum: 76a99c7e9422403d3e93cbc85ab7bccb
     Pseudo is Ultrasoft, Zval =  9.0
     Generated by new atomic code, or converted to UPF format
     Using radial grid of  819 points,  5 beta functions with: 
                l(1) =   0
                l(2) =   0
                l(3) =   1
                l(4) =   1
                l(5) =   2
     Q(r) pseudized with  8 coefficients,  rinner =    1.250   1.250   1.250
                                                       1.250   1.250

     atomic species   valence    mass     pseudopotential
        Na             9.00    22.99000     Na( 1.00)

     48 Sym. Ops., with inversion, found



   Cartesian axes

     site n.     atom                  positions (alat units)
         1           Na  tau(   1) = (   0.0000000   0.0000000   0.0000000  )

     number of k points=   770  Marzari-Vanderbilt smearing, width (Ry)=  0.0200

     Number of k-points >= 100: set verbosity='high' to print them.

     Dense  grid:    20107 G-vectors     FFT dimensions: (  40,  40,  40)

     Smooth grid:     7119 G-vectors     FFT dimensions: (  27,  27,  27)

     Estimated max dynamical RAM per process >       2.40MB

     Estimated total allocated dynamical RAM >     153.91MB

     Initial potential from superposition of free atoms

     starting charge    8.99371, renormalised to    9.00000
     Starting wfc are    5 randomized atomic wfcs +    4 random wfc

     total cpu time spent up to now is        1.0 secs

     per-process dynamical memory:     8.5 Mb

     Self-consistent Calculation

     iteration #  1     ecut=    40.00 Ry     beta=0.70
     Davidson diagonalization with overlap
     ethr =  1.00E-02,  avg # of iterations =  5.3

     Threshold (ethr) on eigenvalues was too large:
     Diagonalizing with lowered threshold

     Davidson diagonalization with overlap
     ethr =  1.11E-05,  avg # of iterations =  3.6

     total cpu time spent up to now is        7.9 secs

     total energy              =     -95.10392186 Ry
     Harris-Foulkes estimate   =     -95.10423213 Ry
     estimated scf accuracy    <       0.00100093 Ry

     iteration #  2     ecut=    40.00 Ry     beta=0.70
     Davidson diagonalization with overlap
     ethr =  1.11E-05,  avg # of iterations =  2.0

     total cpu time spent up to now is       10.0 secs

     total energy              =     -95.10404210 Ry
     Harris-Foulkes estimate   =     -95.10407018 Ry
     estimated scf accuracy    <       0.00011104 Ry

     iteration #  3     ecut=    40.00 Ry     beta=0.70
     Davidson diagonalization with overlap
     ethr =  1.23E-06,  avg # of iterations =  2.1

     total cpu time spent up to now is       12.3 secs

     total energy              =     -95.10405521 Ry
     Harris-Foulkes estimate   =     -95.10405647 Ry
     estimated scf accuracy    <       0.00000662 Ry

     iteration #  4     ecut=    40.00 Ry     beta=0.70
     Davidson diagonalization with overlap
     ethr =  7.36E-08,  avg # of iterations =  1.0

     total cpu time spent up to now is       14.0 secs

     total energy              =     -95.10405582 Ry
     Harris-Foulkes estimate   =     -95.10405577 Ry
     estimated scf accuracy    <          9.2E-09 Ry

     iteration #  5     ecut=    40.00 Ry     beta=0.70
     Davidson diagonalization with overlap
     ethr =  1.02E-10,  avg # of iterations =  3.0

     total cpu time spent up to now is       16.5 secs

     total energy              =     -95.10405585 Ry
     Harris-Foulkes estimate   =     -95.10405585 Ry
     estimated scf accuracy    <          1.5E-09 Ry

     iteration #  6     ecut=    40.00 Ry     beta=0.70
     Davidson diagonalization with overlap
     ethr =  1.71E-11,  avg # of iterations =  1.6

     total cpu time spent up to now is       18.4 secs

     End of self-consistent calculation

     Number of k-points >= 100: set verbosity='high' to print the bands.

     the Fermi energy is     2.4614 ev

!    total energy              =     -95.10405585 Ry
     Harris-Foulkes estimate   =     -95.10405585 Ry
     estimated scf accuracy    <          5.5E-11 Ry

     The total energy is the sum of the following terms:

     one-electron contribution =     -83.98026624 Ry
     hartree contribution      =      42.67802775 Ry
     xc contribution           =     -14.29392305 Ry
     ewald contribution        =     -39.50785404 Ry
     smearing contrib. (-TS)   =      -0.00004027 Ry

     convergence has been achieved in   6 iterations


     Computing stress (Cartesian axis) and pressure

          total   stress  (Ry/bohr**3)                   (kbar)     P=   16.96
   0.00011531  -0.00000000  -0.00000000         16.96     -0.00     -0.00
  -0.00000000   0.00011531   0.00000000         -0.00     16.96      0.00
  -0.00000000   0.00000000   0.00011531         -0.00      0.00     16.96


     Writing output data file na.fcc.save

     init_run     :      0.71s CPU      0.77s WALL (       1 calls)
     electrons    :     16.37s CPU     17.48s WALL (       1 calls)
     stress       :      0.35s CPU      0.36s WALL (       1 calls)

     Called by init_run:
     wfcinit      :      0.55s CPU      0.58s WALL (       1 calls)
     potinit      :      0.02s CPU      0.03s WALL (       1 calls)

     Called by electrons:
     c_bands      :     13.94s CPU     14.95s WALL (       7 calls)
     sum_band     :      2.27s CPU      2.37s WALL (       7 calls)
     v_of_rho     :      0.08s CPU      0.08s WALL (       7 calls)
     newd         :      0.06s CPU      0.06s WALL (       7 calls)
     mix_rho      :      0.01s CPU      0.01s WALL (       7 calls)

     Called by c_bands:
     init_us_2    :      0.20s CPU      0.21s WALL (    3088 calls)
     cegterg      :     12.48s CPU     13.47s WALL (    1351 calls)

     Called by sum_band:
     sum_band:bec :      0.01s CPU      0.02s WALL (    1351 calls)
     addusdens    :      0.06s CPU      0.07s WALL (       7 calls)

     Called by *egterg:
     h_psi        :      9.17s CPU      9.73s WALL (    5287 calls)
     s_psi        :      0.09s CPU      0.10s WALL (    5287 calls)
     g_psi        :      0.02s CPU      0.03s WALL (    3743 calls)
     cdiaghg      :      2.21s CPU      2.41s WALL (    4901 calls)

     Called by h_psi:
     h_psi:pot    :      9.13s CPU      9.68s WALL (    5287 calls)
     h_psi:calbec :      0.41s CPU      0.43s WALL (    5287 calls)
     vloc_psi     :      8.57s CPU      9.09s WALL (    5287 calls)
     add_vuspsi   :      0.10s CPU      0.11s WALL (    5287 calls)

     General routines
     calbec       :      0.54s CPU      0.57s WALL (    6831 calls)
     fft          :      0.08s CPU      0.09s WALL (     117 calls)
     ffts         :      0.03s CPU      0.03s WALL (      14 calls)
     fftw         :      9.20s CPU      9.72s WALL (   78499 calls)
     interpolate  :      0.04s CPU      0.04s WALL (      14 calls)
     davcio       :      0.00s CPU      0.02s WALL (     193 calls)

     Parallel routines
     fft_scatter  :      4.35s CPU      4.60s WALL (   78630 calls)

     PWSCF        :    20.40s CPU        21.80s WALL


   This run was terminated on:  17:52: 6  13Feb2018            

=------------------------------------------------------------------------------=
   JOB DONE.
=------------------------------------------------------------------------------=
