
     Program PHONON v.6.1 (svn rev. 13369) starts on 12Feb2018 at 11:11:31 

     This program is part of the open-source Quantum ESPRESSO suite
     for quantum simulation of materials; please cite
         "P. Giannozzi et al., J. Phys.:Condens. Matter 21 395502 (2009);
          URL http://www.quantum-espresso.org", 
     in publications or presentations arising from this work. More details at
     http://www.quantum-espresso.org/quote

     Parallel version (MPI), running on    64 processors
     K-points division:     npool     =       4
     R & G space division:  proc/nbgrp/npool/nimage =      16

     Reading data from directory:
     ./na.bcc.save

   Info: using nr1, nr2, nr3 values from input

   Info: using nr1, nr2, nr3 values from input

     IMPORTANT: XC functional enforced from input :
     Exchange-correlation      = SLA  PW   PBE  PBE ( 1  4  3  4 0 0)
     Any further DFT definition will be discarded
     Please, verify this is what you really want


     Parallelization info
     --------------------
     sticks:   dense  smooth     PW     G-vecs:    dense   smooth      PW
     Min          68      33     10                 1426      498      88
     Max          69      34     11                 1428      501      91
     Sum        1097     541    173                22831     8007    1433



     Dynamical matrices for ( 6, 6, 6)  uniform grid of q-points
     (  16q-points):
       N         xq(1)         xq(2)         xq(3) 
       1   0.000000000   0.000000000   0.000000000
       2   0.000000000  -0.166666667   0.166666667
       3   0.000000000  -0.333333333   0.333333333
       4   0.000000000   0.500000000  -0.500000000
       5  -0.166666667  -0.166666667   0.333333333
       6  -0.166666667   0.666666667  -0.500000000
       7  -0.333333333   0.666666667  -0.333333333
       8   0.000000000   0.000000000   0.333333333
       9   0.000000000  -0.166666667   0.500000000
      10   0.000000000   0.666666667  -0.333333333
      11  -0.166666667   0.833333333  -0.333333333
      12   0.666666667  -0.666666667   0.333333333
      13   0.500000000  -0.500000000   0.333333333
      14   0.000000000   0.000000000   0.666666667
      15   0.000000000   0.833333333  -0.166666667
      16   0.000000000   0.000000000  -1.000000000

     Calculation of q =    0.0000000   0.0000000   0.0000000

                                                                                

     bravais-lattice index     =            3
     lattice parameter (alat)  =       7.7800  a.u.
     unit-cell volume          =     235.4555 (a.u.)^3
     number of atoms/cell      =            1
     number of atomic types    =            1
     kinetic-energy cut-off    =      40.0000  Ry
     charge density cut-off    =     320.0000  Ry
     convergence threshold     =      1.0E-16
     beta                      =       0.7000
     number of iterations used =            4
     Exchange-correlation      = SLA  PW   PBE  PBE ( 1  4  3  4 0 0)


     celldm(1)=    7.78000  celldm(2)=    0.00000  celldm(3)=    0.00000
     celldm(4)=    0.00000  celldm(5)=    0.00000  celldm(6)=    0.00000

     crystal axes: (cart. coord. in units of alat)
               a(1) = (  0.5000  0.5000  0.5000 )  
               a(2) = ( -0.5000  0.5000  0.5000 )  
               a(3) = ( -0.5000 -0.5000  0.5000 )  

     reciprocal axes: (cart. coord. in units 2 pi/alat)
               b(1) = (  1.0000  0.0000  1.0000 )  
               b(2) = ( -1.0000  1.0000  0.0000 )  
               b(3) = (  0.0000 -1.0000  1.0000 )  


     Atoms inside the unit cell: 

     Cartesian axes

     site n.  atom      mass           positions (alat units)
        1     Na  22.9900   tau(    1) = (    0.00000    0.00000    0.00000  )

     Computing dynamical matrix for 
                    q = (   0.0000000   0.0000000   0.0000000 )

     49 Sym.Ops. (with q -> -q+G )


     G cutoff =  490.6247  (   1428 G-vectors)     FFT grid: ( 40, 40, 40)
     G cutoff =  245.3124  (    501 G-vectors)  smooth grid: ( 27, 27, 27)

     number of k points=   250  Marzari-Vanderbilt smearing, width (Ry)=  0.0200

     PseudoPot. # 1 for Na read from file:
     /home/s1333534/quantum_espresso/qe-6.1/pseudo/Na_pbe_v1.uspp.F.UPF
     MD5 check sum: 76a99c7e9422403d3e93cbc85ab7bccb
     Pseudo is Ultrasoft, Zval =  9.0
     Generated by new atomic code, or converted to UPF format
     Using radial grid of  819 points,  5 beta functions with: 
                l(1) =   0
                l(2) =   0
                l(3) =   1
                l(4) =   1
                l(5) =   2
     Q(r) pseudized with  8 coefficients,  rinner =    1.250   1.250   1.250
                                                       1.250   1.250

     Mode symmetry, O_h (m-3m)  point group:


     Atomic displacements:
     There are   1 irreducible representations

     Representation     1      3 modes -T_1u G_15  G_4-  To be done



     Alpha used in Ewald sum =   2.8000
     PHONON       :     3.04s CPU         3.27s WALL



     Representation #  1 modes #   1  2  3

     Self-consistent Calculation

     Pert. #  1: Fermi energy shift (Ry) =    -2.4126E-25     1.2539E-37
     Pert. #  2: Fermi energy shift (Ry) =     8.1856E-26    -2.0375E-37
     Pert. #  3: Fermi energy shift (Ry) =     1.8095E-25     3.1347E-37

      iter #   1 total cpu time :     7.2 secs   av.it.:   5.4
      thresh= 1.000E-02 alpha_mix =  0.700 |ddv_scf|^2 =  1.028E-06

     Pert. #  1: Fermi energy shift (Ry) =     1.0771E-26    -8.3264E-39
     Pert. #  2: Fermi energy shift (Ry) =    -6.4623E-27     1.7143E-39
     Pert. #  3: Fermi energy shift (Ry) =     4.5236E-26    -1.4694E-39

      iter #   2 total cpu time :    11.7 secs   av.it.:   8.5
      thresh= 1.014E-04 alpha_mix =  0.700 |ddv_scf|^2 =  1.940E-08

     Pert. #  1: Fermi energy shift (Ry) =    -9.4781E-26    -1.6530E-39
     Pert. #  2: Fermi energy shift (Ry) =    -2.1541E-27    -1.2857E-39
     Pert. #  3: Fermi energy shift (Ry) =    -9.9089E-26    -2.4489E-40

      iter #   3 total cpu time :    16.2 secs   av.it.:   8.6
      thresh= 1.393E-05 alpha_mix =  0.700 |ddv_scf|^2 =  3.753E-10

     Pert. #  1: Fermi energy shift (Ry) =    -8.6165E-27     7.2703E-41
     Pert. #  2: Fermi energy shift (Ry) =     5.1699E-26     1.1479E-41
     Pert. #  3: Fermi energy shift (Ry) =     2.3695E-26    -1.9132E-42

      iter #   4 total cpu time :    20.6 secs   av.it.:   8.1
      thresh= 1.937E-06 alpha_mix =  0.700 |ddv_scf|^2 =  1.300E-12

     Pert. #  1: Fermi energy shift (Ry) =     4.3082E-26    -1.9132E-42
     Pert. #  2: Fermi energy shift (Ry) =     8.1856E-26    -5.7397E-42
     Pert. #  3: Fermi energy shift (Ry) =     1.7233E-26    -1.4349E-41

      iter #   5 total cpu time :    25.0 secs   av.it.:   8.5
      thresh= 1.140E-07 alpha_mix =  0.700 |ddv_scf|^2 =  2.984E-15

     Pert. #  1: Fermi energy shift (Ry) =    -3.8774E-26     7.6530E-42
     Pert. #  2: Fermi energy shift (Ry) =     9.2627E-26    -7.1746E-42
     Pert. #  3: Fermi energy shift (Ry) =    -2.8004E-26     5.7397E-42

      iter #   6 total cpu time :    29.4 secs   av.it.:   8.1
      thresh= 5.463E-09 alpha_mix =  0.700 |ddv_scf|^2 =  7.335E-17

     End of self-consistent calculation

     Convergence has been achieved 

     Number of q in the star =    1
     List of q in the star:
          1   0.000000000   0.000000000   0.000000000

     Diagonalizing the dynamical matrix

     q = (    0.000000000   0.000000000   0.000000000 ) 

 **************************************************************************
     freq (    1) =      -0.202887 [THz] =      -6.767593 [cm-1]
     freq (    2) =      -0.202887 [THz] =      -6.767593 [cm-1]
     freq (    3) =      -0.202887 [THz] =      -6.767593 [cm-1]
 **************************************************************************

     Mode symmetry, O_h (m-3m)  point group:

     freq (  1 -  3) =         -6.8  [cm-1]   --> T_1u G_15  G_4- I  

     Calculation of q =    0.0000000  -0.1666667   0.1666667

   Info: using nr1, nr2, nr3 values from input

   Info: using nr1, nr2, nr3 values from input

     Parallelization info
     --------------------
     sticks:   dense  smooth     PW     G-vecs:    dense   smooth      PW
     Min          68      33     10                 1426      498      91
     Max          69      34     11                 1428      501      95
     Sum        1097     541    173                22831     8007    1505



     bravais-lattice index     =            3
     lattice parameter (alat)  =       7.7800  a.u.
     unit-cell volume          =     235.4555 (a.u.)^3
     number of atoms/cell      =            1
     number of atomic types    =            1
     number of electrons       =         9.00
     number of Kohn-Sham states=            9
     kinetic-energy cutoff     =      40.0000  Ry
     charge density cutoff     =     320.0000  Ry
     Exchange-correlation      = SLA  PW   PBE  PBE ( 1  4  3  4 0 0)

     celldm(1)=   7.780000  celldm(2)=   0.000000  celldm(3)=   0.000000
     celldm(4)=   0.000000  celldm(5)=   0.000000  celldm(6)=   0.000000

     crystal axes: (cart. coord. in units of alat)
               a(1) = (   0.500000   0.500000   0.500000 )  
               a(2) = (  -0.500000   0.500000   0.500000 )  
               a(3) = (  -0.500000  -0.500000   0.500000 )  

     reciprocal axes: (cart. coord. in units 2 pi/alat)
               b(1) = (  1.000000  0.000000  1.000000 )  
               b(2) = ( -1.000000  1.000000  0.000000 )  
               b(3) = (  0.000000 -1.000000  1.000000 )  


     PseudoPot. # 1 for Na read from file:
     /home/s1333534/quantum_espresso/qe-6.1/pseudo/Na_pbe_v1.uspp.F.UPF
     MD5 check sum: 76a99c7e9422403d3e93cbc85ab7bccb
     Pseudo is Ultrasoft, Zval =  9.0
     Generated by new atomic code, or converted to UPF format
     Using radial grid of  819 points,  5 beta functions with: 
                l(1) =   0
                l(2) =   0
                l(3) =   1
                l(4) =   1
                l(5) =   2
     Q(r) pseudized with  8 coefficients,  rinner =    1.250   1.250   1.250
                                                       1.250   1.250

     atomic species   valence    mass     pseudopotential
        Na             9.00    22.99000     Na( 1.00)

     48 Sym. Ops., with inversion, found



   Cartesian axes

     site n.     atom                  positions (alat units)
         1           Na  tau(   1) = (   0.0000000   0.0000000   0.0000000  )

     number of k points=  4400  Marzari-Vanderbilt smearing, width (Ry)=  0.0200

     Number of k-points >= 100: set verbosity='high' to print them.

     Dense  grid:    22831 G-vectors     FFT dimensions: (  40,  40,  40)

     Smooth grid:     8007 G-vectors     FFT dimensions: (  27,  27,  27)

     Estimated max dynamical RAM per process >       0.78MB

     Estimated total allocated dynamical RAM >      50.17MB

     The potential is recalculated from file :
     ./_ph0/na.bcc.save/charge-density.dat

     Starting wfc are    5 atomic +    4 random wfc

     Band Structure Calculation
     Davidson diagonalization with overlap

     ethr =  1.11E-10,  avg # of iterations = 20.8

     total cpu time spent up to now is       71.0 secs

     End of band structure calculation

     Number of k-points >= 100: set verbosity='high' to print the bands.

     the Fermi energy is     1.8667 ev

     Writing output data file na.bcc.save

                                                                                

     bravais-lattice index     =            3
     lattice parameter (alat)  =       7.7800  a.u.
     unit-cell volume          =     235.4555 (a.u.)^3
     number of atoms/cell      =            1
     number of atomic types    =            1
     kinetic-energy cut-off    =      40.0000  Ry
     charge density cut-off    =     320.0000  Ry
     convergence threshold     =      1.0E-16
     beta                      =       0.7000
     number of iterations used =            4
     Exchange-correlation      = SLA  PW   PBE  PBE ( 1  4  3  4 0 0)


     celldm(1)=    7.78000  celldm(2)=    0.00000  celldm(3)=    0.00000
     celldm(4)=    0.00000  celldm(5)=    0.00000  celldm(6)=    0.00000

     crystal axes: (cart. coord. in units of alat)
               a(1) = (  0.5000  0.5000  0.5000 )  
               a(2) = ( -0.5000  0.5000  0.5000 )  
               a(3) = ( -0.5000 -0.5000  0.5000 )  

     reciprocal axes: (cart. coord. in units 2 pi/alat)
               b(1) = (  1.0000  0.0000  1.0000 )  
               b(2) = ( -1.0000  1.0000  0.0000 )  
               b(3) = (  0.0000 -1.0000  1.0000 )  


     Atoms inside the unit cell: 

     Cartesian axes

     site n.  atom      mass           positions (alat units)
        1     Na  22.9900   tau(    1) = (    0.00000    0.00000    0.00000  )

     Computing dynamical matrix for 
                    q = (   0.0000000  -0.1666667   0.1666667 )

      4 Sym.Ops. (no q -> -q+G )


     G cutoff =  490.6247  (   1428 G-vectors)     FFT grid: ( 40, 40, 40)
     G cutoff =  245.3124  (    501 G-vectors)  smooth grid: ( 27, 27, 27)

     number of k points=  4400  Marzari-Vanderbilt smearing, width (Ry)=  0.0200

     PseudoPot. # 1 for Na read from file:
     /home/s1333534/quantum_espresso/qe-6.1/pseudo/Na_pbe_v1.uspp.F.UPF
     MD5 check sum: 76a99c7e9422403d3e93cbc85ab7bccb
     Pseudo is Ultrasoft, Zval =  9.0
     Generated by new atomic code, or converted to UPF format
     Using radial grid of  819 points,  5 beta functions with: 
                l(1) =   0
                l(2) =   0
                l(3) =   1
                l(4) =   1
                l(5) =   2
     Q(r) pseudized with  8 coefficients,  rinner =    1.250   1.250   1.250
                                                       1.250   1.250

     Mode symmetry, C_2v (mm2)  point group:


     Atomic displacements:
     There are   3 irreducible representations

     Representation     1      1 modes -A_1  D_1  S_1  To be done

     Representation     2      1 modes -B_1  D_3  S_3  To be done

     Representation     3      1 modes -B_2  D_4  S_4  To be done



     Alpha used in Ewald sum =   2.8000
     PHONON       :  1m51.09s CPU     1m57.14s WALL



     Representation #  1 mode #   1

     Self-consistent Calculation

      iter #   1 total cpu time :   125.5 secs   av.it.:   5.7
      thresh= 1.000E-02 alpha_mix =  0.700 |ddv_scf|^2 =  2.393E-02

      iter #   2 total cpu time :   133.8 secs   av.it.:   6.4
      thresh= 1.000E-02 alpha_mix =  0.700 |ddv_scf|^2 =  3.458E+00

      iter #   3 total cpu time :   141.9 secs   av.it.:   6.3
      thresh= 1.000E-02 alpha_mix =  0.700 |ddv_scf|^2 =  3.512E-07

      iter #   4 total cpu time :   151.7 secs   av.it.:   8.0
      thresh= 5.926E-05 alpha_mix =  0.700 |ddv_scf|^2 =  5.218E-08

      iter #   5 total cpu time :   160.9 secs   av.it.:   7.5
      thresh= 2.284E-05 alpha_mix =  0.700 |ddv_scf|^2 =  2.999E-09

      iter #   6 total cpu time :   170.1 secs   av.it.:   7.5
      thresh= 5.477E-06 alpha_mix =  0.700 |ddv_scf|^2 =  7.041E-10

      iter #   7 total cpu time :   178.4 secs   av.it.:   6.6
      thresh= 2.653E-06 alpha_mix =  0.700 |ddv_scf|^2 =  6.425E-09

      iter #   8 total cpu time :   186.3 secs   av.it.:   6.2
      thresh= 8.016E-06 alpha_mix =  0.700 |ddv_scf|^2 =  3.574E-11

      iter #   9 total cpu time :   195.5 secs   av.it.:   7.3
      thresh= 5.978E-07 alpha_mix =  0.700 |ddv_scf|^2 =  1.629E-12

      iter #  10 total cpu time :   204.0 secs   av.it.:   7.1
      thresh= 1.276E-07 alpha_mix =  0.700 |ddv_scf|^2 =  9.107E-14

      iter #  11 total cpu time :   212.8 secs   av.it.:   7.3
      thresh= 3.018E-08 alpha_mix =  0.700 |ddv_scf|^2 =  4.015E-16

      iter #  12 total cpu time :   222.4 secs   av.it.:   7.8
      thresh= 2.004E-09 alpha_mix =  0.700 |ddv_scf|^2 =  1.082E-16

      iter #  13 total cpu time :   231.5 secs   av.it.:   7.7
      thresh= 1.040E-09 alpha_mix =  0.700 |ddv_scf|^2 =  2.689E-15

      iter #  14 total cpu time :   237.6 secs   av.it.:   4.4
      thresh= 5.185E-09 alpha_mix =  0.700 |ddv_scf|^2 =  6.161E-18

     End of self-consistent calculation

     Convergence has been achieved 


     Representation #  2 mode #   2

     Self-consistent Calculation

      iter #   1 total cpu time :   246.3 secs   av.it.:   5.4
      thresh= 1.000E-02 alpha_mix =  0.700 |ddv_scf|^2 =  9.351E-06

      iter #   2 total cpu time :   256.0 secs   av.it.:   7.7
      thresh= 3.058E-04 alpha_mix =  0.700 |ddv_scf|^2 =  1.728E-07

      iter #   3 total cpu time :   265.5 secs   av.it.:   7.9
      thresh= 4.157E-05 alpha_mix =  0.700 |ddv_scf|^2 =  3.682E-09

      iter #   4 total cpu time :   274.8 secs   av.it.:   7.4
      thresh= 6.068E-06 alpha_mix =  0.700 |ddv_scf|^2 =  1.250E-11

      iter #   5 total cpu time :   284.5 secs   av.it.:   7.7
      thresh= 3.536E-07 alpha_mix =  0.700 |ddv_scf|^2 =  2.577E-14

      iter #   6 total cpu time :   293.8 secs   av.it.:   7.4
      thresh= 1.605E-08 alpha_mix =  0.700 |ddv_scf|^2 =  6.993E-16

      iter #   7 total cpu time :   303.2 secs   av.it.:   7.7
      thresh= 2.644E-09 alpha_mix =  0.700 |ddv_scf|^2 =  6.675E-19

     End of self-consistent calculation

     Convergence has been achieved 


     Representation #  3 mode #   3

     Self-consistent Calculation

      iter #   1 total cpu time :   311.9 secs   av.it.:   5.4
      thresh= 1.000E-02 alpha_mix =  0.700 |ddv_scf|^2 =  9.668E-06

      iter #   2 total cpu time :   321.8 secs   av.it.:   7.7
      thresh= 3.109E-04 alpha_mix =  0.700 |ddv_scf|^2 =  1.719E-07

      iter #   3 total cpu time :   331.1 secs   av.it.:   7.8
      thresh= 4.146E-05 alpha_mix =  0.700 |ddv_scf|^2 =  4.712E-09

      iter #   4 total cpu time :   340.3 secs   av.it.:   7.5
      thresh= 6.864E-06 alpha_mix =  0.700 |ddv_scf|^2 =  1.567E-11

      iter #   5 total cpu time :   349.8 secs   av.it.:   7.8
      thresh= 3.959E-07 alpha_mix =  0.700 |ddv_scf|^2 =  2.676E-14

      iter #   6 total cpu time :   358.6 secs   av.it.:   7.2
      thresh= 1.636E-08 alpha_mix =  0.700 |ddv_scf|^2 =  1.083E-15

      iter #   7 total cpu time :   367.9 secs   av.it.:   7.8
      thresh= 3.290E-09 alpha_mix =  0.700 |ddv_scf|^2 =  1.216E-18

     End of self-consistent calculation

     Convergence has been achieved 

     Number of q in the star =   12
     List of q in the star:
          1   0.000000000  -0.166666667   0.166666667
          2  -0.166666667   0.000000000   0.166666667
          3   0.166666667   0.000000000   0.166666667
          4   0.000000000   0.166666667   0.166666667
          5   0.166666667   0.166666667   0.000000000
          6  -0.166666667   0.166666667   0.000000000
          7   0.166666667  -0.166666667   0.000000000
          8  -0.166666667  -0.166666667   0.000000000
          9  -0.166666667   0.000000000  -0.166666667
         10   0.000000000  -0.166666667  -0.166666667
         11   0.000000000   0.166666667  -0.166666667
         12   0.166666667   0.000000000  -0.166666667

     Diagonalizing the dynamical matrix

     q = (    0.000000000  -0.166666667   0.166666667 ) 

 **************************************************************************
     freq (    1) =       0.592679 [THz] =      19.769660 [cm-1]
     freq (    2) =       1.408877 [THz] =      46.995072 [cm-1]
     freq (    3) =       2.175802 [THz] =      72.576928 [cm-1]
 **************************************************************************

     Mode symmetry, C_2v (mm2)  point group:

     freq (  1 -  1) =         19.8  [cm-1]   --> B_1  D_3  S_3      
     freq (  2 -  2) =         47.0  [cm-1]   --> B_2  D_4  S_4      
     freq (  3 -  3) =         72.6  [cm-1]   --> A_1  D_1  S_1      

     Calculation of q =    0.0000000  -0.3333333   0.3333333

   Info: using nr1, nr2, nr3 values from input

   Info: using nr1, nr2, nr3 values from input

     Parallelization info
     --------------------
     sticks:   dense  smooth     PW     G-vecs:    dense   smooth      PW
     Min          68      33     11                 1426      498      99
     Max          69      34     12                 1428      501     101
     Sum        1097     541    181                22831     8007    1601



     bravais-lattice index     =            3
     lattice parameter (alat)  =       7.7800  a.u.
     unit-cell volume          =     235.4555 (a.u.)^3
     number of atoms/cell      =            1
     number of atomic types    =            1
     number of electrons       =         9.00
     number of Kohn-Sham states=            9
     kinetic-energy cutoff     =      40.0000  Ry
     charge density cutoff     =     320.0000  Ry
     Exchange-correlation      = SLA  PW   PBE  PBE ( 1  4  3  4 0 0)

     celldm(1)=   7.780000  celldm(2)=   0.000000  celldm(3)=   0.000000
     celldm(4)=   0.000000  celldm(5)=   0.000000  celldm(6)=   0.000000

     crystal axes: (cart. coord. in units of alat)
               a(1) = (   0.500000   0.500000   0.500000 )  
               a(2) = (  -0.500000   0.500000   0.500000 )  
               a(3) = (  -0.500000  -0.500000   0.500000 )  

     reciprocal axes: (cart. coord. in units 2 pi/alat)
               b(1) = (  1.000000  0.000000  1.000000 )  
               b(2) = ( -1.000000  1.000000  0.000000 )  
               b(3) = (  0.000000 -1.000000  1.000000 )  


     PseudoPot. # 1 for Na read from file:
     /home/s1333534/quantum_espresso/qe-6.1/pseudo/Na_pbe_v1.uspp.F.UPF
     MD5 check sum: 76a99c7e9422403d3e93cbc85ab7bccb
     Pseudo is Ultrasoft, Zval =  9.0
     Generated by new atomic code, or converted to UPF format
     Using radial grid of  819 points,  5 beta functions with: 
                l(1) =   0
                l(2) =   0
                l(3) =   1
                l(4) =   1
                l(5) =   2
     Q(r) pseudized with  8 coefficients,  rinner =    1.250   1.250   1.250
                                                       1.250   1.250

     atomic species   valence    mass     pseudopotential
        Na             9.00    22.99000     Na( 1.00)

     48 Sym. Ops., with inversion, found



   Cartesian axes

     site n.     atom                  positions (alat units)
         1           Na  tau(   1) = (   0.0000000   0.0000000   0.0000000  )

     number of k points=  4400  Marzari-Vanderbilt smearing, width (Ry)=  0.0200

     Number of k-points >= 100: set verbosity='high' to print them.

     Dense  grid:    22831 G-vectors     FFT dimensions: (  40,  40,  40)

     Smooth grid:     8007 G-vectors     FFT dimensions: (  27,  27,  27)

     Estimated max dynamical RAM per process >       0.78MB

     Estimated total allocated dynamical RAM >      50.17MB

     The potential is recalculated from file :
     ./_ph0/na.bcc.save/charge-density.dat

     Starting wfc are    5 atomic +    4 random wfc

     Band Structure Calculation
     Davidson diagonalization with overlap

     ethr =  1.11E-10,  avg # of iterations = 20.9

     total cpu time spent up to now is      155.9 secs

     End of band structure calculation

     Number of k-points >= 100: set verbosity='high' to print the bands.

     the Fermi energy is     1.8667 ev

     Writing output data file na.bcc.save

                                                                                

     bravais-lattice index     =            3
     lattice parameter (alat)  =       7.7800  a.u.
     unit-cell volume          =     235.4555 (a.u.)^3
     number of atoms/cell      =            1
     number of atomic types    =            1
     kinetic-energy cut-off    =      40.0000  Ry
     charge density cut-off    =     320.0000  Ry
     convergence threshold     =      1.0E-16
     beta                      =       0.7000
     number of iterations used =            4
     Exchange-correlation      = SLA  PW   PBE  PBE ( 1  4  3  4 0 0)


     celldm(1)=    7.78000  celldm(2)=    0.00000  celldm(3)=    0.00000
     celldm(4)=    0.00000  celldm(5)=    0.00000  celldm(6)=    0.00000

     crystal axes: (cart. coord. in units of alat)
               a(1) = (  0.5000  0.5000  0.5000 )  
               a(2) = ( -0.5000  0.5000  0.5000 )  
               a(3) = ( -0.5000 -0.5000  0.5000 )  

     reciprocal axes: (cart. coord. in units 2 pi/alat)
               b(1) = (  1.0000  0.0000  1.0000 )  
               b(2) = ( -1.0000  1.0000  0.0000 )  
               b(3) = (  0.0000 -1.0000  1.0000 )  


     Atoms inside the unit cell: 

     Cartesian axes

     site n.  atom      mass           positions (alat units)
        1     Na  22.9900   tau(    1) = (    0.00000    0.00000    0.00000  )

     Computing dynamical matrix for 
                    q = (   0.0000000  -0.3333333   0.3333333 )

      4 Sym.Ops. (no q -> -q+G )


     G cutoff =  490.6247  (   1428 G-vectors)     FFT grid: ( 40, 40, 40)
     G cutoff =  245.3124  (    501 G-vectors)  smooth grid: ( 27, 27, 27)

     number of k points=  4400  Marzari-Vanderbilt smearing, width (Ry)=  0.0200

     PseudoPot. # 1 for Na read from file:
     /home/s1333534/quantum_espresso/qe-6.1/pseudo/Na_pbe_v1.uspp.F.UPF
     MD5 check sum: 76a99c7e9422403d3e93cbc85ab7bccb
     Pseudo is Ultrasoft, Zval =  9.0
     Generated by new atomic code, or converted to UPF format
     Using radial grid of  819 points,  5 beta functions with: 
                l(1) =   0
                l(2) =   0
                l(3) =   1
                l(4) =   1
                l(5) =   2
     Q(r) pseudized with  8 coefficients,  rinner =    1.250   1.250   1.250
                                                       1.250   1.250

     Mode symmetry, C_2v (mm2)  point group:


     Atomic displacements:
     There are   3 irreducible representations

     Representation     1      1 modes -A_1  D_1  S_1  To be done

     Representation     2      1 modes -B_1  D_3  S_3  To be done

     Representation     3      1 modes -B_2  D_4  S_4  To be done



     Alpha used in Ewald sum =   2.8000
     PHONON       :  7m 5.94s CPU     7m36.86s WALL



     Representation #  1 mode #   1

     Self-consistent Calculation

      iter #   1 total cpu time :   465.4 secs   av.it.:   5.7
      thresh= 1.000E-02 alpha_mix =  0.700 |ddv_scf|^2 =  4.082E-04

      iter #   2 total cpu time :   474.8 secs   av.it.:   6.7
      thresh= 2.020E-03 alpha_mix =  0.700 |ddv_scf|^2 =  2.304E-03

      iter #   3 total cpu time :   482.3 secs   av.it.:   5.8
      thresh= 4.800E-03 alpha_mix =  0.700 |ddv_scf|^2 =  4.464E-07

      iter #   4 total cpu time :   491.9 secs   av.it.:   7.8
      thresh= 6.682E-05 alpha_mix =  0.700 |ddv_scf|^2 =  7.673E-09

      iter #   5 total cpu time :   501.7 secs   av.it.:   8.3
      thresh= 8.759E-06 alpha_mix =  0.700 |ddv_scf|^2 =  3.758E-10

      iter #   6 total cpu time :   511.5 secs   av.it.:   8.1
      thresh= 1.939E-06 alpha_mix =  0.700 |ddv_scf|^2 =  1.472E-11

      iter #   7 total cpu time :   521.0 secs   av.it.:   7.8
      thresh= 3.836E-07 alpha_mix =  0.700 |ddv_scf|^2 =  2.958E-14

      iter #   8 total cpu time :   530.7 secs   av.it.:   8.1
      thresh= 1.720E-08 alpha_mix =  0.700 |ddv_scf|^2 =  4.740E-14

      iter #   9 total cpu time :   539.2 secs   av.it.:   6.7
      thresh= 2.177E-08 alpha_mix =  0.700 |ddv_scf|^2 =  1.225E-14

      iter #  10 total cpu time :   547.8 secs   av.it.:   6.9
      thresh= 1.107E-08 alpha_mix =  0.700 |ddv_scf|^2 =  2.372E-15

      iter #  11 total cpu time :   556.9 secs   av.it.:   7.6
      thresh= 4.871E-09 alpha_mix =  0.700 |ddv_scf|^2 =  1.636E-17

     End of self-consistent calculation

     Convergence has been achieved 


     Representation #  2 mode #   2

     Self-consistent Calculation

      iter #   1 total cpu time :   565.5 secs   av.it.:   5.5
      thresh= 1.000E-02 alpha_mix =  0.700 |ddv_scf|^2 =  9.606E-06

      iter #   2 total cpu time :   575.3 secs   av.it.:   7.7
      thresh= 3.099E-04 alpha_mix =  0.700 |ddv_scf|^2 =  1.678E-07

      iter #   3 total cpu time :   584.8 secs   av.it.:   7.9
      thresh= 4.097E-05 alpha_mix =  0.700 |ddv_scf|^2 =  4.643E-09

      iter #   4 total cpu time :   594.0 secs   av.it.:   7.5
      thresh= 6.814E-06 alpha_mix =  0.700 |ddv_scf|^2 =  1.480E-11

      iter #   5 total cpu time :   603.8 secs   av.it.:   7.8
      thresh= 3.847E-07 alpha_mix =  0.700 |ddv_scf|^2 =  2.192E-14

      iter #   6 total cpu time :   612.9 secs   av.it.:   7.4
      thresh= 1.480E-08 alpha_mix =  0.700 |ddv_scf|^2 =  7.376E-16

      iter #   7 total cpu time :   622.4 secs   av.it.:   7.8
      thresh= 2.716E-09 alpha_mix =  0.700 |ddv_scf|^2 =  8.155E-19

     End of self-consistent calculation

     Convergence has been achieved 


     Representation #  3 mode #   3

     Self-consistent Calculation

      iter #   1 total cpu time :   630.8 secs   av.it.:   5.5
      thresh= 1.000E-02 alpha_mix =  0.700 |ddv_scf|^2 =  1.060E-05

      iter #   2 total cpu time :   640.3 secs   av.it.:   7.7
      thresh= 3.256E-04 alpha_mix =  0.700 |ddv_scf|^2 =  1.666E-07

      iter #   3 total cpu time :   649.9 secs   av.it.:   7.9
      thresh= 4.081E-05 alpha_mix =  0.700 |ddv_scf|^2 =  8.228E-09

      iter #   4 total cpu time :   659.1 secs   av.it.:   7.5
      thresh= 9.071E-06 alpha_mix =  0.700 |ddv_scf|^2 =  2.630E-11

      iter #   5 total cpu time :   668.7 secs   av.it.:   7.8
      thresh= 5.129E-07 alpha_mix =  0.700 |ddv_scf|^2 =  2.905E-14

      iter #   6 total cpu time :   676.8 secs   av.it.:   6.3
      thresh= 1.705E-08 alpha_mix =  0.700 |ddv_scf|^2 =  1.771E-15

      iter #   7 total cpu time :   686.2 secs   av.it.:   7.7
      thresh= 4.209E-09 alpha_mix =  0.700 |ddv_scf|^2 =  1.904E-18

     End of self-consistent calculation

     Convergence has been achieved 

     Number of q in the star =   12
     List of q in the star:
          1   0.000000000  -0.333333333   0.333333333
          2  -0.333333333   0.000000000   0.333333333
          3   0.333333333   0.000000000   0.333333333
          4   0.000000000   0.333333333   0.333333333
          5   0.333333333   0.333333333   0.000000000
          6  -0.333333333   0.333333333   0.000000000
          7   0.333333333  -0.333333333   0.000000000
          8  -0.333333333  -0.333333333   0.000000000
          9  -0.333333333   0.000000000  -0.333333333
         10   0.000000000  -0.333333333  -0.333333333
         11   0.000000000   0.333333333  -0.333333333
         12   0.333333333   0.000000000  -0.333333333

     Diagonalizing the dynamical matrix

     q = (    0.000000000  -0.333333333   0.333333333 ) 

 **************************************************************************
     freq (    1) =       0.906908 [THz] =      30.251199 [cm-1]
     freq (    2) =       2.402988 [THz] =      80.155054 [cm-1]
     freq (    3) =       3.721345 [THz] =     124.130721 [cm-1]
 **************************************************************************

     Mode symmetry, C_2v (mm2)  point group:

     freq (  1 -  1) =         30.3  [cm-1]   --> B_1  D_3  S_3      
     freq (  2 -  2) =         80.2  [cm-1]   --> B_2  D_4  S_4      
     freq (  3 -  3) =        124.1  [cm-1]   --> A_1  D_1  S_1      

     Calculation of q =    0.0000000   0.5000000  -0.5000000

   Info: using nr1, nr2, nr3 values from input

   Info: using nr1, nr2, nr3 values from input

     Parallelization info
     --------------------
     sticks:   dense  smooth     PW     G-vecs:    dense   smooth      PW
     Min          68      33     12                 1426      498     115
     Max          69      34     13                 1428      501     118
     Sum        1097     541    205                22831     8007    1865



     bravais-lattice index     =            3
     lattice parameter (alat)  =       7.7800  a.u.
     unit-cell volume          =     235.4555 (a.u.)^3
     number of atoms/cell      =            1
     number of atomic types    =            1
     number of electrons       =         9.00
     number of Kohn-Sham states=            9
     kinetic-energy cutoff     =      40.0000  Ry
     charge density cutoff     =     320.0000  Ry
     Exchange-correlation      = SLA  PW   PBE  PBE ( 1  4  3  4 0 0)

     celldm(1)=   7.780000  celldm(2)=   0.000000  celldm(3)=   0.000000
     celldm(4)=   0.000000  celldm(5)=   0.000000  celldm(6)=   0.000000

     crystal axes: (cart. coord. in units of alat)
               a(1) = (   0.500000   0.500000   0.500000 )  
               a(2) = (  -0.500000   0.500000   0.500000 )  
               a(3) = (  -0.500000  -0.500000   0.500000 )  

     reciprocal axes: (cart. coord. in units 2 pi/alat)
               b(1) = (  1.000000  0.000000  1.000000 )  
               b(2) = ( -1.000000  1.000000  0.000000 )  
               b(3) = (  0.000000 -1.000000  1.000000 )  


     PseudoPot. # 1 for Na read from file:
     /home/s1333534/quantum_espresso/qe-6.1/pseudo/Na_pbe_v1.uspp.F.UPF
     MD5 check sum: 76a99c7e9422403d3e93cbc85ab7bccb
     Pseudo is Ultrasoft, Zval =  9.0
     Generated by new atomic code, or converted to UPF format
     Using radial grid of  819 points,  5 beta functions with: 
                l(1) =   0
                l(2) =   0
                l(3) =   1
                l(4) =   1
                l(5) =   2
     Q(r) pseudized with  8 coefficients,  rinner =    1.250   1.250   1.250
                                                       1.250   1.250

     atomic species   valence    mass     pseudopotential
        Na             9.00    22.99000     Na( 1.00)

     48 Sym. Ops., with inversion, found



   Cartesian axes

     site n.     atom                  positions (alat units)
         1           Na  tau(   1) = (   0.0000000   0.0000000   0.0000000  )

     number of k points=  2310  Marzari-Vanderbilt smearing, width (Ry)=  0.0200

     Number of k-points >= 100: set verbosity='high' to print them.

     Dense  grid:    22831 G-vectors     FFT dimensions: (  40,  40,  40)

     Smooth grid:     8007 G-vectors     FFT dimensions: (  27,  27,  27)

     Estimated max dynamical RAM per process >       0.78MB

     Estimated total allocated dynamical RAM >      50.17MB

     The potential is recalculated from file :
     ./_ph0/na.bcc.save/charge-density.dat

     Starting wfc are    5 atomic +    4 random wfc

     Band Structure Calculation
     Davidson diagonalization with overlap

     ethr =  1.11E-10,  avg # of iterations = 20.8

     total cpu time spent up to now is      206.9 secs

     End of band structure calculation

     Number of k-points >= 100: set verbosity='high' to print the bands.

     the Fermi energy is     1.8667 ev

     Writing output data file na.bcc.save

                                                                                

     bravais-lattice index     =            3
     lattice parameter (alat)  =       7.7800  a.u.
     unit-cell volume          =     235.4555 (a.u.)^3
     number of atoms/cell      =            1
     number of atomic types    =            1
     kinetic-energy cut-off    =      40.0000  Ry
     charge density cut-off    =     320.0000  Ry
     convergence threshold     =      1.0E-16
     beta                      =       0.7000
     number of iterations used =            4
     Exchange-correlation      = SLA  PW   PBE  PBE ( 1  4  3  4 0 0)


     celldm(1)=    7.78000  celldm(2)=    0.00000  celldm(3)=    0.00000
     celldm(4)=    0.00000  celldm(5)=    0.00000  celldm(6)=    0.00000

     crystal axes: (cart. coord. in units of alat)
               a(1) = (  0.5000  0.5000  0.5000 )  
               a(2) = ( -0.5000  0.5000  0.5000 )  
               a(3) = ( -0.5000 -0.5000  0.5000 )  

     reciprocal axes: (cart. coord. in units 2 pi/alat)
               b(1) = (  1.0000  0.0000  1.0000 )  
               b(2) = ( -1.0000  1.0000  0.0000 )  
               b(3) = (  0.0000 -1.0000  1.0000 )  


     Atoms inside the unit cell: 

     Cartesian axes

     site n.  atom      mass           positions (alat units)
        1     Na  22.9900   tau(    1) = (    0.00000    0.00000    0.00000  )

     Computing dynamical matrix for 
                    q = (   0.0000000   0.5000000  -0.5000000 )

      9 Sym.Ops. (with q -> -q+G )


     G cutoff =  490.6247  (   1428 G-vectors)     FFT grid: ( 40, 40, 40)
     G cutoff =  245.3124  (    501 G-vectors)  smooth grid: ( 27, 27, 27)

     number of k points=  2310  Marzari-Vanderbilt smearing, width (Ry)=  0.0200

     PseudoPot. # 1 for Na read from file:
     /home/s1333534/quantum_espresso/qe-6.1/pseudo/Na_pbe_v1.uspp.F.UPF
     MD5 check sum: 76a99c7e9422403d3e93cbc85ab7bccb
     Pseudo is Ultrasoft, Zval =  9.0
     Generated by new atomic code, or converted to UPF format
     Using radial grid of  819 points,  5 beta functions with: 
                l(1) =   0
                l(2) =   0
                l(3) =   1
                l(4) =   1
                l(5) =   2
     Q(r) pseudized with  8 coefficients,  rinner =    1.250   1.250   1.250
                                                       1.250   1.250

     Mode symmetry, D_2h (mmm)  point group:


     Atomic displacements:
     There are   3 irreducible representations

     Representation     1      1 modes -B_1u  To be done

     Representation     2      1 modes -B_2u  To be done

     Representation     3      1 modes -B_3u  To be done



     Alpha used in Ewald sum =   2.8000
     PHONON       : 11m21.07s CPU    12m13.43s WALL



     Representation #  1 mode #   1

     Self-consistent Calculation

      iter #   1 total cpu time :   737.9 secs   av.it.:   5.5
      thresh= 1.000E-02 alpha_mix =  0.700 |ddv_scf|^2 =  1.112E-05

      iter #   2 total cpu time :   743.2 secs   av.it.:   7.7
      thresh= 3.334E-04 alpha_mix =  0.700 |ddv_scf|^2 =  1.643E-07

      iter #   3 total cpu time :   748.4 secs   av.it.:   7.8
      thresh= 4.053E-05 alpha_mix =  0.700 |ddv_scf|^2 =  1.033E-08

      iter #   4 total cpu time :   753.3 secs   av.it.:   7.3
      thresh= 1.017E-05 alpha_mix =  0.700 |ddv_scf|^2 =  3.326E-11

      iter #   5 total cpu time :   758.4 secs   av.it.:   7.6
      thresh= 5.767E-07 alpha_mix =  0.700 |ddv_scf|^2 =  3.138E-14

      iter #   6 total cpu time :   763.3 secs   av.it.:   6.8
      thresh= 1.771E-08 alpha_mix =  0.700 |ddv_scf|^2 =  2.064E-15

      iter #   7 total cpu time :   768.7 secs   av.it.:   7.5
      thresh= 4.544E-09 alpha_mix =  0.700 |ddv_scf|^2 =  1.846E-18

     End of self-consistent calculation

     Convergence has been achieved 


     Representation #  2 mode #   2

     Self-consistent Calculation

      iter #   1 total cpu time :   773.5 secs   av.it.:   5.5
      thresh= 1.000E-02 alpha_mix =  0.700 |ddv_scf|^2 =  9.761E-06

      iter #   2 total cpu time :   778.7 secs   av.it.:   7.7
      thresh= 3.124E-04 alpha_mix =  0.700 |ddv_scf|^2 =  1.646E-07

      iter #   3 total cpu time :   783.9 secs   av.it.:   7.9
      thresh= 4.057E-05 alpha_mix =  0.700 |ddv_scf|^2 =  5.255E-09

      iter #   4 total cpu time :   788.8 secs   av.it.:   7.3
      thresh= 7.249E-06 alpha_mix =  0.700 |ddv_scf|^2 =  1.621E-11

      iter #   5 total cpu time :   794.1 secs   av.it.:   7.6
      thresh= 4.027E-07 alpha_mix =  0.700 |ddv_scf|^2 =  1.930E-14

      iter #   6 total cpu time :   799.0 secs   av.it.:   7.2
      thresh= 1.389E-08 alpha_mix =  0.700 |ddv_scf|^2 =  6.802E-16

      iter #   7 total cpu time :   804.7 secs   av.it.:   7.6
      thresh= 2.608E-09 alpha_mix =  0.700 |ddv_scf|^2 =  4.422E-19

     End of self-consistent calculation

     Convergence has been achieved 


     Representation #  3 mode #   3

     Self-consistent Calculation

      iter #   1 total cpu time :   809.6 secs   av.it.:   5.7
      thresh= 1.000E-02 alpha_mix =  0.700 |ddv_scf|^2 =  8.271E-05

      iter #   2 total cpu time :   814.4 secs   av.it.:   6.8
      thresh= 9.095E-04 alpha_mix =  0.700 |ddv_scf|^2 =  4.167E-05

      iter #   3 total cpu time :   819.1 secs   av.it.:   6.7
      thresh= 6.455E-04 alpha_mix =  0.700 |ddv_scf|^2 =  6.527E-08

      iter #   4 total cpu time :   824.3 secs   av.it.:   7.8
      thresh= 2.555E-05 alpha_mix =  0.700 |ddv_scf|^2 =  2.321E-10

      iter #   5 total cpu time :   829.2 secs   av.it.:   6.7
      thresh= 1.523E-06 alpha_mix =  0.700 |ddv_scf|^2 =  4.305E-12

      iter #   6 total cpu time :   833.7 secs   av.it.:   6.8
      thresh= 2.075E-07 alpha_mix =  0.700 |ddv_scf|^2 =  1.469E-14

      iter #   7 total cpu time :   838.7 secs   av.it.:   7.3
      thresh= 1.212E-08 alpha_mix =  0.700 |ddv_scf|^2 =  4.695E-17

     End of self-consistent calculation

     Convergence has been achieved 

     Number of q in the star =    6
     List of q in the star:
          1   0.000000000   0.500000000  -0.500000000
          2  -0.500000000  -0.500000000   0.000000000
          3   0.500000000  -0.500000000   0.000000000
          4   0.500000000   0.000000000   0.500000000
          5   0.000000000  -0.500000000  -0.500000000
          6   0.500000000   0.000000000  -0.500000000

     Diagonalizing the dynamical matrix

     q = (    0.000000000   0.500000000  -0.500000000 ) 

 **************************************************************************
     freq (    1) =       1.018765 [THz] =      33.982346 [cm-1]
     freq (    2) =       2.770404 [THz] =      92.410716 [cm-1]
     freq (    3) =       4.283044 [THz] =     142.866955 [cm-1]
 **************************************************************************

     Mode symmetry, D_2h (mmm)  point group:

     freq (  1 -  1) =         34.0  [cm-1]   --> B_2u               
     freq (  2 -  2) =         92.4  [cm-1]   --> B_1u               
     freq (  3 -  3) =        142.9  [cm-1]   --> B_3u               

     Calculation of q =   -0.1666667  -0.1666667   0.3333333

   Info: using nr1, nr2, nr3 values from input

   Info: using nr1, nr2, nr3 values from input

     Parallelization info
     --------------------
     sticks:   dense  smooth     PW     G-vecs:    dense   smooth      PW
     Min          68      33     11                 1426      498      99
     Max          69      34     12                 1428      501     101
     Sum        1097     541    181                22831     8007    1601



     bravais-lattice index     =            3
     lattice parameter (alat)  =       7.7800  a.u.
     unit-cell volume          =     235.4555 (a.u.)^3
     number of atoms/cell      =            1
     number of atomic types    =            1
     number of electrons       =         9.00
     number of Kohn-Sham states=            9
     kinetic-energy cutoff     =      40.0000  Ry
     charge density cutoff     =     320.0000  Ry
     Exchange-correlation      = SLA  PW   PBE  PBE ( 1  4  3  4 0 0)

     celldm(1)=   7.780000  celldm(2)=   0.000000  celldm(3)=   0.000000
     celldm(4)=   0.000000  celldm(5)=   0.000000  celldm(6)=   0.000000

     crystal axes: (cart. coord. in units of alat)
               a(1) = (   0.500000   0.500000   0.500000 )  
               a(2) = (  -0.500000   0.500000   0.500000 )  
               a(3) = (  -0.500000  -0.500000   0.500000 )  

     reciprocal axes: (cart. coord. in units 2 pi/alat)
               b(1) = (  1.000000  0.000000  1.000000 )  
               b(2) = ( -1.000000  1.000000  0.000000 )  
               b(3) = (  0.000000 -1.000000  1.000000 )  


     PseudoPot. # 1 for Na read from file:
     /home/s1333534/quantum_espresso/qe-6.1/pseudo/Na_pbe_v1.uspp.F.UPF
     MD5 check sum: 76a99c7e9422403d3e93cbc85ab7bccb
     Pseudo is Ultrasoft, Zval =  9.0
     Generated by new atomic code, or converted to UPF format
     Using radial grid of  819 points,  5 beta functions with: 
                l(1) =   0
                l(2) =   0
                l(3) =   1
                l(4) =   1
                l(5) =   2
     Q(r) pseudized with  8 coefficients,  rinner =    1.250   1.250   1.250
                                                       1.250   1.250

     atomic species   valence    mass     pseudopotential
        Na             9.00    22.99000     Na( 1.00)

     48 Sym. Ops., with inversion, found



   Cartesian axes

     site n.     atom                  positions (alat units)
         1           Na  tau(   1) = (   0.0000000   0.0000000   0.0000000  )

     number of k points=  8400  Marzari-Vanderbilt smearing, width (Ry)=  0.0200

     Number of k-points >= 100: set verbosity='high' to print them.

     Dense  grid:    22831 G-vectors     FFT dimensions: (  40,  40,  40)

     Smooth grid:     8007 G-vectors     FFT dimensions: (  27,  27,  27)

     Estimated max dynamical RAM per process >       0.78MB

     Estimated total allocated dynamical RAM >      50.17MB

     The potential is recalculated from file :
     ./_ph0/na.bcc.save/charge-density.dat

     Starting wfc are    5 atomic +    4 random wfc

     Band Structure Calculation
     Davidson diagonalization with overlap

     ethr =  1.11E-10,  avg # of iterations = 20.8

     total cpu time spent up to now is      349.2 secs

     End of band structure calculation

     Number of k-points >= 100: set verbosity='high' to print the bands.

     the Fermi energy is     1.8667 ev

     Writing output data file na.bcc.save

                                                                                

     bravais-lattice index     =            3
     lattice parameter (alat)  =       7.7800  a.u.
     unit-cell volume          =     235.4555 (a.u.)^3
     number of atoms/cell      =            1
     number of atomic types    =            1
     kinetic-energy cut-off    =      40.0000  Ry
     charge density cut-off    =     320.0000  Ry
     convergence threshold     =      1.0E-16
     beta                      =       0.7000
     number of iterations used =            4
     Exchange-correlation      = SLA  PW   PBE  PBE ( 1  4  3  4 0 0)


     celldm(1)=    7.78000  celldm(2)=    0.00000  celldm(3)=    0.00000
     celldm(4)=    0.00000  celldm(5)=    0.00000  celldm(6)=    0.00000

     crystal axes: (cart. coord. in units of alat)
               a(1) = (  0.5000  0.5000  0.5000 )  
               a(2) = ( -0.5000  0.5000  0.5000 )  
               a(3) = ( -0.5000 -0.5000  0.5000 )  

     reciprocal axes: (cart. coord. in units 2 pi/alat)
               b(1) = (  1.0000  0.0000  1.0000 )  
               b(2) = ( -1.0000  1.0000  0.0000 )  
               b(3) = (  0.0000 -1.0000  1.0000 )  


     Atoms inside the unit cell: 

     Cartesian axes

     site n.  atom      mass           positions (alat units)
        1     Na  22.9900   tau(    1) = (    0.00000    0.00000    0.00000  )

     Computing dynamical matrix for 
                    q = (  -0.1666667  -0.1666667   0.3333333 )

      2 Sym.Ops. (no q -> -q+G )


     G cutoff =  490.6247  (   1428 G-vectors)     FFT grid: ( 40, 40, 40)
     G cutoff =  245.3124  (    501 G-vectors)  smooth grid: ( 27, 27, 27)

     number of k points=  8400  Marzari-Vanderbilt smearing, width (Ry)=  0.0200

     PseudoPot. # 1 for Na read from file:
     /home/s1333534/quantum_espresso/qe-6.1/pseudo/Na_pbe_v1.uspp.F.UPF
     MD5 check sum: 76a99c7e9422403d3e93cbc85ab7bccb
     Pseudo is Ultrasoft, Zval =  9.0
     Generated by new atomic code, or converted to UPF format
     Using radial grid of  819 points,  5 beta functions with: 
                l(1) =   0
                l(2) =   0
                l(3) =   1
                l(4) =   1
                l(5) =   2
     Q(r) pseudized with  8 coefficients,  rinner =    1.250   1.250   1.250
                                                       1.250   1.250

     Mode symmetry, C_s (m)     point group:


     Atomic displacements:
     There are   3 irreducible representations

     Representation     1      1 modes -A'  To be done

     Representation     2      1 modes -A'  To be done

     Representation     3      1 modes -A''  To be done



     Alpha used in Ewald sum =   2.8000
     PHONON       : 15m37.48s CPU    16m46.49s WALL



     Representation #  1 mode #   1

     Self-consistent Calculation

      iter #   1 total cpu time :  1022.5 secs   av.it.:   5.6
      thresh= 1.000E-02 alpha_mix =  0.700 |ddv_scf|^2 =  1.018E-04

      iter #   2 total cpu time :  1039.4 secs   av.it.:   7.3
      thresh= 1.009E-03 alpha_mix =  0.700 |ddv_scf|^2 =  1.098E-03

      iter #   3 total cpu time :  1053.0 secs   av.it.:   5.4
      thresh= 3.314E-03 alpha_mix =  0.700 |ddv_scf|^2 =  1.378E-07

      iter #   4 total cpu time :  1071.5 secs   av.it.:   8.3
      thresh= 3.712E-05 alpha_mix =  0.700 |ddv_scf|^2 =  5.685E-09

      iter #   5 total cpu time :  1089.2 secs   av.it.:   7.9
      thresh= 7.540E-06 alpha_mix =  0.700 |ddv_scf|^2 =  1.607E-10

      iter #   6 total cpu time :  1107.6 secs   av.it.:   8.3
      thresh= 1.268E-06 alpha_mix =  0.700 |ddv_scf|^2 =  1.773E-11

      iter #   7 total cpu time :  1126.0 secs   av.it.:   8.0
      thresh= 4.210E-07 alpha_mix =  0.700 |ddv_scf|^2 =  3.350E-11

      iter #   8 total cpu time :  1142.6 secs   av.it.:   7.3
      thresh= 5.788E-07 alpha_mix =  0.700 |ddv_scf|^2 =  2.837E-11

      iter #   9 total cpu time :  1159.1 secs   av.it.:   6.9
      thresh= 5.326E-07 alpha_mix =  0.700 |ddv_scf|^2 =  9.952E-13

      iter #  10 total cpu time :  1175.8 secs   av.it.:   7.1
      thresh= 9.976E-08 alpha_mix =  0.700 |ddv_scf|^2 =  3.440E-15

      iter #  11 total cpu time :  1195.0 secs   av.it.:   8.3
      thresh= 5.865E-09 alpha_mix =  0.700 |ddv_scf|^2 =  1.738E-16

      iter #  12 total cpu time :  1212.6 secs   av.it.:   7.8
      thresh= 1.318E-09 alpha_mix =  0.700 |ddv_scf|^2 =  1.020E-17

     End of self-consistent calculation

     Convergence has been achieved 


     Representation #  2 mode #   2

     Self-consistent Calculation

      iter #   1 total cpu time :  1229.7 secs   av.it.:   5.8
      thresh= 1.000E-02 alpha_mix =  0.700 |ddv_scf|^2 =  8.306E-04

      iter #   2 total cpu time :  1245.6 secs   av.it.:   6.7
      thresh= 2.882E-03 alpha_mix =  0.700 |ddv_scf|^2 =  9.773E-03

      iter #   3 total cpu time :  1259.7 secs   av.it.:   5.4
      thresh= 9.886E-03 alpha_mix =  0.700 |ddv_scf|^2 =  8.875E-07

      iter #   4 total cpu time :  1277.2 secs   av.it.:   7.7
      thresh= 9.421E-05 alpha_mix =  0.700 |ddv_scf|^2 =  6.271E-09

      iter #   5 total cpu time :  1296.0 secs   av.it.:   8.3
      thresh= 7.919E-06 alpha_mix =  0.700 |ddv_scf|^2 =  5.776E-10

      iter #   6 total cpu time :  1314.3 secs   av.it.:   8.2
      thresh= 2.403E-06 alpha_mix =  0.700 |ddv_scf|^2 =  2.197E-11

      iter #   7 total cpu time :  1332.8 secs   av.it.:   8.2
      thresh= 4.688E-07 alpha_mix =  0.700 |ddv_scf|^2 =  5.011E-11

      iter #   8 total cpu time :  1348.3 secs   av.it.:   6.3
      thresh= 7.079E-07 alpha_mix =  0.700 |ddv_scf|^2 =  2.146E-12

      iter #   9 total cpu time :  1366.0 secs   av.it.:   7.5
      thresh= 1.465E-07 alpha_mix =  0.700 |ddv_scf|^2 =  3.768E-13

      iter #  10 total cpu time :  1382.5 secs   av.it.:   7.2
      thresh= 6.139E-08 alpha_mix =  0.700 |ddv_scf|^2 =  2.926E-14

      iter #  11 total cpu time :  1400.4 secs   av.it.:   7.8
      thresh= 1.711E-08 alpha_mix =  0.700 |ddv_scf|^2 =  1.121E-16

      iter #  12 total cpu time :  1418.3 secs   av.it.:   7.7
      thresh= 1.059E-09 alpha_mix =  0.700 |ddv_scf|^2 =  7.533E-18

     End of self-consistent calculation

     Convergence has been achieved 


     Representation #  3 mode #   3

     Self-consistent Calculation

      iter #   1 total cpu time :  1434.5 secs   av.it.:   5.5
      thresh= 1.000E-02 alpha_mix =  0.700 |ddv_scf|^2 =  1.116E-05

      iter #   2 total cpu time :  1454.0 secs   av.it.:   7.8
      thresh= 3.341E-04 alpha_mix =  0.700 |ddv_scf|^2 =  1.610E-07

      iter #   3 total cpu time :  1472.0 secs   av.it.:   8.0
      thresh= 4.012E-05 alpha_mix =  0.700 |ddv_scf|^2 =  8.751E-09

      iter #   4 total cpu time :  1489.8 secs   av.it.:   7.7
      thresh= 9.355E-06 alpha_mix =  0.700 |ddv_scf|^2 =  6.932E-11

      iter #   5 total cpu time :  1507.1 secs   av.it.:   7.6
      thresh= 8.326E-07 alpha_mix =  0.700 |ddv_scf|^2 =  5.786E-14

      iter #   6 total cpu time :  1524.4 secs   av.it.:   7.5
      thresh= 2.405E-08 alpha_mix =  0.700 |ddv_scf|^2 =  2.936E-15

      iter #   7 total cpu time :  1541.9 secs   av.it.:   7.5
      thresh= 5.418E-09 alpha_mix =  0.700 |ddv_scf|^2 =  1.080E-17

     End of self-consistent calculation

     Convergence has been achieved 

     Number of q in the star =   24
     List of q in the star:
          1  -0.166666667  -0.166666667   0.333333333
          2  -0.166666667  -0.333333333   0.166666667
          3   0.166666667  -0.333333333   0.166666667
          4  -0.166666667   0.333333333  -0.166666667
          5   0.166666667   0.333333333  -0.166666667
          6   0.166666667   0.166666667  -0.333333333
          7  -0.166666667   0.166666667  -0.333333333
          8   0.333333333   0.166666667  -0.166666667
          9  -0.333333333   0.166666667   0.166666667
         10   0.333333333  -0.166666667   0.166666667
         11  -0.333333333  -0.166666667  -0.166666667
         12  -0.166666667  -0.166666667  -0.333333333
         13  -0.166666667   0.333333333   0.166666667
         14  -0.166666667  -0.333333333  -0.166666667
         15  -0.166666667   0.166666667   0.333333333
         16   0.166666667  -0.166666667   0.333333333
         17   0.166666667  -0.333333333  -0.166666667
         18  -0.333333333   0.166666667  -0.166666667
         19   0.333333333   0.166666667   0.166666667
         20  -0.333333333  -0.166666667   0.166666667
         21   0.333333333  -0.166666667  -0.166666667
         22   0.166666667  -0.166666667  -0.333333333
         23   0.166666667   0.166666667   0.333333333
         24   0.166666667   0.333333333   0.166666667

     Diagonalizing the dynamical matrix

     q = (   -0.166666667  -0.166666667   0.333333333 ) 

 **************************************************************************
     freq (    1) =       1.362355 [THz] =      45.443264 [cm-1]
     freq (    2) =       2.132684 [THz] =      71.138665 [cm-1]
     freq (    3) =       3.332163 [THz] =     111.148999 [cm-1]
 **************************************************************************

     Mode symmetry, C_s (m)     point group:

     freq (  1 -  1) =         45.4  [cm-1]   --> A'                 
     freq (  2 -  2) =         71.1  [cm-1]   --> A''                
     freq (  3 -  3) =        111.1  [cm-1]   --> A'                 

     Calculation of q =   -0.1666667   0.6666667  -0.5000000

   Info: using nr1, nr2, nr3 values from input

   Info: using nr1, nr2, nr3 values from input

     Parallelization info
     --------------------
     sticks:   dense  smooth     PW     G-vecs:    dense   smooth      PW
     Min          68      33     12                 1426      498     115
     Max          69      34     13                 1428      501     118
     Sum        1097     541    205                22831     8007    1865



     bravais-lattice index     =            3
     lattice parameter (alat)  =       7.7800  a.u.
     unit-cell volume          =     235.4555 (a.u.)^3
     number of atoms/cell      =            1
     number of atomic types    =            1
     number of electrons       =         9.00
     number of Kohn-Sham states=            9
     kinetic-energy cutoff     =      40.0000  Ry
     charge density cutoff     =     320.0000  Ry
     Exchange-correlation      = SLA  PW   PBE  PBE ( 1  4  3  4 0 0)

     celldm(1)=   7.780000  celldm(2)=   0.000000  celldm(3)=   0.000000
     celldm(4)=   0.000000  celldm(5)=   0.000000  celldm(6)=   0.000000

     crystal axes: (cart. coord. in units of alat)
               a(1) = (   0.500000   0.500000   0.500000 )  
               a(2) = (  -0.500000   0.500000   0.500000 )  
               a(3) = (  -0.500000  -0.500000   0.500000 )  

     reciprocal axes: (cart. coord. in units 2 pi/alat)
               b(1) = (  1.000000  0.000000  1.000000 )  
               b(2) = ( -1.000000  1.000000  0.000000 )  
               b(3) = (  0.000000 -1.000000  1.000000 )  


     PseudoPot. # 1 for Na read from file:
     /home/s1333534/quantum_espresso/qe-6.1/pseudo/Na_pbe_v1.uspp.F.UPF
     MD5 check sum: 76a99c7e9422403d3e93cbc85ab7bccb
     Pseudo is Ultrasoft, Zval =  9.0
     Generated by new atomic code, or converted to UPF format
     Using radial grid of  819 points,  5 beta functions with: 
                l(1) =   0
                l(2) =   0
                l(3) =   1
                l(4) =   1
                l(5) =   2
     Q(r) pseudized with  8 coefficients,  rinner =    1.250   1.250   1.250
                                                       1.250   1.250

     atomic species   valence    mass     pseudopotential
        Na             9.00    22.99000     Na( 1.00)

     48 Sym. Ops., with inversion, found



   Cartesian axes

     site n.     atom                  positions (alat units)
         1           Na  tau(   1) = (   0.0000000   0.0000000   0.0000000  )

     number of k points= 16000  Marzari-Vanderbilt smearing, width (Ry)=  0.0200

     Number of k-points >= 100: set verbosity='high' to print them.

     Dense  grid:    22831 G-vectors     FFT dimensions: (  40,  40,  40)

     Smooth grid:     8007 G-vectors     FFT dimensions: (  27,  27,  27)

     Estimated max dynamical RAM per process >       0.78MB

     Estimated total allocated dynamical RAM >      50.17MB

     The potential is recalculated from file :
     ./_ph0/na.bcc.save/charge-density.dat

     Starting wfc are    5 atomic +    4 random wfc

     Band Structure Calculation
     Davidson diagonalization with overlap

     ethr =  1.11E-10,  avg # of iterations = 20.7

     total cpu time spent up to now is      634.4 secs

     End of band structure calculation

     Number of k-points >= 100: set verbosity='high' to print the bands.

     the Fermi energy is     1.8667 ev

     Writing output data file na.bcc.save

                                                                                

     bravais-lattice index     =            3
     lattice parameter (alat)  =       7.7800  a.u.
     unit-cell volume          =     235.4555 (a.u.)^3
     number of atoms/cell      =            1
     number of atomic types    =            1
     kinetic-energy cut-off    =      40.0000  Ry
     charge density cut-off    =     320.0000  Ry
     convergence threshold     =      1.0E-16
     beta                      =       0.7000
     number of iterations used =            4
     Exchange-correlation      = SLA  PW   PBE  PBE ( 1  4  3  4 0 0)


     celldm(1)=    7.78000  celldm(2)=    0.00000  celldm(3)=    0.00000
     celldm(4)=    0.00000  celldm(5)=    0.00000  celldm(6)=    0.00000

     crystal axes: (cart. coord. in units of alat)
               a(1) = (  0.5000  0.5000  0.5000 )  
               a(2) = ( -0.5000  0.5000  0.5000 )  
               a(3) = ( -0.5000 -0.5000  0.5000 )  

     reciprocal axes: (cart. coord. in units 2 pi/alat)
               b(1) = (  1.0000  0.0000  1.0000 )  
               b(2) = ( -1.0000  1.0000  0.0000 )  
               b(3) = (  0.0000 -1.0000  1.0000 )  


     Atoms inside the unit cell: 

     Cartesian axes

     site n.  atom      mass           positions (alat units)
        1     Na  22.9900   tau(    1) = (    0.00000    0.00000    0.00000  )

     Computing dynamical matrix for 
                    q = (  -0.1666667   0.6666667  -0.5000000 )

     No symmetry!

     G cutoff =  490.6247  (   1428 G-vectors)     FFT grid: ( 40, 40, 40)
     G cutoff =  245.3124  (    501 G-vectors)  smooth grid: ( 27, 27, 27)

     number of k points= 16000  Marzari-Vanderbilt smearing, width (Ry)=  0.0200

     PseudoPot. # 1 for Na read from file:
     /home/s1333534/quantum_espresso/qe-6.1/pseudo/Na_pbe_v1.uspp.F.UPF
     MD5 check sum: 76a99c7e9422403d3e93cbc85ab7bccb
     Pseudo is Ultrasoft, Zval =  9.0
     Generated by new atomic code, or converted to UPF format
     Using radial grid of  819 points,  5 beta functions with: 
                l(1) =   0
                l(2) =   0
                l(3) =   1
                l(4) =   1
                l(5) =   2
     Q(r) pseudized with  8 coefficients,  rinner =    1.250   1.250   1.250
                                                       1.250   1.250

     Mode symmetry, C_1 (1)     point group:


     Atomic displacements:
     There are   3 irreducible representations

     Representation     1      1 modes -A  To be done

     Representation     2      1 modes -A  To be done

     Representation     3      1 modes -A  To be done



     Alpha used in Ewald sum =   2.8000
     PHONON       : 28m49.40s CPU    31m 2.22s WALL



     Representation #  1 mode #   1

     Self-consistent Calculation

      iter #   1 total cpu time :  1894.1 secs   av.it.:   5.7
      thresh= 1.000E-02 alpha_mix =  0.700 |ddv_scf|^2 =  1.219E-05

      iter #   2 total cpu time :  1931.2 secs   av.it.:   8.1
      thresh= 3.492E-04 alpha_mix =  0.700 |ddv_scf|^2 =  1.481E-06

      iter #   3 total cpu time :  1965.7 secs   av.it.:   7.6
      thresh= 1.217E-04 alpha_mix =  0.700 |ddv_scf|^2 =  6.914E-07

      iter #   4 total cpu time :  1999.3 secs   av.it.:   7.3
      thresh= 8.315E-05 alpha_mix =  0.700 |ddv_scf|^2 =  4.670E-09

      iter #   5 total cpu time :  2035.0 secs   av.it.:   7.9
      thresh= 6.834E-06 alpha_mix =  0.700 |ddv_scf|^2 =  3.812E-10

      iter #   6 total cpu time :  2070.5 secs   av.it.:   7.9
      thresh= 1.952E-06 alpha_mix =  0.700 |ddv_scf|^2 =  4.221E-12

      iter #   7 total cpu time :  2109.1 secs   av.it.:   8.4
      thresh= 2.054E-07 alpha_mix =  0.700 |ddv_scf|^2 =  2.566E-13

      iter #   8 total cpu time :  2147.9 secs   av.it.:   8.5
      thresh= 5.066E-08 alpha_mix =  0.700 |ddv_scf|^2 =  1.313E-14

      iter #   9 total cpu time :  2184.9 secs   av.it.:   8.5
      thresh= 1.146E-08 alpha_mix =  0.700 |ddv_scf|^2 =  2.323E-16

      iter #  10 total cpu time :  2221.1 secs   av.it.:   7.7
      thresh= 1.524E-09 alpha_mix =  0.700 |ddv_scf|^2 =  1.313E-16

      iter #  11 total cpu time :  2254.8 secs   av.it.:   7.3
      thresh= 1.146E-09 alpha_mix =  0.700 |ddv_scf|^2 =  2.220E-18

     End of self-consistent calculation

     Convergence has been achieved 


     Representation #  2 mode #   2

     Self-consistent Calculation

      iter #   1 total cpu time :  2288.1 secs   av.it.:   5.8
      thresh= 1.000E-02 alpha_mix =  0.700 |ddv_scf|^2 =  5.071E-05

      iter #   2 total cpu time :  2323.1 secs   av.it.:   7.6
      thresh= 7.121E-04 alpha_mix =  0.700 |ddv_scf|^2 =  4.490E-05

      iter #   3 total cpu time :  2355.4 secs   av.it.:   6.9
      thresh= 6.701E-04 alpha_mix =  0.700 |ddv_scf|^2 =  9.480E-08

      iter #   4 total cpu time :  2392.7 secs   av.it.:   8.3
      thresh= 3.079E-05 alpha_mix =  0.700 |ddv_scf|^2 =  3.990E-09

      iter #   5 total cpu time :  2429.7 secs   av.it.:   8.3
      thresh= 6.316E-06 alpha_mix =  0.700 |ddv_scf|^2 =  3.108E-10

      iter #   6 total cpu time :  2467.2 secs   av.it.:   8.3
      thresh= 1.763E-06 alpha_mix =  0.700 |ddv_scf|^2 =  9.743E-12

      iter #   7 total cpu time :  2502.8 secs   av.it.:   7.9
      thresh= 3.121E-07 alpha_mix =  0.700 |ddv_scf|^2 =  5.460E-13

      iter #   8 total cpu time :  2538.7 secs   av.it.:   7.9
      thresh= 7.389E-08 alpha_mix =  0.700 |ddv_scf|^2 =  1.480E-14

      iter #   9 total cpu time :  2573.6 secs   av.it.:   7.5
      thresh= 1.217E-08 alpha_mix =  0.700 |ddv_scf|^2 =  1.444E-15

      iter #  10 total cpu time :  2607.8 secs   av.it.:   7.3
      thresh= 3.800E-09 alpha_mix =  0.700 |ddv_scf|^2 =  3.863E-17

     End of self-consistent calculation

     Convergence has been achieved 


     Representation #  3 mode #   3

     Self-consistent Calculation

      iter #   1 total cpu time :  2640.9 secs   av.it.:   5.8
      thresh= 1.000E-02 alpha_mix =  0.700 |ddv_scf|^2 =  5.666E-05

      iter #   2 total cpu time :  2678.1 secs   av.it.:   7.6
      thresh= 7.527E-04 alpha_mix =  0.700 |ddv_scf|^2 =  4.509E-05

      iter #   3 total cpu time :  2710.6 secs   av.it.:   6.9
      thresh= 6.715E-04 alpha_mix =  0.700 |ddv_scf|^2 =  3.244E-07

      iter #   4 total cpu time :  2747.6 secs   av.it.:   7.8
      thresh= 5.696E-05 alpha_mix =  0.700 |ddv_scf|^2 =  7.643E-09

      iter #   5 total cpu time :  2784.8 secs   av.it.:   8.3
      thresh= 8.742E-06 alpha_mix =  0.700 |ddv_scf|^2 =  2.168E-10

      iter #   6 total cpu time :  2821.7 secs   av.it.:   8.3
      thresh= 1.472E-06 alpha_mix =  0.700 |ddv_scf|^2 =  1.569E-11

      iter #   7 total cpu time :  2858.4 secs   av.it.:   8.3
      thresh= 3.961E-07 alpha_mix =  0.700 |ddv_scf|^2 =  8.515E-13

      iter #   8 total cpu time :  2895.6 secs   av.it.:   8.5
      thresh= 9.228E-08 alpha_mix =  0.700 |ddv_scf|^2 =  5.434E-14

      iter #   9 total cpu time :  2930.0 secs   av.it.:   7.5
      thresh= 2.331E-08 alpha_mix =  0.700 |ddv_scf|^2 =  4.144E-15

      iter #  10 total cpu time :  2965.3 secs   av.it.:   7.7
      thresh= 6.437E-09 alpha_mix =  0.700 |ddv_scf|^2 =  6.198E-17

     End of self-consistent calculation

     Convergence has been achieved 

     Number of q in the star =   48
     List of q in the star:
          1  -0.166666667   0.666666667  -0.500000000
          2   0.666666667  -0.166666667  -0.500000000
          3  -0.166666667   0.500000000  -0.666666667
          4   0.166666667   0.500000000  -0.666666667
          5  -0.166666667  -0.500000000   0.666666667
          6   0.166666667  -0.500000000   0.666666667
          7   0.166666667  -0.666666667   0.500000000
          8  -0.166666667  -0.666666667   0.500000000
          9  -0.500000000  -0.666666667  -0.166666667
         10   0.500000000  -0.666666667   0.166666667
         11  -0.500000000   0.666666667   0.166666667
         12   0.500000000   0.666666667  -0.166666667
         13   0.666666667  -0.166666667   0.500000000
         14   0.666666667  -0.500000000  -0.166666667
         15  -0.166666667  -0.500000000  -0.666666667
         16  -0.166666667   0.500000000   0.666666667
         17   0.666666667   0.166666667  -0.500000000
         18   0.166666667   0.666666667  -0.500000000
         19   0.666666667   0.500000000   0.166666667
         20  -0.666666667   0.500000000  -0.166666667
         21   0.500000000   0.166666667   0.666666667
         22  -0.500000000   0.166666667  -0.666666667
         23   0.500000000   0.666666667   0.166666667
         24   0.500000000  -0.166666667  -0.666666667
         25  -0.666666667   0.166666667   0.500000000
         26  -0.166666667   0.666666667   0.500000000
         27  -0.500000000  -0.166666667   0.666666667
         28   0.166666667   0.666666667   0.500000000
         29  -0.500000000   0.666666667  -0.166666667
         30  -0.666666667  -0.166666667  -0.500000000
         31  -0.666666667  -0.166666667   0.500000000
         32   0.666666667   0.166666667   0.500000000
         33   0.166666667  -0.666666667  -0.500000000
         34  -0.666666667   0.166666667  -0.500000000
         35   0.500000000  -0.666666667  -0.166666667
         36  -0.500000000  -0.666666667   0.166666667
         37  -0.166666667  -0.666666667  -0.500000000
         38  -0.666666667  -0.500000000   0.166666667
         39   0.166666667   0.500000000   0.666666667
         40   0.166666667  -0.500000000  -0.666666667
         41  -0.666666667   0.500000000   0.166666667
         42   0.666666667   0.500000000  -0.166666667
         43  -0.666666667  -0.500000000  -0.166666667
         44   0.666666667  -0.500000000   0.166666667
         45   0.500000000   0.166666667  -0.666666667
         46   0.500000000  -0.166666667   0.666666667
         47  -0.500000000  -0.166666667  -0.666666667
         48  -0.500000000   0.166666667   0.666666667

     Diagonalizing the dynamical matrix

     q = (   -0.166666667   0.666666667  -0.500000000 ) 

 **************************************************************************
     freq (    1) =       1.628495 [THz] =      54.320740 [cm-1]
     freq (    2) =       2.950951 [THz] =      98.433139 [cm-1]
     freq (    3) =       4.070033 [THz] =     135.761700 [cm-1]
 **************************************************************************

     Mode symmetry, C_1 (1)     point group:

     freq (  1 -  1) =         54.3  [cm-1]   --> A                  
     freq (  2 -  2) =         98.4  [cm-1]   --> A                  
     freq (  3 -  3) =        135.8  [cm-1]   --> A                  

     Calculation of q =   -0.3333333   0.6666667  -0.3333333

   Info: using nr1, nr2, nr3 values from input

   Info: using nr1, nr2, nr3 values from input

     Parallelization info
     --------------------
     sticks:   dense  smooth     PW     G-vecs:    dense   smooth      PW
     Min          68      33     12                 1426      498     115
     Max          69      34     13                 1428      501     118
     Sum        1097     541    205                22831     8007    1865



     bravais-lattice index     =            3
     lattice parameter (alat)  =       7.7800  a.u.
     unit-cell volume          =     235.4555 (a.u.)^3
     number of atoms/cell      =            1
     number of atomic types    =            1
     number of electrons       =         9.00
     number of Kohn-Sham states=            9
     kinetic-energy cutoff     =      40.0000  Ry
     charge density cutoff     =     320.0000  Ry
     Exchange-correlation      = SLA  PW   PBE  PBE ( 1  4  3  4 0 0)

     celldm(1)=   7.780000  celldm(2)=   0.000000  celldm(3)=   0.000000
     celldm(4)=   0.000000  celldm(5)=   0.000000  celldm(6)=   0.000000

     crystal axes: (cart. coord. in units of alat)
               a(1) = (   0.500000   0.500000   0.500000 )  
               a(2) = (  -0.500000   0.500000   0.500000 )  
               a(3) = (  -0.500000  -0.500000   0.500000 )  

     reciprocal axes: (cart. coord. in units 2 pi/alat)
               b(1) = (  1.000000  0.000000  1.000000 )  
               b(2) = ( -1.000000  1.000000  0.000000 )  
               b(3) = (  0.000000 -1.000000  1.000000 )  


     PseudoPot. # 1 for Na read from file:
     /home/s1333534/quantum_espresso/qe-6.1/pseudo/Na_pbe_v1.uspp.F.UPF
     MD5 check sum: 76a99c7e9422403d3e93cbc85ab7bccb
     Pseudo is Ultrasoft, Zval =  9.0
     Generated by new atomic code, or converted to UPF format
     Using radial grid of  819 points,  5 beta functions with: 
                l(1) =   0
                l(2) =   0
                l(3) =   1
                l(4) =   1
                l(5) =   2
     Q(r) pseudized with  8 coefficients,  rinner =    1.250   1.250   1.250
                                                       1.250   1.250

     atomic species   valence    mass     pseudopotential
        Na             9.00    22.99000     Na( 1.00)

     48 Sym. Ops., with inversion, found



   Cartesian axes

     site n.     atom                  positions (alat units)
         1           Na  tau(   1) = (   0.0000000   0.0000000   0.0000000  )

     number of k points=  3080  Marzari-Vanderbilt smearing, width (Ry)=  0.0200

     Number of k-points >= 100: set verbosity='high' to print them.

     Dense  grid:    22831 G-vectors     FFT dimensions: (  40,  40,  40)

     Smooth grid:     8007 G-vectors     FFT dimensions: (  27,  27,  27)

     Estimated max dynamical RAM per process >       0.78MB

     Estimated total allocated dynamical RAM >      50.17MB

     The potential is recalculated from file :
     ./_ph0/na.bcc.save/charge-density.dat

     Starting wfc are    5 atomic +    4 random wfc

     Band Structure Calculation
     Davidson diagonalization with overlap

     ethr =  1.11E-10,  avg # of iterations = 21.1

     total cpu time spent up to now is      732.7 secs

     End of band structure calculation

     Number of k-points >= 100: set verbosity='high' to print the bands.

     the Fermi energy is     1.8667 ev

     Writing output data file na.bcc.save

                                                                                

     bravais-lattice index     =            3
     lattice parameter (alat)  =       7.7800  a.u.
     unit-cell volume          =     235.4555 (a.u.)^3
     number of atoms/cell      =            1
     number of atomic types    =            1
     kinetic-energy cut-off    =      40.0000  Ry
     charge density cut-off    =     320.0000  Ry
     convergence threshold     =      1.0E-16
     beta                      =       0.7000
     number of iterations used =            4
     Exchange-correlation      = SLA  PW   PBE  PBE ( 1  4  3  4 0 0)


     celldm(1)=    7.78000  celldm(2)=    0.00000  celldm(3)=    0.00000
     celldm(4)=    0.00000  celldm(5)=    0.00000  celldm(6)=    0.00000

     crystal axes: (cart. coord. in units of alat)
               a(1) = (  0.5000  0.5000  0.5000 )  
               a(2) = ( -0.5000  0.5000  0.5000 )  
               a(3) = ( -0.5000 -0.5000  0.5000 )  

     reciprocal axes: (cart. coord. in units 2 pi/alat)
               b(1) = (  1.0000  0.0000  1.0000 )  
               b(2) = ( -1.0000  1.0000  0.0000 )  
               b(3) = (  0.0000 -1.0000  1.0000 )  


     Atoms inside the unit cell: 

     Cartesian axes

     site n.  atom      mass           positions (alat units)
        1     Na  22.9900   tau(    1) = (    0.00000    0.00000    0.00000  )

     Computing dynamical matrix for 
                    q = (  -0.3333333   0.6666667  -0.3333333 )

      6 Sym.Ops. (no q -> -q+G )


     G cutoff =  490.6247  (   1428 G-vectors)     FFT grid: ( 40, 40, 40)
     G cutoff =  245.3124  (    501 G-vectors)  smooth grid: ( 27, 27, 27)

     number of k points=  3080  Marzari-Vanderbilt smearing, width (Ry)=  0.0200

     PseudoPot. # 1 for Na read from file:
     /home/s1333534/quantum_espresso/qe-6.1/pseudo/Na_pbe_v1.uspp.F.UPF
     MD5 check sum: 76a99c7e9422403d3e93cbc85ab7bccb
     Pseudo is Ultrasoft, Zval =  9.0
     Generated by new atomic code, or converted to UPF format
     Using radial grid of  819 points,  5 beta functions with: 
                l(1) =   0
                l(2) =   0
                l(3) =   1
                l(4) =   1
                l(5) =   2
     Q(r) pseudized with  8 coefficients,  rinner =    1.250   1.250   1.250
                                                       1.250   1.250

     Mode symmetry, C_3v (3m)   point group:


     Atomic displacements:
     There are   2 irreducible representations

     Representation     1      1 modes -A_1  L_1  To be done

     Representation     2      2 modes -E    L_3  To be done



     Alpha used in Ewald sum =   2.8000
     PHONON       : 46m29.35s CPU    50m30.35s WALL



     Representation #  1 mode #   1

     Self-consistent Calculation

      iter #   1 total cpu time :  3036.5 secs   av.it.:   5.4
      thresh= 1.000E-02 alpha_mix =  0.700 |ddv_scf|^2 =  1.044E-05

      iter #   2 total cpu time :  3043.8 secs   av.it.:   7.8
      thresh= 3.231E-04 alpha_mix =  0.700 |ddv_scf|^2 =  1.647E-07

      iter #   3 total cpu time :  3050.8 secs   av.it.:   8.0
      thresh= 4.059E-05 alpha_mix =  0.700 |ddv_scf|^2 =  7.700E-09

      iter #   4 total cpu time :  3057.4 secs   av.it.:   7.6
      thresh= 8.775E-06 alpha_mix =  0.700 |ddv_scf|^2 =  1.005E-10

      iter #   5 total cpu time :  3063.7 secs   av.it.:   7.0
      thresh= 1.002E-06 alpha_mix =  0.700 |ddv_scf|^2 =  3.708E-12

      iter #   6 total cpu time :  3070.6 secs   av.it.:   8.0
      thresh= 1.926E-07 alpha_mix =  0.700 |ddv_scf|^2 =  4.119E-14

      iter #   7 total cpu time :  3078.0 secs   av.it.:   8.4
      thresh= 2.030E-08 alpha_mix =  0.700 |ddv_scf|^2 =  3.357E-15

      iter #   8 total cpu time :  3084.8 secs   av.it.:   8.1
      thresh= 5.794E-09 alpha_mix =  0.700 |ddv_scf|^2 =  5.881E-17

     End of self-consistent calculation

     Convergence has been achieved 


     Representation #  2 modes #   2  3

     Self-consistent Calculation

      iter #   1 total cpu time :  3097.0 secs   av.it.:   5.6
      thresh= 1.000E-02 alpha_mix =  0.700 |ddv_scf|^2 =  8.020E-06

      iter #   2 total cpu time :  3111.4 secs   av.it.:   8.2
      thresh= 2.832E-04 alpha_mix =  0.700 |ddv_scf|^2 =  9.633E-07

      iter #   3 total cpu time :  3125.1 secs   av.it.:   7.7
      thresh= 9.815E-05 alpha_mix =  0.700 |ddv_scf|^2 =  8.045E-09

      iter #   4 total cpu time :  3141.3 secs   av.it.:   8.6
      thresh= 8.970E-06 alpha_mix =  0.700 |ddv_scf|^2 =  6.609E-11

      iter #   5 total cpu time :  3155.0 secs   av.it.:   8.0
      thresh= 8.130E-07 alpha_mix =  0.700 |ddv_scf|^2 =  6.949E-14

      iter #   6 total cpu time :  3169.0 secs   av.it.:   8.2
      thresh= 2.636E-08 alpha_mix =  0.700 |ddv_scf|^2 =  4.400E-15

      iter #   7 total cpu time :  3182.8 secs   av.it.:   8.3
      thresh= 6.633E-09 alpha_mix =  0.700 |ddv_scf|^2 =  1.522E-17

     End of self-consistent calculation

     Convergence has been achieved 

     Number of q in the star =    8
     List of q in the star:
          1  -0.333333333   0.666666667  -0.333333333
          2   0.333333333  -0.666666667   0.333333333
          3  -0.333333333  -0.666666667   0.333333333
          4  -0.333333333  -0.666666667  -0.333333333
          5  -0.333333333   0.666666667   0.333333333
          6   0.333333333   0.666666667  -0.333333333
          7  -0.666666667   0.333333333  -0.333333333
          8   0.333333333   0.666666667   0.333333333

     Diagonalizing the dynamical matrix

     q = (   -0.333333333   0.666666667  -0.333333333 ) 

 **************************************************************************
     freq (    1) =       1.940176 [THz] =      64.717311 [cm-1]
     freq (    2) =       3.737090 [THz] =     124.655890 [cm-1]
     freq (    3) =       3.737090 [THz] =     124.655890 [cm-1]
 **************************************************************************

     Mode symmetry, C_3v (3m)   point group:

     freq (  1 -  1) =         64.7  [cm-1]   --> A_1  L_1           
     freq (  2 -  3) =        124.7  [cm-1]   --> E    L_3           

     Calculation of q =    0.0000000   0.0000000   0.3333333

   Info: using nr1, nr2, nr3 values from input

   Info: using nr1, nr2, nr3 values from input

     Parallelization info
     --------------------
     sticks:   dense  smooth     PW     G-vecs:    dense   smooth      PW
     Min          68      33     11                 1426      498      96
     Max          69      34     12                 1428      501      98
     Sum        1097     541    181                22831     8007    1553



     bravais-lattice index     =            3
     lattice parameter (alat)  =       7.7800  a.u.
     unit-cell volume          =     235.4555 (a.u.)^3
     number of atoms/cell      =            1
     number of atomic types    =            1
     number of electrons       =         9.00
     number of Kohn-Sham states=            9
     kinetic-energy cutoff     =      40.0000  Ry
     charge density cutoff     =     320.0000  Ry
     Exchange-correlation      = SLA  PW   PBE  PBE ( 1  4  3  4 0 0)

     celldm(1)=   7.780000  celldm(2)=   0.000000  celldm(3)=   0.000000
     celldm(4)=   0.000000  celldm(5)=   0.000000  celldm(6)=   0.000000

     crystal axes: (cart. coord. in units of alat)
               a(1) = (   0.500000   0.500000   0.500000 )  
[...]
     G cutoff =  245.3124  (    501 G-vectors)  smooth grid: ( 27, 27, 27)

     number of k points=  4400  Marzari-Vanderbilt smearing, width (Ry)=  0.0200

     PseudoPot. # 1 for Na read from file:
     /home/s1333534/quantum_espresso/qe-6.1/pseudo/Na_pbe_v1.uspp.F.UPF
     MD5 check sum: 76a99c7e9422403d3e93cbc85ab7bccb
     Pseudo is Ultrasoft, Zval =  9.0
     Generated by new atomic code, or converted to UPF format
     Using radial grid of  819 points,  5 beta functions with: 
                l(1) =   0
                l(2) =   0
                l(3) =   1
                l(4) =   1
                l(5) =   2
     Q(r) pseudized with  8 coefficients,  rinner =    1.250   1.250   1.250
                                                       1.250   1.250

     Mode symmetry, C_2v (mm2)  point group:


     Atomic displacements:
     There are   3 irreducible representations

     Representation     1      1 modes -A_1  D_1  S_1  To be done

     Representation     2      1 modes -B_1  D_3  S_3  To be done

     Representation     3      1 modes -B_2  D_4  S_4  To be done



     Alpha used in Ewald sum =   2.8000
     PHONON       :     1h30m CPU        1h37m WALL



     Representation #  1 mode #   1

     Self-consistent Calculation

      iter #   1 total cpu time :  5885.5 secs   av.it.:   5.7
      thresh= 1.000E-02 alpha_mix =  0.700 |ddv_scf|^2 =  1.828E-05

      iter #   2 total cpu time :  5895.4 secs   av.it.:   7.9
      thresh= 4.275E-04 alpha_mix =  0.700 |ddv_scf|^2 =  8.721E-07

      iter #   3 total cpu time :  5905.2 secs   av.it.:   7.7
      thresh= 9.339E-05 alpha_mix =  0.700 |ddv_scf|^2 =  2.065E-08

      iter #   4 total cpu time :  5915.3 secs   av.it.:   8.2
      thresh= 1.437E-05 alpha_mix =  0.700 |ddv_scf|^2 =  1.339E-09

      iter #   5 total cpu time :  5925.6 secs   av.it.:   8.1
      thresh= 3.659E-06 alpha_mix =  0.700 |ddv_scf|^2 =  1.040E-10

      iter #   6 total cpu time :  5935.4 secs   av.it.:   8.0
      thresh= 1.020E-06 alpha_mix =  0.700 |ddv_scf|^2 =  7.583E-13

      iter #   7 total cpu time :  5945.5 secs   av.it.:   8.1
      thresh= 8.708E-08 alpha_mix =  0.700 |ddv_scf|^2 =  5.244E-14

      iter #   8 total cpu time :  5955.5 secs   av.it.:   8.0
      thresh= 2.290E-08 alpha_mix =  0.700 |ddv_scf|^2 =  8.517E-17

     End of self-consistent calculation

     Convergence has been achieved 


     Representation #  2 mode #   2

     Self-consistent Calculation

      iter #   1 total cpu time :  5964.2 secs   av.it.:   5.5
      thresh= 1.000E-02 alpha_mix =  0.700 |ddv_scf|^2 =  1.576E-05

      iter #   2 total cpu time :  5974.0 secs   av.it.:   7.7
      thresh= 3.970E-04 alpha_mix =  0.700 |ddv_scf|^2 =  2.104E-07

      iter #   3 total cpu time :  5983.5 secs   av.it.:   7.6
      thresh= 4.586E-05 alpha_mix =  0.700 |ddv_scf|^2 =  2.009E-08

      iter #   4 total cpu time :  5993.4 secs   av.it.:   7.7
      thresh= 1.417E-05 alpha_mix =  0.700 |ddv_scf|^2 =  8.430E-11

      iter #   5 total cpu time :  6003.6 secs   av.it.:   7.6
      thresh= 9.182E-07 alpha_mix =  0.700 |ddv_scf|^2 =  4.001E-14

      iter #   6 total cpu time :  6012.5 secs   av.it.:   7.1
      thresh= 2.000E-08 alpha_mix =  0.700 |ddv_scf|^2 =  2.925E-15

      iter #   7 total cpu time :  6022.0 secs   av.it.:   7.4
      thresh= 5.408E-09 alpha_mix =  0.700 |ddv_scf|^2 =  5.550E-18

     End of self-consistent calculation

     Convergence has been achieved 


     Representation #  3 mode #   3

     Self-consistent Calculation

      iter #   1 total cpu time :  6031.2 secs   av.it.:   5.7
      thresh= 1.000E-02 alpha_mix =  0.700 |ddv_scf|^2 =  2.663E-05

      iter #   2 total cpu time :  6041.3 secs   av.it.:   7.7
      thresh= 5.161E-04 alpha_mix =  0.700 |ddv_scf|^2 =  1.968E-06

      iter #   3 total cpu time :  6050.8 secs   av.it.:   7.3
      thresh= 1.403E-04 alpha_mix =  0.700 |ddv_scf|^2 =  2.858E-08

      iter #   4 total cpu time :  6060.5 secs   av.it.:   7.8
      thresh= 1.690E-05 alpha_mix =  0.700 |ddv_scf|^2 =  8.349E-10

      iter #   5 total cpu time :  6070.2 secs   av.it.:   7.4
      thresh= 2.890E-06 alpha_mix =  0.700 |ddv_scf|^2 =  1.420E-12

      iter #   6 total cpu time :  6080.1 secs   av.it.:   8.0
      thresh= 1.192E-07 alpha_mix =  0.700 |ddv_scf|^2 =  1.006E-14

      iter #   7 total cpu time :  6089.8 secs   av.it.:   7.9
      thresh= 1.003E-08 alpha_mix =  0.700 |ddv_scf|^2 =  1.686E-16

      iter #   8 total cpu time :  6099.8 secs   av.it.:   7.5
      thresh= 1.299E-09 alpha_mix =  0.700 |ddv_scf|^2 =  2.941E-19

     End of self-consistent calculation

     Convergence has been achieved 

     Number of q in the star =   12
     List of q in the star:
          1   0.000000000   0.833333333  -0.166666667
          2   0.000000000  -0.833333333  -0.166666667
          3   0.833333333   0.000000000  -0.166666667
          4  -0.833333333   0.000000000  -0.166666667
          5  -0.166666667  -0.833333333   0.000000000
          6   0.166666667  -0.833333333   0.000000000
          7  -0.166666667   0.833333333   0.000000000
          8   0.166666667   0.833333333   0.000000000
          9   0.833333333   0.000000000   0.166666667
         10   0.000000000   0.166666667  -0.833333333
         11   0.000000000  -0.166666667  -0.833333333
         12   0.166666667   0.000000000  -0.833333333

     Diagonalizing the dynamical matrix

     q = (    0.000000000   0.833333333  -0.166666667 ) 

 **************************************************************************
     freq (    1) =       3.438135 [THz] =     114.683841 [cm-1]
     freq (    2) =       3.746614 [THz] =     124.973587 [cm-1]
     freq (    3) =       4.076761 [THz] =     135.986116 [cm-1]
 **************************************************************************

     Mode symmetry, C_2v (mm2)  point group:

     freq (  1 -  1) =        114.7  [cm-1]   --> A_1  D_1  S_1      
     freq (  2 -  2) =        125.0  [cm-1]   --> B_1  D_3  S_3      
     freq (  3 -  3) =        136.0  [cm-1]   --> B_2  D_4  S_4      

     Calculation of q =    0.0000000   0.0000000  -1.0000000

   Info: using nr1, nr2, nr3 values from input

   Info: using nr1, nr2, nr3 values from input

     Parallelization info
     --------------------
     sticks:   dense  smooth     PW     G-vecs:    dense   smooth      PW
     Min          68      33     12                 1426      498     108
     Max          69      34     13                 1428      501     110
     Sum        1097     541    201                22831     8007    1745



     bravais-lattice index     =            3
     lattice parameter (alat)  =       7.7800  a.u.
     unit-cell volume          =     235.4555 (a.u.)^3
     number of atoms/cell      =            1
     number of atomic types    =            1
     number of electrons       =         9.00
     number of Kohn-Sham states=            9
     kinetic-energy cutoff     =      40.0000  Ry
     charge density cutoff     =     320.0000  Ry
     Exchange-correlation      = SLA  PW   PBE  PBE ( 1  4  3  4 0 0)

     celldm(1)=   7.780000  celldm(2)=   0.000000  celldm(3)=   0.000000
     celldm(4)=   0.000000  celldm(5)=   0.000000  celldm(6)=   0.000000

     crystal axes: (cart. coord. in units of alat)
               a(1) = (   0.500000   0.500000   0.500000 )  
               a(2) = (  -0.500000   0.500000   0.500000 )  
               a(3) = (  -0.500000  -0.500000   0.500000 )  

     reciprocal axes: (cart. coord. in units 2 pi/alat)
               b(1) = (  1.000000  0.000000  1.000000 )  
               b(2) = ( -1.000000  1.000000  0.000000 )  
               b(3) = (  0.000000 -1.000000  1.000000 )  


     PseudoPot. # 1 for Na read from file:
     /home/s1333534/quantum_espresso/qe-6.1/pseudo/Na_pbe_v1.uspp.F.UPF
     MD5 check sum: 76a99c7e9422403d3e93cbc85ab7bccb
     Pseudo is Ultrasoft, Zval =  9.0
     Generated by new atomic code, or converted to UPF format
     Using radial grid of  819 points,  5 beta functions with: 
                l(1) =   0
                l(2) =   0
                l(3) =   1
                l(4) =   1
                l(5) =   2
     Q(r) pseudized with  8 coefficients,  rinner =    1.250   1.250   1.250
                                                       1.250   1.250

     atomic species   valence    mass     pseudopotential
        Na             9.00    22.99000     Na( 1.00)

     48 Sym. Ops., with inversion, found



   Cartesian axes

     site n.     atom                  positions (alat units)
         1           Na  tau(   1) = (   0.0000000   0.0000000   0.0000000  )

     number of k points=   500  Marzari-Vanderbilt smearing, width (Ry)=  0.0200

     Number of k-points >= 100: set verbosity='high' to print them.

     Dense  grid:    22831 G-vectors     FFT dimensions: (  40,  40,  40)

     Smooth grid:     8007 G-vectors     FFT dimensions: (  27,  27,  27)

     Estimated max dynamical RAM per process >       0.78MB

     Estimated total allocated dynamical RAM >      50.17MB

     The potential is recalculated from file :
     ./_ph0/na.bcc.save/charge-density.dat

     Starting wfc are    5 atomic +    4 random wfc

     Band Structure Calculation
     Davidson diagonalization with overlap

     ethr =  1.11E-10,  avg # of iterations = 21.1

     total cpu time spent up to now is     1492.9 secs

     End of band structure calculation

     Number of k-points >= 100: set verbosity='high' to print the bands.

     the Fermi energy is     1.8667 ev

     Writing output data file na.bcc.save

                                                                                

     bravais-lattice index     =            3
     lattice parameter (alat)  =       7.7800  a.u.
     unit-cell volume          =     235.4555 (a.u.)^3
     number of atoms/cell      =            1
     number of atomic types    =            1
     kinetic-energy cut-off    =      40.0000  Ry
     charge density cut-off    =     320.0000  Ry
     convergence threshold     =      1.0E-16
     beta                      =       0.7000
     number of iterations used =            4
     Exchange-correlation      = SLA  PW   PBE  PBE ( 1  4  3  4 0 0)


     celldm(1)=    7.78000  celldm(2)=    0.00000  celldm(3)=    0.00000
     celldm(4)=    0.00000  celldm(5)=    0.00000  celldm(6)=    0.00000

     crystal axes: (cart. coord. in units of alat)
               a(1) = (  0.5000  0.5000  0.5000 )  
               a(2) = ( -0.5000  0.5000  0.5000 )  
               a(3) = ( -0.5000 -0.5000  0.5000 )  

     reciprocal axes: (cart. coord. in units 2 pi/alat)
               b(1) = (  1.0000  0.0000  1.0000 )  
               b(2) = ( -1.0000  1.0000  0.0000 )  
               b(3) = (  0.0000 -1.0000  1.0000 )  


     Atoms inside the unit cell: 

     Cartesian axes

     site n.  atom      mass           positions (alat units)
        1     Na  22.9900   tau(    1) = (    0.00000    0.00000    0.00000  )

     Computing dynamical matrix for 
                    q = (   0.0000000   0.0000000  -1.0000000 )

     49 Sym.Ops. (with q -> -q+G )


     G cutoff =  490.6247  (   1428 G-vectors)     FFT grid: ( 40, 40, 40)
     G cutoff =  245.3124  (    501 G-vectors)  smooth grid: ( 27, 27, 27)

     number of k points=   500  Marzari-Vanderbilt smearing, width (Ry)=  0.0200

     PseudoPot. # 1 for Na read from file:
     /home/s1333534/quantum_espresso/qe-6.1/pseudo/Na_pbe_v1.uspp.F.UPF
     MD5 check sum: 76a99c7e9422403d3e93cbc85ab7bccb
     Pseudo is Ultrasoft, Zval =  9.0
     Generated by new atomic code, or converted to UPF format
     Using radial grid of  819 points,  5 beta functions with: 
                l(1) =   0
                l(2) =   0
                l(3) =   1
                l(4) =   1
                l(5) =   2
     Q(r) pseudized with  8 coefficients,  rinner =    1.250   1.250   1.250
                                                       1.250   1.250

     Mode symmetry, O_h (m-3m)  point group:


     Atomic displacements:
     There are   1 irreducible representations

     Representation     1      3 modes -T_1u G_15  G_4-  To be done



     Alpha used in Ewald sum =   2.8000
     PHONON       :     1h33m CPU        1h41m WALL



     Representation #  1 modes #   1  2  3

     Self-consistent Calculation

      iter #   1 total cpu time :  6115.2 secs   av.it.:   5.7
      thresh= 1.000E-02 alpha_mix =  0.700 |ddv_scf|^2 =  1.955E-06

      iter #   2 total cpu time :  6119.9 secs   av.it.:   8.5
      thresh= 1.398E-04 alpha_mix =  0.700 |ddv_scf|^2 =  3.042E-08

      iter #   3 total cpu time :  6124.4 secs   av.it.:   8.2
      thresh= 1.744E-05 alpha_mix =  0.700 |ddv_scf|^2 =  2.558E-09

      iter #   4 total cpu time :  6129.0 secs   av.it.:   8.4
      thresh= 5.057E-06 alpha_mix =  0.700 |ddv_scf|^2 =  9.915E-12

      iter #   5 total cpu time :  6133.6 secs   av.it.:   8.4
      thresh= 3.149E-07 alpha_mix =  0.700 |ddv_scf|^2 =  3.328E-15

      iter #   6 total cpu time :  6137.8 secs   av.it.:   7.3
      thresh= 5.769E-09 alpha_mix =  0.700 |ddv_scf|^2 =  2.573E-16

      iter #   7 total cpu time :  6142.2 secs   av.it.:   8.0
      thresh= 1.604E-09 alpha_mix =  0.700 |ddv_scf|^2 =  3.373E-19

     End of self-consistent calculation

     Convergence has been achieved 

     Number of q in the star =    1
     List of q in the star:
          1   0.000000000   0.000000000  -1.000000000

     Diagonalizing the dynamical matrix

     q = (    0.000000000   0.000000000  -1.000000000 ) 

 **************************************************************************
     freq (    1) =       4.019195 [THz] =     134.065898 [cm-1]
     freq (    2) =       4.019195 [THz] =     134.065898 [cm-1]
     freq (    3) =       4.019195 [THz] =     134.065898 [cm-1]
 **************************************************************************

     Mode symmetry, O_h (m-3m)  point group:

     freq (  1 -  3) =        134.1  [cm-1]   --> T_1u G_15  G_4-    

     init_run     :      2.34s CPU      2.48s WALL (      15 calls)
     electrons    :   1193.45s CPU   1259.84s WALL (      15 calls)

     Called by init_run:
     wfcinit      :      0.00s CPU      0.00s WALL (      15 calls)
     potinit      :      0.40s CPU      0.42s WALL (      15 calls)

     Called by electrons:
     c_bands      :   1193.14s CPU   1259.52s WALL (      15 calls)
     v_of_rho     :      0.16s CPU      0.17s WALL (      16 calls)
     newd         :      0.15s CPU      0.16s WALL (      16 calls)

     Called by c_bands:
     init_us_2    :     23.07s CPU     25.00s WALL (  335824 calls)
     cegterg      :    904.14s CPU    962.94s WALL (   26540 calls)

     Called by sum_band:

     Called by *egterg:
     h_psi        :   3234.27s CPU   3501.51s WALL ( 3125076 calls)
     s_psi        :     92.60s CPU    101.94s WALL ( 6063743 calls)
     g_psi        :      2.85s CPU      3.10s WALL (  402209 calls)
     cdiaghg      :    255.46s CPU    271.12s WALL (  421471 calls)

     Called by h_psi:
     h_psi:pot    :   3211.51s CPU   3476.13s WALL ( 3125076 calls)
     h_psi:calbec :    185.23s CPU    198.88s WALL ( 3125076 calls)
     vloc_psi     :   2941.61s CPU   3185.52s WALL ( 3125076 calls)
     add_vuspsi   :     50.70s CPU     55.63s WALL ( 3125076 calls)

     General routines
     calbec       :    340.19s CPU    367.40s WALL ( 6606282 calls)
     fft          :      4.74s CPU      4.92s WALL (    6346 calls)
     ffts         :      4.93s CPU      5.66s WALL (   30429 calls)
     fftw         :   3241.70s CPU   3527.49s WALL (30122506 calls)
     interpolate  :      0.90s CPU      1.04s WALL (     870 calls)
     davcio       :     32.44s CPU     75.49s WALL ( 1366128 calls)

     Parallel routines
     fft_scatter  :   1381.25s CPU   1503.11s WALL (30159281 calls)

     PHONON       :     1h34m CPU        1h42m WALL

     INITIALIZATION: 
     phq_setup    :      0.64s CPU      0.66s WALL (      16 calls)
     phq_init     :     61.07s CPU     64.58s WALL (      16 calls)

     phq_init     :     61.07s CPU     64.58s WALL (      16 calls)
     init_vloc    :      0.11s CPU      0.11s WALL (      16 calls)
     init_us_1    :      1.15s CPU      1.25s WALL (      16 calls)
     newd         :      0.15s CPU      0.16s WALL (      16 calls)
     dvanqq       :      0.71s CPU      0.72s WALL (      16 calls)
     drho         :     46.31s CPU     48.83s WALL (      16 calls)

     DYNAMICAL MATRIX:
     dynmat0      :      8.94s CPU      9.53s WALL (      16 calls)
     phqscf       :   4164.41s CPU   4578.88s WALL (      16 calls)
     dynmatrix    :      0.10s CPU      0.11s WALL (      16 calls)

     phqscf       :   4164.41s CPU   4578.88s WALL (      16 calls)
     solve_linter :   4150.33s CPU   4563.66s WALL (      40 calls)
     drhodv       :     13.87s CPU     14.83s WALL (      40 calls)

     dynmat0      :      8.94s CPU      9.53s WALL (      16 calls)
     dynmat_us    :      8.89s CPU      9.43s WALL (      16 calls)
     d2ionq       :      0.01s CPU      0.01s WALL (      16 calls)

     dynmat_us    :      8.89s CPU      9.43s WALL (      16 calls)
     addusdynmat  :      0.00s CPU      0.00s WALL (      16 calls)

     phqscf       :   4164.41s CPU   4578.88s WALL (      16 calls)
     solve_linter :   4150.33s CPU   4563.66s WALL (      40 calls)

     solve_linter :   4150.33s CPU   4563.66s WALL (      40 calls)
     dvqpsi_us    :     79.25s CPU     85.02s WALL (   29082 calls)
     ortho        :     50.93s CPU     54.82s WALL (  261602 calls)
     cgsolve      :   3256.80s CPU   3543.90s WALL (  261602 calls)
     incdrhoscf   :    317.27s CPU    361.35s WALL (  261602 calls)
     addusddens   :      4.79s CPU      4.84s WALL (     381 calls)
     vpsifft      :    257.68s CPU    280.80s WALL (  232520 calls)
     dv_of_drho   :      3.40s CPU      3.47s WALL (     395 calls)
     mix_pot      :      0.73s CPU      3.42s WALL (     341 calls)
     ef_shift     :      0.02s CPU      0.05s WALL (       7 calls)
     localdos     :      0.10s CPU      0.10s WALL (       1 calls)
     psymdvscf    :     29.14s CPU     29.77s WALL (     310 calls)
     newdq        :      4.69s CPU      4.75s WALL (     341 calls)
     adddvscf     :     14.23s CPU     15.32s WALL (  232520 calls)
     drhodvus     :      0.03s CPU      0.03s WALL (      40 calls)

     dvqpsi_us    :     79.25s CPU     85.02s WALL (   29082 calls)
     dvqpsi_us_on :     13.82s CPU     14.48s WALL (   29082 calls)

     cgsolve      :   3256.80s CPU   3543.90s WALL (  261602 calls)
     ch_psi       :   3077.60s CPU   3347.05s WALL ( 2677065 calls)

     ch_psi       :   3077.60s CPU   3347.05s WALL ( 2677065 calls)
     h_psi        :   3234.27s CPU   3501.51s WALL ( 3125076 calls)
     last         :    319.24s CPU    348.35s WALL ( 2677065 calls)

     h_psi        :   3234.27s CPU   3501.51s WALL ( 3125076 calls)
     add_vuspsi   :     50.70s CPU     55.63s WALL ( 3125076 calls)

     incdrhoscf   :    317.27s CPU    361.35s WALL (  261602 calls)
     addusdbec    :     24.80s CPU     26.40s WALL (  290684 calls)

     drhodvus     :      0.03s CPU      0.03s WALL (      40 calls)

      General routines
     calbec       :    340.19s CPU    367.40s WALL ( 6606282 calls)
     fft          :      4.74s CPU      4.92s WALL (    6346 calls)
     ffts         :      4.93s CPU      5.66s WALL (   30429 calls)
     fftw         :   3241.70s CPU   3527.49s WALL (30122506 calls)
     davcio       :     32.44s CPU     75.49s WALL ( 1366128 calls)
     write_rec    :      1.27s CPU      3.20s WALL (     381 calls)


     PHONON       :     1h34m CPU        1h42m WALL


   This run was terminated on:  12:53:54  12Feb2018            

=------------------------------------------------------------------------------=
   JOB DONE.
=------------------------------------------------------------------------------=
