
     Program PWSCF v.6.1 (svn rev. 13369) starts on 21Dec2017 at 12:20:47 

     This program is part of the open-source Quantum ESPRESSO suite
     for quantum simulation of materials; please cite
         "P. Giannozzi et al., J. Phys.:Condens. Matter 21 395502 (2009);
          URL http://www.quantum-espresso.org", 
     in publications or presentations arising from this work. More details at
     http://www.quantum-espresso.org/quote

     Parallel version (MPI), running on     4 processors
     R & G space division:  proc/nbgrp/npool/nimage =       4
     Waiting for input...
     Reading input from standard input

     Current dimensions of program PWSCF are:
     Max number of different atomic species (ntypx) = 10
     Max number of k-points (npk) =  40000
     Max angular momentum in pseudopotentials (lmaxx) =  3

     Subspace diagonalization in iterative solution of the eigenvalue problem:
     a serial algorithm will be used


     Parallelization info
     --------------------
     sticks:   dense  smooth     PW     G-vecs:    dense   smooth      PW
     Min         253     127     40                 5296     1895     362
     Max         254     130     41                 5298     1896     366
     Sum        1015     511    163                21187     7583    1459



     bravais-lattice index     =            2
     lattice parameter (alat)  =       9.5776  a.u.
     unit-cell volume          =     219.6411 (a.u.)^3
     number of atoms/cell      =            1
     number of atomic types    =            1
     number of electrons       =         9.00
     number of Kohn-Sham states=            9
     kinetic-energy cutoff     =      40.0000  Ry
     charge density cutoff     =     320.0000  Ry
     convergence threshold     =      1.0E-08
     mixing beta               =       0.7000
     number of iterations used =            8  plain     mixing
     Exchange-correlation      = SLA  PW   PBE  PBE ( 1  4  3  4 0 0)

     celldm(1)=   9.577625  celldm(2)=   0.000000  celldm(3)=   0.000000
     celldm(4)=   0.000000  celldm(5)=   0.000000  celldm(6)=   0.000000

     crystal axes: (cart. coord. in units of alat)
               a(1) = (  -0.500000   0.000000   0.500000 )  
               a(2) = (   0.000000   0.500000   0.500000 )  
               a(3) = (  -0.500000   0.500000   0.000000 )  

     reciprocal axes: (cart. coord. in units 2 pi/alat)
               b(1) = ( -1.000000 -1.000000  1.000000 )  
               b(2) = (  1.000000  1.000000  1.000000 )  
               b(3) = ( -1.000000  1.000000 -1.000000 )  


     PseudoPot. # 1 for Na read from file:
     /home/s1333534/quantum_espresso/qe-6.1/pseudo/Na_pbe_v1.uspp.F.UPF
     MD5 check sum: 76a99c7e9422403d3e93cbc85ab7bccb
     Pseudo is Ultrasoft, Zval =  9.0
     Generated by new atomic code, or converted to UPF format
     Using radial grid of  819 points,  5 beta functions with: 
                l(1) =   0
                l(2) =   0
                l(3) =   1
                l(4) =   1
                l(5) =   2
     Q(r) pseudized with  8 coefficients,  rinner =    1.250   1.250   1.250
                                                       1.250   1.250

     atomic species   valence    mass     pseudopotential
        Na             9.00    22.99000     Na( 1.00)

     48 Sym. Ops., with inversion, found



   Cartesian axes

     site n.     atom                  positions (alat units)
         1           Na  tau(   1) = (   0.0000000   0.0000000   0.0000000  )

     number of k points=   280  Marzari-Vanderbilt smearing, width (Ry)=  0.0200

     Number of k-points >= 100: set verbosity='high' to print them.

     Dense  grid:    21187 G-vectors     FFT dimensions: (  40,  40,  40)

     Smooth grid:     7583 G-vectors     FFT dimensions: (  27,  27,  27)

     Estimated max dynamical RAM per process >      12.57MB

     Estimated total allocated dynamical RAM >      50.27MB

     Initial potential from superposition of free atoms

     starting charge    8.99371, renormalised to    9.00000
     Starting wfc are    5 randomized atomic wfcs +    4 random wfc

     total cpu time spent up to now is        1.0 secs

     per-process dynamical memory:    18.1 Mb

     Self-consistent Calculation

     iteration #  1     ecut=    40.00 Ry     beta=0.70
     Davidson diagonalization with overlap
     ethr =  1.00E-02,  avg # of iterations =  5.4

     Threshold (ethr) on eigenvalues was too large:
     Diagonalizing with lowered threshold

     Davidson diagonalization with overlap
     ethr =  1.06E-05,  avg # of iterations =  3.8

     total cpu time spent up to now is        5.7 secs

     total energy              =     -95.10525420 Ry
     Harris-Foulkes estimate   =     -95.10554279 Ry
     estimated scf accuracy    <       0.00094950 Ry

     iteration #  2     ecut=    40.00 Ry     beta=0.70
     Davidson diagonalization with overlap
     ethr =  1.06E-05,  avg # of iterations =  2.0

     total cpu time spent up to now is        7.4 secs

     total energy              =     -95.10536459 Ry
     Harris-Foulkes estimate   =     -95.10539088 Ry
     estimated scf accuracy    <       0.00010469 Ry

     iteration #  3     ecut=    40.00 Ry     beta=0.70
     Davidson diagonalization with overlap
     ethr =  1.16E-06,  avg # of iterations =  2.1

     total cpu time spent up to now is        9.1 secs

     total energy              =     -95.10537702 Ry
     Harris-Foulkes estimate   =     -95.10537826 Ry
     estimated scf accuracy    <       0.00000625 Ry

     iteration #  4     ecut=    40.00 Ry     beta=0.70
     Davidson diagonalization with overlap
     ethr =  6.94E-08,  avg # of iterations =  1.0

     total cpu time spent up to now is       10.5 secs

     End of self-consistent calculation

     Number of k-points >= 100: set verbosity='high' to print the bands.

     the Fermi energy is     2.1834 ev

!    total energy              =     -95.10537760 Ry
     Harris-Foulkes estimate   =     -95.10537755 Ry
     estimated scf accuracy    <          9.5E-09 Ry

     The total energy is the sum of the following terms:

     one-electron contribution =     -85.26027700 Ry
     hartree contribution      =      43.21600487 Ry
     xc contribution           =     -14.28588559 Ry
     ewald contribution        =     -38.77514752 Ry
     smearing contrib. (-TS)   =      -0.00007236 Ry

     convergence has been achieved in   4 iterations


     Computing stress (Cartesian axis) and pressure

          total   stress  (Ry/bohr**3)                   (kbar)     P=    9.48
   0.00006444  -0.00000000  -0.00000000          9.48     -0.00     -0.00
  -0.00000000   0.00006444   0.00000000         -0.00      9.48      0.00
  -0.00000000   0.00000000   0.00006444         -0.00      0.00      9.48


     Writing output data file na.fcc.save

     init_run     :      0.75s CPU      0.86s WALL (       1 calls)
     electrons    :      9.08s CPU      9.57s WALL (       1 calls)
     stress       :      0.53s CPU      0.54s WALL (       1 calls)

     Called by init_run:
     wfcinit      :      0.54s CPU      0.60s WALL (       1 calls)
     potinit      :      0.03s CPU      0.04s WALL (       1 calls)

     Called by electrons:
     c_bands      :      7.59s CPU      8.00s WALL (       5 calls)
     sum_band     :      1.39s CPU      1.46s WALL (       5 calls)
     v_of_rho     :      0.07s CPU      0.07s WALL (       5 calls)
     newd         :      0.06s CPU      0.08s WALL (       5 calls)
     mix_rho      :      0.00s CPU      0.00s WALL (       5 calls)

     Called by c_bands:
     init_us_2    :      0.35s CPU      0.34s WALL (    3360 calls)
     cegterg      :      7.27s CPU      7.69s WALL (    1400 calls)

     Called by sum_band:
     sum_band:bec :      0.00s CPU      0.00s WALL (    1400 calls)
     addusdens    :      0.08s CPU      0.08s WALL (       5 calls)

     Called by *egterg:
     h_psi        :      6.27s CPU      6.64s WALL (    5663 calls)
     s_psi        :      0.09s CPU      0.07s WALL (    5663 calls)
     g_psi        :      0.05s CPU      0.04s WALL (    3983 calls)
     cdiaghg      :      0.83s CPU      0.89s WALL (    5103 calls)

     Called by h_psi:
     h_psi:pot    :      6.25s CPU      6.60s WALL (    5663 calls)
     h_psi:calbec :      0.15s CPU      0.12s WALL (    5663 calls)
     vloc_psi     :      6.04s CPU      6.38s WALL (    5663 calls)
     add_vuspsi   :      0.06s CPU      0.08s WALL (    5663 calls)

     General routines
     calbec       :      0.18s CPU      0.16s WALL (    7343 calls)
     fft          :      0.03s CPU      0.05s WALL (      85 calls)
     ffts         :      0.00s CPU      0.00s WALL (      10 calls)
     fftw         :      6.66s CPU      6.66s WALL (   83338 calls)
     interpolate  :      0.01s CPU      0.01s WALL (      10 calls)
     davcio       :      0.00s CPU      0.01s WALL (     280 calls)

     Parallel routines
     fft_scatter  :      0.99s CPU      1.23s WALL (   83433 calls)

     PWSCF        :    10.68s CPU        11.37s WALL


   This run was terminated on:  12:20:58  21Dec2017            

=------------------------------------------------------------------------------=
   JOB DONE.
=------------------------------------------------------------------------------=
