
     Program PHONON v.6.1 (svn rev. 13369) starts on 21Dec2017 at 12:20:58 

     This program is part of the open-source Quantum ESPRESSO suite
     for quantum simulation of materials; please cite
         "P. Giannozzi et al., J. Phys.:Condens. Matter 21 395502 (2009);
          URL http://www.quantum-espresso.org", 
     in publications or presentations arising from this work. More details at
     http://www.quantum-espresso.org/quote

     Parallel version (MPI), running on     4 processors
     R & G space division:  proc/nbgrp/npool/nimage =       4

     Reading data from directory:
     ./na.fcc.save

   Info: using nr1, nr2, nr3 values from input

   Info: using nr1, nr2, nr3 values from input

     IMPORTANT: XC functional enforced from input :
     Exchange-correlation      = SLA  PW   PBE  PBE ( 1  4  3  4 0 0)
     Any further DFT definition will be discarded
     Please, verify this is what you really want


     Parallelization info
     --------------------
     sticks:   dense  smooth     PW     G-vecs:    dense   smooth      PW
     Min         253     127     40                 5296     1895     362
     Max         254     130     41                 5298     1896     366
     Sum        1015     511    163                21187     7583    1459



     Dynamical matrices for ( 8, 8, 8)  uniform grid of q-points
     (  29q-points):
       N         xq(1)         xq(2)         xq(3) 
       1   0.000000000   0.000000000   0.000000000
       2  -0.125000000   0.125000000  -0.125000000
       3  -0.250000000   0.250000000  -0.250000000
       4  -0.375000000   0.375000000  -0.375000000
       5   0.500000000  -0.500000000   0.500000000
       6   0.000000000   0.250000000   0.000000000
       7  -0.125000000   0.375000000  -0.125000000
       8  -0.250000000   0.500000000  -0.250000000
       9   0.625000000  -0.375000000   0.625000000
      10   0.500000000  -0.250000000   0.500000000
      11   0.375000000  -0.125000000   0.375000000
      12   0.250000000   0.000000000   0.250000000
      13   0.000000000   0.500000000   0.000000000
      14  -0.125000000   0.625000000  -0.125000000
      15   0.750000000  -0.250000000   0.750000000
      16   0.625000000  -0.125000000   0.625000000
      17   0.500000000   0.000000000   0.500000000
      18   0.000000000   0.750000000   0.000000000
      19   0.875000000  -0.125000000   0.875000000
      20   0.750000000   0.000000000   0.750000000
      21   0.000000000  -1.000000000   0.000000000
      22  -0.250000000   0.500000000   0.000000000
      23   0.625000000  -0.375000000   0.875000000
      24   0.500000000  -0.250000000   0.750000000
      25   0.750000000  -0.250000000   1.000000000
      26   0.625000000  -0.125000000   0.875000000
      27   0.500000000   0.000000000   0.750000000
      28  -0.250000000  -1.000000000   0.000000000
      29  -0.500000000  -1.000000000   0.000000000

     Calculation of q =    0.0000000   0.0000000   0.0000000

                                                                                

     bravais-lattice index     =            2
     lattice parameter (alat)  =       9.5776  a.u.
     unit-cell volume          =     219.6411 (a.u.)^3
     number of atoms/cell      =            1
     number of atomic types    =            1
     kinetic-energy cut-off    =      40.0000  Ry
     charge density cut-off    =     320.0000  Ry
     convergence threshold     =      1.0E-12
     beta                      =       0.7000
     number of iterations used =            4
     Exchange-correlation      = SLA  PW   PBE  PBE ( 1  4  3  4 0 0)


     celldm(1)=    9.57763  celldm(2)=    0.00000  celldm(3)=    0.00000
     celldm(4)=    0.00000  celldm(5)=    0.00000  celldm(6)=    0.00000

     crystal axes: (cart. coord. in units of alat)
               a(1) = ( -0.5000  0.0000  0.5000 )  
               a(2) = (  0.0000  0.5000  0.5000 )  
               a(3) = ( -0.5000  0.5000  0.0000 )  

     reciprocal axes: (cart. coord. in units 2 pi/alat)
               b(1) = ( -1.0000 -1.0000  1.0000 )  
               b(2) = (  1.0000  1.0000  1.0000 )  
               b(3) = ( -1.0000  1.0000 -1.0000 )  


     Atoms inside the unit cell: 

     Cartesian axes

     site n.  atom      mass           positions (alat units)
        1     Na  22.9900   tau(    1) = (    0.00000    0.00000    0.00000  )

     Computing dynamical matrix for 
                    q = (   0.0000000   0.0000000   0.0000000 )

     49 Sym.Ops. (with q -> -q+G )


     G cutoff =  743.5427  (   5296 G-vectors)     FFT grid: ( 40, 40, 40)
     G cutoff =  371.7713  (   1896 G-vectors)  smooth grid: ( 27, 27, 27)

     number of k points=   280  Marzari-Vanderbilt smearing, width (Ry)=  0.0200

     PseudoPot. # 1 for Na read from file:
     /home/s1333534/quantum_espresso/qe-6.1/pseudo/Na_pbe_v1.uspp.F.UPF
     MD5 check sum: 76a99c7e9422403d3e93cbc85ab7bccb
     Pseudo is Ultrasoft, Zval =  9.0
     Generated by new atomic code, or converted to UPF format
     Using radial grid of  819 points,  5 beta functions with: 
                l(1) =   0
                l(2) =   0
                l(3) =   1
                l(4) =   1
                l(5) =   2
     Q(r) pseudized with  8 coefficients,  rinner =    1.250   1.250   1.250
                                                       1.250   1.250

     Mode symmetry, O_h (m-3m)  point group:


     Atomic displacements:
     There are   1 irreducible representations

     Representation     1      3 modes -T_1u G_15  G_4-  To be done



     Alpha used in Ewald sum =   2.8000
     PHONON       :     2.12s CPU         2.20s WALL



     Representation #  1 modes #   1  2  3

     Self-consistent Calculation

     Pert. #  1: Fermi energy shift (Ry) =     1.6544E-24     1.0971E-37
     Pert. #  2: Fermi energy shift (Ry) =    -3.5844E-24    -8.6203E-38
     Pert. #  3: Fermi energy shift (Ry) =     5.1009E-24     3.1347E-38

      iter #   1 total cpu time :    10.0 secs   av.it.:   5.4
      thresh= 1.000E-02 alpha_mix =  0.700 |ddv_scf|^2 =  1.556E-06

     Pert. #  1: Fermi energy shift (Ry) =     3.3087E-24    -5.5101E-40
     Pert. #  2: Fermi energy shift (Ry) =     4.4116E-24     7.0407E-40
     Pert. #  3: Fermi energy shift (Ry) =    -9.6504E-24     7.9591E-40

      iter #   2 total cpu time :    19.2 secs   av.it.:   8.4
      thresh= 1.248E-04 alpha_mix =  0.700 |ddv_scf|^2 =  2.935E-08

     Pert. #  1: Fermi energy shift (Ry) =     1.1029E-24     3.0612E-41
     Pert. #  2: Fermi energy shift (Ry) =     5.5145E-24     3.1377E-40
     Pert. #  3: Fermi energy shift (Ry) =     6.0660E-24     1.0714E-40

      iter #   3 total cpu time :    29.0 secs   av.it.:   8.5
      thresh= 1.713E-05 alpha_mix =  0.700 |ddv_scf|^2 =  5.014E-10

     Pert. #  1: Fermi energy shift (Ry) =    -5.5145E-24     6.1224E-41
     Pert. #  2: Fermi energy shift (Ry) =    -4.4116E-24     1.5306E-41
     Pert. #  3: Fermi energy shift (Ry) =    -5.5145E-25    -3.0612E-41

      iter #   4 total cpu time :    37.9 secs   av.it.:   7.9
      thresh= 2.239E-06 alpha_mix =  0.700 |ddv_scf|^2 =  1.832E-12

     Pert. #  1: Fermi energy shift (Ry) =    -1.1029E-24    -3.0612E-41
     Pert. #  2: Fermi energy shift (Ry) =     2.7573E-24    -7.6530E-41
     Pert. #  3: Fermi energy shift (Ry) =     2.2058E-24    -1.6071E-40

      iter #   5 total cpu time :    47.0 secs   av.it.:   8.3
      thresh= 1.354E-07 alpha_mix =  0.700 |ddv_scf|^2 =  4.238E-15

     End of self-consistent calculation

     Convergence has been achieved 

     Number of q in the star =    1
     List of q in the star:
          1   0.000000000   0.000000000   0.000000000

     Diagonalizing the dynamical matrix

     q = (    0.000000000   0.000000000   0.000000000 ) 

 **************************************************************************
     freq (    1) =      -0.750610 [THz] =     -25.037652 [cm-1]
     freq (    2) =      -0.750610 [THz] =     -25.037652 [cm-1]
     freq (    3) =      -0.750610 [THz] =     -25.037652 [cm-1]
 **************************************************************************

     Mode symmetry, O_h (m-3m)  point group:

     freq (  1 -  3) =        -25.0  [cm-1]   --> T_1u G_15  G_4- I  

     Calculation of q =   -0.1250000   0.1250000  -0.1250000

   Info: using nr1, nr2, nr3 values from input

   Info: using nr1, nr2, nr3 values from input

     Parallelization info
     --------------------
     sticks:   dense  smooth     PW     G-vecs:    dense   smooth      PW
     Min         253     127     42                 5296     1895     367
     Max         254     130     43                 5298     1896     368
     Sum        1015     511    169                21187     7583    1471



     bravais-lattice index     =            2
     lattice parameter (alat)  =       9.5776  a.u.
     unit-cell volume          =     219.6411 (a.u.)^3
     number of atoms/cell      =            1
     number of atomic types    =            1
     number of electrons       =         9.00
     number of Kohn-Sham states=            9
     kinetic-energy cutoff     =      40.0000  Ry
     charge density cutoff     =     320.0000  Ry
     Exchange-correlation      = SLA  PW   PBE  PBE ( 1  4  3  4 0 0)

     celldm(1)=   9.577625  celldm(2)=   0.000000  celldm(3)=   0.000000
     celldm(4)=   0.000000  celldm(5)=   0.000000  celldm(6)=   0.000000

     crystal axes: (cart. coord. in units of alat)
               a(1) = (  -0.500000   0.000000   0.500000 )  
               a(2) = (   0.000000   0.500000   0.500000 )  
               a(3) = (  -0.500000   0.500000   0.000000 )  

     reciprocal axes: (cart. coord. in units 2 pi/alat)
               b(1) = ( -1.000000 -1.000000  1.000000 )  
               b(2) = (  1.000000  1.000000  1.000000 )  
               b(3) = ( -1.000000  1.000000 -1.000000 )  


     PseudoPot. # 1 for Na read from file:
     /home/s1333534/quantum_espresso/qe-6.1/pseudo/Na_pbe_v1.uspp.F.UPF
     MD5 check sum: 76a99c7e9422403d3e93cbc85ab7bccb
     Pseudo is Ultrasoft, Zval =  9.0
     Generated by new atomic code, or converted to UPF format
     Using radial grid of  819 points,  5 beta functions with: 
                l(1) =   0
                l(2) =   0
                l(3) =   1
                l(4) =   1
                l(5) =   2
     Q(r) pseudized with  8 coefficients,  rinner =    1.250   1.250   1.250
                                                       1.250   1.250

     atomic species   valence    mass     pseudopotential
        Na             9.00    22.99000     Na( 1.00)

     48 Sym. Ops., with inversion, found



   Cartesian axes

     site n.     atom                  positions (alat units)
         1           Na  tau(   1) = (   0.0000000   0.0000000   0.0000000  )

     number of k points=  4060  Marzari-Vanderbilt smearing, width (Ry)=  0.0200

     Number of k-points >= 100: set verbosity='high' to print them.

     Dense  grid:    21187 G-vectors     FFT dimensions: (  40,  40,  40)

     Smooth grid:     7583 G-vectors     FFT dimensions: (  27,  27,  27)

     Estimated max dynamical RAM per process >       2.08MB

     Estimated total allocated dynamical RAM >       8.30MB

     The potential is recalculated from file :
     ./_ph0/na.fcc.save/charge-density.dat

     Starting wfc are    5 atomic +    4 random wfc

     Band Structure Calculation
     Davidson diagonalization with overlap

     ethr =  1.11E-10,  avg # of iterations = 18.9

     total cpu time spent up to now is      109.3 secs

     End of band structure calculation

     Number of k-points >= 100: set verbosity='high' to print the bands.

     the Fermi energy is     2.1831 ev

     Writing output data file na.fcc.save

                                                                                

     bravais-lattice index     =            2
     lattice parameter (alat)  =       9.5776  a.u.
     unit-cell volume          =     219.6411 (a.u.)^3
     number of atoms/cell      =            1
     number of atomic types    =            1
     kinetic-energy cut-off    =      40.0000  Ry
     charge density cut-off    =     320.0000  Ry
     convergence threshold     =      1.0E-12
     beta                      =       0.7000
     number of iterations used =            4
     Exchange-correlation      = SLA  PW   PBE  PBE ( 1  4  3  4 0 0)


     celldm(1)=    9.57763  celldm(2)=    0.00000  celldm(3)=    0.00000
     celldm(4)=    0.00000  celldm(5)=    0.00000  celldm(6)=    0.00000

     crystal axes: (cart. coord. in units of alat)
               a(1) = ( -0.5000  0.0000  0.5000 )  
               a(2) = (  0.0000  0.5000  0.5000 )  
               a(3) = ( -0.5000  0.5000  0.0000 )  

     reciprocal axes: (cart. coord. in units 2 pi/alat)
               b(1) = ( -1.0000 -1.0000  1.0000 )  
               b(2) = (  1.0000  1.0000  1.0000 )  
               b(3) = ( -1.0000  1.0000 -1.0000 )  


     Atoms inside the unit cell: 

     Cartesian axes

     site n.  atom      mass           positions (alat units)
        1     Na  22.9900   tau(    1) = (    0.00000    0.00000    0.00000  )

     Computing dynamical matrix for 
                    q = (  -0.1250000   0.1250000  -0.1250000 )

      6 Sym.Ops. (no q -> -q+G )


     G cutoff =  743.5427  (   5296 G-vectors)     FFT grid: ( 40, 40, 40)
     G cutoff =  371.7713  (   1896 G-vectors)  smooth grid: ( 27, 27, 27)

     number of k points=  4060  Marzari-Vanderbilt smearing, width (Ry)=  0.0200

     PseudoPot. # 1 for Na read from file:
     /home/s1333534/quantum_espresso/qe-6.1/pseudo/Na_pbe_v1.uspp.F.UPF
     MD5 check sum: 76a99c7e9422403d3e93cbc85ab7bccb
     Pseudo is Ultrasoft, Zval =  9.0
     Generated by new atomic code, or converted to UPF format
     Using radial grid of  819 points,  5 beta functions with: 
                l(1) =   0
                l(2) =   0
                l(3) =   1
                l(4) =   1
                l(5) =   2
     Q(r) pseudized with  8 coefficients,  rinner =    1.250   1.250   1.250
                                                       1.250   1.250

     Mode symmetry, C_3v (3m)   point group:


     Atomic displacements:
     There are   2 irreducible representations

     Representation     1      1 modes -A_1  L_1  To be done

     Representation     2      2 modes -E    L_3  To be done



     Alpha used in Ewald sum =   2.8000
     PHONON       :  2m37.93s CPU     2m47.40s WALL



     Representation #  1 mode #   1

     Self-consistent Calculation

      iter #   1 total cpu time :   186.1 secs   av.it.:   5.7
      thresh= 1.000E-02 alpha_mix =  0.700 |ddv_scf|^2 =  2.413E-01

      iter #   2 total cpu time :   205.2 secs   av.it.:   7.0
      thresh= 1.000E-02 alpha_mix =  0.700 |ddv_scf|^2 =  1.274E+02

      iter #   3 total cpu time :   224.3 secs   av.it.:   7.0
      thresh= 1.000E-02 alpha_mix =  0.700 |ddv_scf|^2 =  4.375E-04

      iter #   4 total cpu time :   239.5 secs   av.it.:   5.0
      thresh= 2.092E-03 alpha_mix =  0.700 |ddv_scf|^2 =  2.125E-07

      iter #   5 total cpu time :   258.8 secs   av.it.:   7.2
      thresh= 4.610E-05 alpha_mix =  0.700 |ddv_scf|^2 =  5.949E-09

      iter #   6 total cpu time :   278.1 secs   av.it.:   7.2
      thresh= 7.713E-06 alpha_mix =  0.700 |ddv_scf|^2 =  8.562E-07

      iter #   7 total cpu time :   291.1 secs   av.it.:   4.1
      thresh= 9.253E-05 alpha_mix =  0.700 |ddv_scf|^2 =  1.263E-10

      iter #   8 total cpu time :   311.0 secs   av.it.:   7.5
      thresh= 1.124E-06 alpha_mix =  0.700 |ddv_scf|^2 =  1.914E-12

      iter #   9 total cpu time :   332.0 secs   av.it.:   8.0
      thresh= 1.383E-07 alpha_mix =  0.700 |ddv_scf|^2 =  1.246E-13

     End of self-consistent calculation

     Convergence has been achieved 


     Representation #  2 modes #   2  3

     Self-consistent Calculation

      iter #   1 total cpu time :   370.8 secs   av.it.:   5.5
      thresh= 1.000E-02 alpha_mix =  0.700 |ddv_scf|^2 =  3.537E-06

      iter #   2 total cpu time :   413.6 secs   av.it.:   8.3
      thresh= 1.881E-04 alpha_mix =  0.700 |ddv_scf|^2 =  6.575E-08

      iter #   3 total cpu time :   457.1 secs   av.it.:   8.5
      thresh= 2.564E-05 alpha_mix =  0.700 |ddv_scf|^2 =  1.229E-09

      iter #   4 total cpu time :   499.2 secs   av.it.:   8.1
      thresh= 3.506E-06 alpha_mix =  0.700 |ddv_scf|^2 =  4.445E-12

      iter #   5 total cpu time :   543.3 secs   av.it.:   8.5
      thresh= 2.108E-07 alpha_mix =  0.700 |ddv_scf|^2 =  9.443E-15

     End of self-consistent calculation

     Convergence has been achieved 

     Number of q in the star =    8
     List of q in the star:
          1  -0.125000000   0.125000000  -0.125000000
          2   0.125000000  -0.125000000  -0.125000000
          3   0.125000000  -0.125000000   0.125000000
          4  -0.125000000   0.125000000   0.125000000
          5   0.125000000   0.125000000  -0.125000000
          6  -0.125000000  -0.125000000  -0.125000000
          7  -0.125000000  -0.125000000   0.125000000
          8   0.125000000   0.125000000   0.125000000

     Diagonalizing the dynamical matrix

     q = (   -0.125000000   0.125000000  -0.125000000 ) 

 **************************************************************************
     freq (    1) =       1.007514 [THz] =      33.607052 [cm-1]
     freq (    2) =       1.007514 [THz] =      33.607052 [cm-1]
     freq (    3) =       2.376800 [THz] =      79.281503 [cm-1]
 **************************************************************************

     Mode symmetry, C_3v (3m)   point group:

     freq (  1 -  2) =         33.6  [cm-1]   --> E    L_3           
     freq (  3 -  3) =         79.3  [cm-1]   --> A_1  L_1           

     Calculation of q =   -0.2500000   0.2500000  -0.2500000

   Info: using nr1, nr2, nr3 values from input

   Info: using nr1, nr2, nr3 values from input

     Parallelization info
     --------------------
     sticks:   dense  smooth     PW     G-vecs:    dense   smooth      PW
     Min         253     127     46                 5296     1895     409
     Max         254     130     47                 5298     1896     411
     Sum        1015     511    187                21187     7583    1639



     bravais-lattice index     =            2
     lattice parameter (alat)  =       9.5776  a.u.
     unit-cell volume          =     219.6411 (a.u.)^3
     number of atoms/cell      =            1
     number of atomic types    =            1
     number of electrons       =         9.00
     number of Kohn-Sham states=            9
     kinetic-energy cutoff     =      40.0000  Ry
     charge density cutoff     =     320.0000  Ry
     Exchange-correlation      = SLA  PW   PBE  PBE ( 1  4  3  4 0 0)

     celldm(1)=   9.577625  celldm(2)=   0.000000  celldm(3)=   0.000000
     celldm(4)=   0.000000  celldm(5)=   0.000000  celldm(6)=   0.000000

     crystal axes: (cart. coord. in units of alat)
               a(1) = (  -0.500000   0.000000   0.500000 )  
               a(2) = (   0.000000   0.500000   0.500000 )  
               a(3) = (  -0.500000   0.500000   0.000000 )  

     reciprocal axes: (cart. coord. in units 2 pi/alat)
               b(1) = ( -1.000000 -1.000000  1.000000 )  
               b(2) = (  1.000000  1.000000  1.000000 )  
               b(3) = ( -1.000000  1.000000 -1.000000 )  


     PseudoPot. # 1 for Na read from file:
     /home/s1333534/quantum_espresso/qe-6.1/pseudo/Na_pbe_v1.uspp.F.UPF
     MD5 check sum: 76a99c7e9422403d3e93cbc85ab7bccb
     Pseudo is Ultrasoft, Zval =  9.0
     Generated by new atomic code, or converted to UPF format
     Using radial grid of  819 points,  5 beta functions with: 
                l(1) =   0
                l(2) =   0
                l(3) =   1
                l(4) =   1
                l(5) =   2
     Q(r) pseudized with  8 coefficients,  rinner =    1.250   1.250   1.250
                                                       1.250   1.250

     atomic species   valence    mass     pseudopotential
        Na             9.00    22.99000     Na( 1.00)

     48 Sym. Ops., with inversion, found



   Cartesian axes

     site n.     atom                  positions (alat units)
         1           Na  tau(   1) = (   0.0000000   0.0000000   0.0000000  )

     number of k points=  4060  Marzari-Vanderbilt smearing, width (Ry)=  0.0200

     Number of k-points >= 100: set verbosity='high' to print them.

     Dense  grid:    21187 G-vectors     FFT dimensions: (  40,  40,  40)

     Smooth grid:     7583 G-vectors     FFT dimensions: (  27,  27,  27)

     Estimated max dynamical RAM per process >       2.08MB

     Estimated total allocated dynamical RAM >       8.30MB

     The potential is recalculated from file :
     ./_ph0/na.fcc.save/charge-density.dat

     Starting wfc are    5 atomic +    4 random wfc

     Band Structure Calculation
     Davidson diagonalization with overlap

     ethr =  1.11E-10,  avg # of iterations = 19.0

     total cpu time spent up to now is      223.0 secs

     End of band structure calculation

     Number of k-points >= 100: set verbosity='high' to print the bands.

     the Fermi energy is     2.1831 ev

     Writing output data file na.fcc.save

                                                                                

     bravais-lattice index     =            2
     lattice parameter (alat)  =       9.5776  a.u.
     unit-cell volume          =     219.6411 (a.u.)^3
     number of atoms/cell      =            1
     number of atomic types    =            1
     kinetic-energy cut-off    =      40.0000  Ry
     charge density cut-off    =     320.0000  Ry
     convergence threshold     =      1.0E-12
     beta                      =       0.7000
     number of iterations used =            4
     Exchange-correlation      = SLA  PW   PBE  PBE ( 1  4  3  4 0 0)


     celldm(1)=    9.57763  celldm(2)=    0.00000  celldm(3)=    0.00000
     celldm(4)=    0.00000  celldm(5)=    0.00000  celldm(6)=    0.00000

     crystal axes: (cart. coord. in units of alat)
               a(1) = ( -0.5000  0.0000  0.5000 )  
               a(2) = (  0.0000  0.5000  0.5000 )  
               a(3) = ( -0.5000  0.5000  0.0000 )  

     reciprocal axes: (cart. coord. in units 2 pi/alat)
               b(1) = ( -1.0000 -1.0000  1.0000 )  
               b(2) = (  1.0000  1.0000  1.0000 )  
               b(3) = ( -1.0000  1.0000 -1.0000 )  


     Atoms inside the unit cell: 

     Cartesian axes

     site n.  atom      mass           positions (alat units)
        1     Na  22.9900   tau(    1) = (    0.00000    0.00000    0.00000  )

     Computing dynamical matrix for 
                    q = (  -0.2500000   0.2500000  -0.2500000 )

      6 Sym.Ops. (no q -> -q+G )


     G cutoff =  743.5427  (   5296 G-vectors)     FFT grid: ( 40, 40, 40)
     G cutoff =  371.7713  (   1896 G-vectors)  smooth grid: ( 27, 27, 27)

     number of k points=  4060  Marzari-Vanderbilt smearing, width (Ry)=  0.0200

     PseudoPot. # 1 for Na read from file:
     /home/s1333534/quantum_espresso/qe-6.1/pseudo/Na_pbe_v1.uspp.F.UPF
     MD5 check sum: 76a99c7e9422403d3e93cbc85ab7bccb
     Pseudo is Ultrasoft, Zval =  9.0
     Generated by new atomic code, or converted to UPF format
     Using radial grid of  819 points,  5 beta functions with: 
                l(1) =   0
                l(2) =   0
                l(3) =   1
                l(4) =   1
                l(5) =   2
     Q(r) pseudized with  8 coefficients,  rinner =    1.250   1.250   1.250
                                                       1.250   1.250

     Mode symmetry, C_3v (3m)   point group:


     Atomic displacements:
     There are   2 irreducible representations

     Representation     1      1 modes -A_1  L_1  To be done

     Representation     2      2 modes -E    L_3  To be done



     Alpha used in Ewald sum =   2.8000
     PHONON       : 10m20.70s CPU    11m 5.88s WALL



     Representation #  1 mode #   1

     Self-consistent Calculation

      iter #   1 total cpu time :   684.6 secs   av.it.:   5.7
      thresh= 1.000E-02 alpha_mix =  0.700 |ddv_scf|^2 =  3.859E-03

      iter #   2 total cpu time :   702.1 secs   av.it.:   6.1
      thresh= 6.212E-03 alpha_mix =  0.700 |ddv_scf|^2 =  9.984E-02

      iter #   3 total cpu time :   719.0 secs   av.it.:   5.8
      thresh= 1.000E-02 alpha_mix =  0.700 |ddv_scf|^2 =  2.850E-06

      iter #   4 total cpu time :   738.7 secs   av.it.:   7.3
      thresh= 1.688E-04 alpha_mix =  0.700 |ddv_scf|^2 =  1.280E-08

      iter #   5 total cpu time :   760.0 secs   av.it.:   8.1
      thresh= 1.131E-05 alpha_mix =  0.700 |ddv_scf|^2 =  1.434E-09

      iter #   6 total cpu time :   780.8 secs   av.it.:   7.9
      thresh= 3.787E-06 alpha_mix =  0.700 |ddv_scf|^2 =  2.506E-11

      iter #   7 total cpu time :   802.6 secs   av.it.:   8.1
      thresh= 5.006E-07 alpha_mix =  0.700 |ddv_scf|^2 =  4.389E-11

      iter #   8 total cpu time :   819.7 secs   av.it.:   6.0
      thresh= 6.625E-07 alpha_mix =  0.700 |ddv_scf|^2 =  2.763E-11

      iter #   9 total cpu time :   838.1 secs   av.it.:   6.6
      thresh= 5.257E-07 alpha_mix =  0.700 |ddv_scf|^2 =  3.015E-12

      iter #  10 total cpu time :   857.0 secs   av.it.:   6.9
      thresh= 1.736E-07 alpha_mix =  0.700 |ddv_scf|^2 =  6.133E-14

     End of self-consistent calculation

     Convergence has been achieved 


     Representation #  2 modes #   2  3

     Self-consistent Calculation

      iter #   1 total cpu time :   895.0 secs   av.it.:   5.6
      thresh= 1.000E-02 alpha_mix =  0.700 |ddv_scf|^2 =  3.619E-06

      iter #   2 total cpu time :   938.4 secs   av.it.:   8.3
      thresh= 1.902E-04 alpha_mix =  0.700 |ddv_scf|^2 =  6.525E-08

      iter #   3 total cpu time :   982.8 secs   av.it.:   8.6
      thresh= 2.554E-05 alpha_mix =  0.700 |ddv_scf|^2 =  1.463E-09

      iter #   4 total cpu time :  1025.8 secs   av.it.:   8.1
      thresh= 3.824E-06 alpha_mix =  0.700 |ddv_scf|^2 =  5.204E-12

      iter #   5 total cpu time :  1070.4 secs   av.it.:   8.6
      thresh= 2.281E-07 alpha_mix =  0.700 |ddv_scf|^2 =  9.522E-15

     End of self-consistent calculation

     Convergence has been achieved 

     Number of q in the star =    8
     List of q in the star:
          1  -0.250000000   0.250000000  -0.250000000
          2   0.250000000  -0.250000000  -0.250000000
          3   0.250000000  -0.250000000   0.250000000
          4  -0.250000000   0.250000000   0.250000000
          5   0.250000000   0.250000000  -0.250000000
          6  -0.250000000  -0.250000000  -0.250000000
          7  -0.250000000  -0.250000000   0.250000000
          8   0.250000000   0.250000000   0.250000000

     Diagonalizing the dynamical matrix

     q = (   -0.250000000   0.250000000  -0.250000000 ) 

 **************************************************************************
     freq (    1) =       1.437187 [THz] =      47.939410 [cm-1]
     freq (    2) =       1.437187 [THz] =      47.939410 [cm-1]
     freq (    3) =       3.525195 [THz] =     117.587835 [cm-1]
 **************************************************************************

     Mode symmetry, C_3v (3m)   point group:

     freq (  1 -  2) =         47.9  [cm-1]   --> E    L_3           
     freq (  3 -  3) =        117.6  [cm-1]   --> A_1  L_1           

     Calculation of q =   -0.3750000   0.3750000  -0.3750000

   Info: using nr1, nr2, nr3 values from input

   Info: using nr1, nr2, nr3 values from input

     Parallelization info
     --------------------
     sticks:   dense  smooth     PW     G-vecs:    dense   smooth      PW
     Min         253     127     46                 5296     1895     420
     Max         254     130     47                 5298     1896     423
     Sum        1015     511    187                21187     7583    1687



     bravais-lattice index     =            2
     lattice parameter (alat)  =       9.5776  a.u.
     unit-cell volume          =     219.6411 (a.u.)^3
     number of atoms/cell      =            1
     number of atomic types    =            1
     number of electrons       =         9.00
     number of Kohn-Sham states=            9
     kinetic-energy cutoff     =      40.0000  Ry
     charge density cutoff     =     320.0000  Ry
     Exchange-correlation      = SLA  PW   PBE  PBE ( 1  4  3  4 0 0)

     celldm(1)=   9.577625  celldm(2)=   0.000000  celldm(3)=   0.000000
     celldm(4)=   0.000000  celldm(5)=   0.000000  celldm(6)=   0.000000

     crystal axes: (cart. coord. in units of alat)
               a(1) = (  -0.500000   0.000000   0.500000 )  
               a(2) = (   0.000000   0.500000   0.500000 )  
               a(3) = (  -0.500000   0.500000   0.000000 )  

     reciprocal axes: (cart. coord. in units 2 pi/alat)
               b(1) = ( -1.000000 -1.000000  1.000000 )  
               b(2) = (  1.000000  1.000000  1.000000 )  
               b(3) = ( -1.000000  1.000000 -1.000000 )  


     PseudoPot. # 1 for Na read from file:
     /home/s1333534/quantum_espresso/qe-6.1/pseudo/Na_pbe_v1.uspp.F.UPF
     MD5 check sum: 76a99c7e9422403d3e93cbc85ab7bccb
     Pseudo is Ultrasoft, Zval =  9.0
     Generated by new atomic code, or converted to UPF format
     Using radial grid of  819 points,  5 beta functions with: 
                l(1) =   0
                l(2) =   0
                l(3) =   1
                l(4) =   1
                l(5) =   2
     Q(r) pseudized with  8 coefficients,  rinner =    1.250   1.250   1.250
                                                       1.250   1.250

     atomic species   valence    mass     pseudopotential
        Na             9.00    22.99000     Na( 1.00)

     48 Sym. Ops., with inversion, found



   Cartesian axes

     site n.     atom                  positions (alat units)
         1           Na  tau(   1) = (   0.0000000   0.0000000   0.0000000  )

     number of k points=  4060  Marzari-Vanderbilt smearing, width (Ry)=  0.0200

     Number of k-points >= 100: set verbosity='high' to print them.

     Dense  grid:    21187 G-vectors     FFT dimensions: (  40,  40,  40)

     Smooth grid:     7583 G-vectors     FFT dimensions: (  27,  27,  27)

     Estimated max dynamical RAM per process >       2.08MB

     Estimated total allocated dynamical RAM >       8.30MB

     The potential is recalculated from file :
     ./_ph0/na.fcc.save/charge-density.dat

     Starting wfc are    5 atomic +    4 random wfc

     Band Structure Calculation
     Davidson diagonalization with overlap

     ethr =  1.11E-10,  avg # of iterations = 19.0

     total cpu time spent up to now is      335.7 secs

     End of band structure calculation

     Number of k-points >= 100: set verbosity='high' to print the bands.

     the Fermi energy is     2.1831 ev

     Writing output data file na.fcc.save

                                                                                

     bravais-lattice index     =            2
     lattice parameter (alat)  =       9.5776  a.u.
     unit-cell volume          =     219.6411 (a.u.)^3
     number of atoms/cell      =            1
     number of atomic types    =            1
     kinetic-energy cut-off    =      40.0000  Ry
     charge density cut-off    =     320.0000  Ry
     convergence threshold     =      1.0E-12
     beta                      =       0.7000
     number of iterations used =            4
     Exchange-correlation      = SLA  PW   PBE  PBE ( 1  4  3  4 0 0)


     celldm(1)=    9.57763  celldm(2)=    0.00000  celldm(3)=    0.00000
     celldm(4)=    0.00000  celldm(5)=    0.00000  celldm(6)=    0.00000

     crystal axes: (cart. coord. in units of alat)
               a(1) = ( -0.5000  0.0000  0.5000 )  
               a(2) = (  0.0000  0.5000  0.5000 )  
               a(3) = ( -0.5000  0.5000  0.0000 )  

     reciprocal axes: (cart. coord. in units 2 pi/alat)
               b(1) = ( -1.0000 -1.0000  1.0000 )  
               b(2) = (  1.0000  1.0000  1.0000 )  
               b(3) = ( -1.0000  1.0000 -1.0000 )  


     Atoms inside the unit cell: 

     Cartesian axes

     site n.  atom      mass           positions (alat units)
        1     Na  22.9900   tau(    1) = (    0.00000    0.00000    0.00000  )

     Computing dynamical matrix for 
                    q = (  -0.3750000   0.3750000  -0.3750000 )

      6 Sym.Ops. (no q -> -q+G )


     G cutoff =  743.5427  (   5296 G-vectors)     FFT grid: ( 40, 40, 40)
     G cutoff =  371.7713  (   1896 G-vectors)  smooth grid: ( 27, 27, 27)

     number of k points=  4060  Marzari-Vanderbilt smearing, width (Ry)=  0.0200

     PseudoPot. # 1 for Na read from file:
     /home/s1333534/quantum_espresso/qe-6.1/pseudo/Na_pbe_v1.uspp.F.UPF
     MD5 check sum: 76a99c7e9422403d3e93cbc85ab7bccb
     Pseudo is Ultrasoft, Zval =  9.0
     Generated by new atomic code, or converted to UPF format
     Using radial grid of  819 points,  5 beta functions with: 
                l(1) =   0
                l(2) =   0
                l(3) =   1
                l(4) =   1
                l(5) =   2
     Q(r) pseudized with  8 coefficients,  rinner =    1.250   1.250   1.250
                                                       1.250   1.250

     Mode symmetry, C_3v (3m)   point group:


     Atomic displacements:
     There are   2 irreducible representations

     Representation     1      1 modes -A_1  L_1  To be done

     Representation     2      2 modes -E    L_3  To be done



     Alpha used in Ewald sum =   2.8000
     PHONON       : 18m29.85s CPU    19m52.05s WALL



     Representation #  1 mode #   1

     Self-consistent Calculation

      iter #   1 total cpu time :  1211.1 secs   av.it.:   5.7
      thresh= 1.000E-02 alpha_mix =  0.700 |ddv_scf|^2 =  3.882E-04

      iter #   2 total cpu time :  1230.7 secs   av.it.:   6.7
      thresh= 1.970E-03 alpha_mix =  0.700 |ddv_scf|^2 =  1.267E-03

      iter #   3 total cpu time :  1247.9 secs   av.it.:   6.0
      thresh= 3.559E-03 alpha_mix =  0.700 |ddv_scf|^2 =  5.894E-07

      iter #   4 total cpu time :  1268.8 secs   av.it.:   7.7
      thresh= 7.677E-05 alpha_mix =  0.700 |ddv_scf|^2 =  1.518E-08

      iter #   5 total cpu time :  1290.4 secs   av.it.:   8.2
      thresh= 1.232E-05 alpha_mix =  0.700 |ddv_scf|^2 =  4.140E-10

      iter #   6 total cpu time :  1312.0 secs   av.it.:   8.0
      thresh= 2.035E-06 alpha_mix =  0.700 |ddv_scf|^2 =  2.582E-11

      iter #   7 total cpu time :  1332.6 secs   av.it.:   7.6
      thresh= 5.081E-07 alpha_mix =  0.700 |ddv_scf|^2 =  1.493E-12

      iter #   8 total cpu time :  1354.0 secs   av.it.:   8.0
      thresh= 1.222E-07 alpha_mix =  0.700 |ddv_scf|^2 =  3.984E-14

     End of self-consistent calculation

     Convergence has been achieved 


     Representation #  2 modes #   2  3

     Self-consistent Calculation

      iter #   1 total cpu time :  1392.8 secs   av.it.:   5.6
      thresh= 1.000E-02 alpha_mix =  0.700 |ddv_scf|^2 =  3.697E-06

      iter #   2 total cpu time :  1436.9 secs   av.it.:   8.3
      thresh= 1.923E-04 alpha_mix =  0.700 |ddv_scf|^2 =  6.486E-08

      iter #   3 total cpu time :  1481.6 secs   av.it.:   8.6
      thresh= 2.547E-05 alpha_mix =  0.700 |ddv_scf|^2 =  1.670E-09

      iter #   4 total cpu time :  1525.8 secs   av.it.:   8.1
      thresh= 4.087E-06 alpha_mix =  0.700 |ddv_scf|^2 =  5.859E-12

      iter #   5 total cpu time :  1570.4 secs   av.it.:   8.6
      thresh= 2.420E-07 alpha_mix =  0.700 |ddv_scf|^2 =  9.770E-15

     End of self-consistent calculation

     Convergence has been achieved 

     Number of q in the star =    8
     List of q in the star:
          1  -0.375000000   0.375000000  -0.375000000
          2   0.375000000  -0.375000000  -0.375000000
          3   0.375000000  -0.375000000   0.375000000
          4  -0.375000000   0.375000000   0.375000000
          5   0.375000000   0.375000000  -0.375000000
          6  -0.375000000  -0.375000000  -0.375000000
          7  -0.375000000  -0.375000000   0.375000000
          8   0.375000000   0.375000000   0.375000000

     Diagonalizing the dynamical matrix

     q = (   -0.375000000   0.375000000  -0.375000000 ) 

 **************************************************************************
     freq (    1) =       1.786330 [THz] =      59.585566 [cm-1]
     freq (    2) =       1.786330 [THz] =      59.585566 [cm-1]
     freq (    3) =       4.483714 [THz] =     149.560616 [cm-1]
 **************************************************************************

     Mode symmetry, C_3v (3m)   point group:

     freq (  1 -  2) =         59.6  [cm-1]   --> E    L_3           
     freq (  3 -  3) =        149.6  [cm-1]   --> A_1  L_1           

     Calculation of q =    0.5000000  -0.5000000   0.5000000

   Info: using nr1, nr2, nr3 values from input

   Info: using nr1, nr2, nr3 values from input

     Parallelization info
     --------------------
     sticks:   dense  smooth     PW     G-vecs:    dense   smooth      PW
     Min         253     127     49                 5296     1895     451
     Max         254     130     50                 5298     1896     453
     Sum        1015     511    199                21187     7583    1807



     bravais-lattice index     =            2
     lattice parameter (alat)  =       9.5776  a.u.
     unit-cell volume          =     219.6411 (a.u.)^3
     number of atoms/cell      =            1
     number of atomic types    =            1
     number of electrons       =         9.00
     number of Kohn-Sham states=            9
     kinetic-energy cutoff     =      40.0000  Ry
     charge density cutoff     =     320.0000  Ry
     Exchange-correlation      = SLA  PW   PBE  PBE ( 1  4  3  4 0 0)

     celldm(1)=   9.577625  celldm(2)=   0.000000  celldm(3)=   0.000000
     celldm(4)=   0.000000  celldm(5)=   0.000000  celldm(6)=   0.000000

     crystal axes: (cart. coord. in units of alat)
               a(1) = (  -0.500000   0.000000   0.500000 )  
               a(2) = (   0.000000   0.500000   0.500000 )  
               a(3) = (  -0.500000   0.500000   0.000000 )  

     reciprocal axes: (cart. coord. in units 2 pi/alat)
               b(1) = ( -1.000000 -1.000000  1.000000 )  
               b(2) = (  1.000000  1.000000  1.000000 )  
               b(3) = ( -1.000000  1.000000 -1.000000 )  


     PseudoPot. # 1 for Na read from file:
     /home/s1333534/quantum_espresso/qe-6.1/pseudo/Na_pbe_v1.uspp.F.UPF
     MD5 check sum: 76a99c7e9422403d3e93cbc85ab7bccb
     Pseudo is Ultrasoft, Zval =  9.0
     Generated by new atomic code, or converted to UPF format
     Using radial grid of  819 points,  5 beta functions with: 
                l(1) =   0
                l(2) =   0
                l(3) =   1
                l(4) =   1
                l(5) =   2
     Q(r) pseudized with  8 coefficients,  rinner =    1.250   1.250   1.250
                                                       1.250   1.250

     atomic species   valence    mass     pseudopotential
        Na             9.00    22.99000     Na( 1.00)

     48 Sym. Ops., with inversion, found



   Cartesian axes

     site n.     atom                  positions (alat units)
         1           Na  tau(   1) = (   0.0000000   0.0000000   0.0000000  )

     number of k points=  2030  Marzari-Vanderbilt smearing, width (Ry)=  0.0200

     Number of k-points >= 100: set verbosity='high' to print them.

     Dense  grid:    21187 G-vectors     FFT dimensions: (  40,  40,  40)

     Smooth grid:     7583 G-vectors     FFT dimensions: (  27,  27,  27)

     Estimated max dynamical RAM per process >       2.08MB

     Estimated total allocated dynamical RAM >       8.30MB

     The potential is recalculated from file :
     ./_ph0/na.fcc.save/charge-density.dat

     Starting wfc are    5 atomic +    4 random wfc

     Band Structure Calculation
     Davidson diagonalization with overlap

     ethr =  1.11E-10,  avg # of iterations = 19.0

     total cpu time spent up to now is      394.5 secs

     End of band structure calculation

     Number of k-points >= 100: set verbosity='high' to print the bands.

     the Fermi energy is     2.1831 ev

     Writing output data file na.fcc.save

                                                                                

     bravais-lattice index     =            2
     lattice parameter (alat)  =       9.5776  a.u.
     unit-cell volume          =     219.6411 (a.u.)^3
     number of atoms/cell      =            1
     number of atomic types    =            1
     kinetic-energy cut-off    =      40.0000  Ry
     charge density cut-off    =     320.0000  Ry
     convergence threshold     =      1.0E-12
     beta                      =       0.7000
     number of iterations used =            4
     Exchange-correlation      = SLA  PW   PBE  PBE ( 1  4  3  4 0 0)


     celldm(1)=    9.57763  celldm(2)=    0.00000  celldm(3)=    0.00000
     celldm(4)=    0.00000  celldm(5)=    0.00000  celldm(6)=    0.00000

     crystal axes: (cart. coord. in units of alat)
               a(1) = ( -0.5000  0.0000  0.5000 )  
               a(2) = (  0.0000  0.5000  0.5000 )  
               a(3) = ( -0.5000  0.5000  0.0000 )  

     reciprocal axes: (cart. coord. in units 2 pi/alat)
               b(1) = ( -1.0000 -1.0000  1.0000 )  
               b(2) = (  1.0000  1.0000  1.0000 )  
               b(3) = ( -1.0000  1.0000 -1.0000 )  


     Atoms inside the unit cell: 

     Cartesian axes

     site n.  atom      mass           positions (alat units)
        1     Na  22.9900   tau(    1) = (    0.00000    0.00000    0.00000  )

     Computing dynamical matrix for 
                    q = (   0.5000000  -0.5000000   0.5000000 )

     13 Sym.Ops. (with q -> -q+G )


     G cutoff =  743.5427  (   5296 G-vectors)     FFT grid: ( 40, 40, 40)
     G cutoff =  371.7713  (   1896 G-vectors)  smooth grid: ( 27, 27, 27)

     number of k points=  2030  Marzari-Vanderbilt smearing, width (Ry)=  0.0200

     PseudoPot. # 1 for Na read from file:
     /home/s1333534/quantum_espresso/qe-6.1/pseudo/Na_pbe_v1.uspp.F.UPF
     MD5 check sum: 76a99c7e9422403d3e93cbc85ab7bccb
     Pseudo is Ultrasoft, Zval =  9.0
     Generated by new atomic code, or converted to UPF format
     Using radial grid of  819 points,  5 beta functions with: 
                l(1) =   0
                l(2) =   0
                l(3) =   1
                l(4) =   1
                l(5) =   2
     Q(r) pseudized with  8 coefficients,  rinner =    1.250   1.250   1.250
                                                       1.250   1.250

     Mode symmetry, D_3d (-3m)  point group:


     Atomic displacements:
     There are   2 irreducible representations

     Representation     1      1 modes -A_2u L_2'  To be done

     Representation     2      2 modes -E_u  L_3'  To be done



     Alpha used in Ewald sum =   2.8000
     PHONON       : 25m17.65s CPU    27m12.94s WALL



     Representation #  1 mode #   1

     Self-consistent Calculation

      iter #   1 total cpu time :  1642.5 secs   av.it.:   5.7
      thresh= 1.000E-02 alpha_mix =  0.700 |ddv_scf|^2 =  1.476E-04

      iter #   2 total cpu time :  1652.0 secs   av.it.:   6.8
      thresh= 1.215E-03 alpha_mix =  0.700 |ddv_scf|^2 =  8.949E-05

      iter #   3 total cpu time :  1661.2 secs   av.it.:   6.5
      thresh= 9.460E-04 alpha_mix =  0.700 |ddv_scf|^2 =  1.065E-07

      iter #   4 total cpu time :  1672.4 secs   av.it.:   7.8
      thresh= 3.263E-05 alpha_mix =  0.700 |ddv_scf|^2 =  4.142E-10

      iter #   5 total cpu time :  1681.9 secs   av.it.:   6.8
      thresh= 2.035E-06 alpha_mix =  0.700 |ddv_scf|^2 =  9.140E-12

      iter #   6 total cpu time :  1691.0 secs   av.it.:   6.5
      thresh= 3.023E-07 alpha_mix =  0.700 |ddv_scf|^2 =  2.369E-14

     End of self-consistent calculation

     Convergence has been achieved 


     Representation #  2 modes #   2  3

     Self-consistent Calculation

      iter #   1 total cpu time :  1709.9 secs   av.it.:   5.4
      thresh= 1.000E-02 alpha_mix =  0.700 |ddv_scf|^2 =  3.728E-06

      iter #   2 total cpu time :  1732.6 secs   av.it.:   8.2
      thresh= 1.931E-04 alpha_mix =  0.700 |ddv_scf|^2 =  6.476E-08

      iter #   3 total cpu time :  1755.2 secs   av.it.:   8.5
      thresh= 2.545E-05 alpha_mix =  0.700 |ddv_scf|^2 =  1.743E-09

      iter #   4 total cpu time :  1776.0 secs   av.it.:   7.7
      thresh= 4.175E-06 alpha_mix =  0.700 |ddv_scf|^2 =  6.159E-12

      iter #   5 total cpu time :  1797.8 secs   av.it.:   8.1
      thresh= 2.482E-07 alpha_mix =  0.700 |ddv_scf|^2 =  9.936E-15

     End of self-consistent calculation

     Convergence has been achieved 

     Number of q in the star =    4
     List of q in the star:
          1   0.500000000  -0.500000000   0.500000000
          2   0.500000000   0.500000000   0.500000000
          3  -0.500000000   0.500000000   0.500000000
          4   0.500000000   0.500000000  -0.500000000

     Diagonalizing the dynamical matrix

     q = (    0.500000000  -0.500000000   0.500000000 ) 

 **************************************************************************
     freq (    1) =       1.965364 [THz] =      65.557488 [cm-1]
     freq (    2) =       1.965364 [THz] =      65.557488 [cm-1]
     freq (    3) =       4.854893 [THz] =     161.941808 [cm-1]
 **************************************************************************

     Mode symmetry, D_3d (-3m)  point group:

     freq (  1 -  2) =         65.6  [cm-1]   --> E_u  L_3'          
     freq (  3 -  3) =        161.9  [cm-1]   --> A_2u L_2'          

     Calculation of q =    0.0000000   0.2500000   0.0000000

   Info: using nr1, nr2, nr3 values from input

   Info: using nr1, nr2, nr3 values from input

     Parallelization info
     --------------------
     sticks:   dense  smooth     PW     G-vecs:    dense   smooth      PW
     Min         253     127     42                 5296     1895     367
     Max         254     130     43                 5298     1896     368
     Sum        1015     511    169                21187     7583    1471



     bravais-lattice index     =            2
     lattice parameter (alat)  =       9.5776  a.u.
     unit-cell volume          =     219.6411 (a.u.)^3
     number of atoms/cell      =            1
     number of atomic types    =            1
     number of electrons       =         9.00
     number of Kohn-Sham states=            9
     kinetic-energy cutoff     =      40.0000  Ry
     charge density cutoff     =     320.0000  Ry
     Exchange-correlation      = SLA  PW   PBE  PBE ( 1  4  3  4 0 0)

     celldm(1)=   9.577625  celldm(2)=   0.000000  celldm(3)=   0.000000
     celldm(4)=   0.000000  celldm(5)=   0.000000  celldm(6)=   0.000000

     crystal axes: (cart. coord. in units of alat)
               a(1) = (  -0.500000   0.000000   0.500000 )  
               a(2) = (   0.000000   0.500000   0.500000 )  
               a(3) = (  -0.500000   0.500000   0.000000 )  

     reciprocal axes: (cart. coord. in units 2 pi/alat)
               b(1) = ( -1.000000 -1.000000  1.000000 )  
               b(2) = (  1.000000  1.000000  1.000000 )  
               b(3) = ( -1.000000  1.000000 -1.000000 )  


     PseudoPot. # 1 for Na read from file:
     /home/s1333534/quantum_espresso/qe-6.1/pseudo/Na_pbe_v1.uspp.F.UPF
     MD5 check sum: 76a99c7e9422403d3e93cbc85ab7bccb
     Pseudo is Ultrasoft, Zval =  9.0
     Generated by new atomic code, or converted to UPF format
     Using radial grid of  819 points,  5 beta functions with: 
                l(1) =   0
                l(2) =   0
                l(3) =   1
                l(4) =   1
                l(5) =   2
     Q(r) pseudized with  8 coefficients,  rinner =    1.250   1.250   1.250
                                                       1.250   1.250

     atomic species   valence    mass     pseudopotential
        Na             9.00    22.99000     Na( 1.00)

     48 Sym. Ops., with inversion, found



   Cartesian axes

     site n.     atom                  positions (alat units)
         1           Na  tau(   1) = (   0.0000000   0.0000000   0.0000000  )

     number of k points=  2940  Marzari-Vanderbilt smearing, width (Ry)=  0.0200

     Number of k-points >= 100: set verbosity='high' to print them.

     Dense  grid:    21187 G-vectors     FFT dimensions: (  40,  40,  40)

     Smooth grid:     7583 G-vectors     FFT dimensions: (  27,  27,  27)

     Estimated max dynamical RAM per process >       2.08MB

     Estimated total allocated dynamical RAM >       8.30MB

     The potential is recalculated from file :
     ./_ph0/na.fcc.save/charge-density.dat

     Starting wfc are    5 atomic +    4 random wfc

     Band Structure Calculation
     Davidson diagonalization with overlap

     ethr =  1.11E-10,  avg # of iterations = 18.9

     total cpu time spent up to now is      475.2 secs

     End of band structure calculation

     Number of k-points >= 100: set verbosity='high' to print the bands.

     the Fermi energy is     2.1831 ev

     Writing output data file na.fcc.save

                                                                                

     bravais-lattice index     =            2
     lattice parameter (alat)  =       9.5776  a.u.
     unit-cell volume          =     219.6411 (a.u.)^3
     number of atoms/cell      =            1
     number of atomic types    =            1
     kinetic-energy cut-off    =      40.0000  Ry
     charge density cut-off    =     320.0000  Ry
     convergence threshold     =      1.0E-12
     beta                      =       0.7000
     number of iterations used =            4
     Exchange-correlation      = SLA  PW   PBE  PBE ( 1  4  3  4 0 0)


     celldm(1)=    9.57763  celldm(2)=    0.00000  celldm(3)=    0.00000
     celldm(4)=    0.00000  celldm(5)=    0.00000  celldm(6)=    0.00000

     crystal axes: (cart. coord. in units of alat)
               a(1) = ( -0.5000  0.0000  0.5000 )  
               a(2) = (  0.0000  0.5000  0.5000 )  
               a(3) = ( -0.5000  0.5000  0.0000 )  

     reciprocal axes: (cart. coord. in units 2 pi/alat)
               b(1) = ( -1.0000 -1.0000  1.0000 )  
               b(2) = (  1.0000  1.0000  1.0000 )  
               b(3) = ( -1.0000  1.0000 -1.0000 )  


     Atoms inside the unit cell: 

     Cartesian axes

     site n.  atom      mass           positions (alat units)
        1     Na  22.9900   tau(    1) = (    0.00000    0.00000    0.00000  )

     Computing dynamical matrix for 
                    q = (   0.0000000   0.2500000   0.0000000 )

      8 Sym.Ops. (no q -> -q+G )


     G cutoff =  743.5427  (   5296 G-vectors)     FFT grid: ( 40, 40, 40)
     G cutoff =  371.7713  (   1896 G-vectors)  smooth grid: ( 27, 27, 27)

     number of k points=  2940  Marzari-Vanderbilt smearing, width (Ry)=  0.0200

     PseudoPot. # 1 for Na read from file:
     /home/s1333534/quantum_espresso/qe-6.1/pseudo/Na_pbe_v1.uspp.F.UPF
     MD5 check sum: 76a99c7e9422403d3e93cbc85ab7bccb
     Pseudo is Ultrasoft, Zval =  9.0
     Generated by new atomic code, or converted to UPF format
     Using radial grid of  819 points,  5 beta functions with: 
                l(1) =   0
                l(2) =   0
                l(3) =   1
                l(4) =   1
                l(5) =   2
     Q(r) pseudized with  8 coefficients,  rinner =    1.250   1.250   1.250
                                                       1.250   1.250

     Mode symmetry, C_4v (4mm)  point group:


     Atomic displacements:
     There are   2 irreducible representations

     Representation     1      1 modes -A_1  G_1 D_1  To be done

     Representation     2      2 modes -E    G_5 D_5  To be done



     Alpha used in Ewald sum =   2.8000
     PHONON       : 29m13.33s CPU    31m26.82s WALL



     Representation #  1 mode #   1

     Self-consistent Calculation

      iter #   1 total cpu time :  1900.1 secs   av.it.:   5.6
      thresh= 1.000E-02 alpha_mix =  0.700 |ddv_scf|^2 =  1.060E-01

      iter #   2 total cpu time :  1913.6 secs   av.it.:   6.8
      thresh= 1.000E-02 alpha_mix =  0.700 |ddv_scf|^2 =  3.200E+01

      iter #   3 total cpu time :  1927.8 secs   av.it.:   6.8
      thresh= 1.000E-02 alpha_mix =  0.700 |ddv_scf|^2 =  3.466E-05

      iter #   4 total cpu time :  1940.3 secs   av.it.:   6.2
      thresh= 5.888E-04 alpha_mix =  0.700 |ddv_scf|^2 =  1.736E-07

      iter #   5 total cpu time :  1954.2 secs   av.it.:   7.2
      thresh= 4.167E-05 alpha_mix =  0.700 |ddv_scf|^2 =  1.863E-08

      iter #   6 total cpu time :  1965.7 secs   av.it.:   5.4
      thresh= 1.365E-05 alpha_mix =  0.700 |ddv_scf|^2 =  1.355E-07

      iter #   7 total cpu time :  1977.5 secs   av.it.:   5.8
      thresh= 3.681E-05 alpha_mix =  0.700 |ddv_scf|^2 =  3.478E-11

      iter #   8 total cpu time :  1992.7 secs   av.it.:   8.0
      thresh= 5.898E-07 alpha_mix =  0.700 |ddv_scf|^2 =  1.931E-12

      iter #   9 total cpu time :  2007.6 secs   av.it.:   7.9
      thresh= 1.389E-07 alpha_mix =  0.700 |ddv_scf|^2 =  2.879E-13

     End of self-consistent calculation

     Convergence has been achieved 


     Representation #  2 modes #   2  3

     Self-consistent Calculation

      iter #   1 total cpu time :  2034.9 secs   av.it.:   5.5
      thresh= 1.000E-02 alpha_mix =  0.700 |ddv_scf|^2 =  3.647E-06

      iter #   2 total cpu time :  2067.2 secs   av.it.:   8.2
      thresh= 1.910E-04 alpha_mix =  0.700 |ddv_scf|^2 =  6.442E-08

      iter #   3 total cpu time :  2099.6 secs   av.it.:   8.5
      thresh= 2.538E-05 alpha_mix =  0.700 |ddv_scf|^2 =  1.608E-09

      iter #   4 total cpu time :  2131.8 secs   av.it.:   8.1
      thresh= 4.010E-06 alpha_mix =  0.700 |ddv_scf|^2 =  5.517E-12

      iter #   5 total cpu time :  2163.9 secs   av.it.:   8.5
      thresh= 2.349E-07 alpha_mix =  0.700 |ddv_scf|^2 =  8.750E-15

     End of self-consistent calculation

     Convergence has been achieved 

     Number of q in the star =    6
     List of q in the star:
          1   0.000000000   0.250000000   0.000000000
          2   0.000000000  -0.250000000   0.000000000
          3   0.250000000   0.000000000   0.000000000
          4   0.000000000   0.000000000   0.250000000
          5   0.000000000   0.000000000  -0.250000000
          6  -0.250000000   0.000000000   0.000000000

     Diagonalizing the dynamical matrix

     q = (    0.000000000   0.250000000   0.000000000 ) 

 **************************************************************************
     freq (    1) =       1.432880 [THz] =      47.795747 [cm-1]
     freq (    2) =       1.432880 [THz] =      47.795747 [cm-1]
     freq (    3) =       2.221930 [THz] =      74.115610 [cm-1]
 **************************************************************************

     Mode symmetry, C_4v (4mm)  point group:

     freq (  1 -  2) =         47.8  [cm-1]   --> E    G_5 D_5       
     freq (  3 -  3) =         74.1  [cm-1]   --> A_1  G_1 D_1       

     Calculation of q =   -0.1250000   0.3750000  -0.1250000

   Info: using nr1, nr2, nr3 values from input

   Info: using nr1, nr2, nr3 values from input

     Parallelization info
     --------------------
     sticks:   dense  smooth     PW     G-vecs:    dense   smooth      PW
     Min         253     127     46                 5296     1895     409
     Max         254     130     47                 5298     1896     411
     Sum        1015     511    187                21187     7583    1639



     bravais-lattice index     =            2
     lattice parameter (alat)  =       9.5776  a.u.
     unit-cell volume          =     219.6411 (a.u.)^3
     number of atoms/cell      =            1
     number of atomic types    =            1
     number of electrons       =         9.00
     number of Kohn-Sham states=            9
     kinetic-energy cutoff     =      40.0000  Ry
     charge density cutoff     =     320.0000  Ry
     Exchange-correlation      = SLA  PW   PBE  PBE ( 1  4  3  4 0 0)

     celldm(1)=   9.577625  celldm(2)=   0.000000  celldm(3)=   0.000000
     celldm(4)=   0.000000  celldm(5)=   0.000000  celldm(6)=   0.000000

     crystal axes: (cart. coord. in units of alat)
               a(1) = (  -0.500000   0.000000   0.500000 )  
               a(2) = (   0.000000   0.500000   0.500000 )  
               a(3) = (  -0.500000   0.500000   0.000000 )  

     reciprocal axes: (cart. coord. in units 2 pi/alat)
               b(1) = ( -1.000000 -1.000000  1.000000 )  
               b(2) = (  1.000000  1.000000  1.000000 )  
               b(3) = ( -1.000000  1.000000 -1.000000 )  


     PseudoPot. # 1 for Na read from file:
     /home/s1333534/quantum_espresso/qe-6.1/pseudo/Na_pbe_v1.uspp.F.UPF
     MD5 check sum: 76a99c7e9422403d3e93cbc85ab7bccb
     Pseudo is Ultrasoft, Zval =  9.0
     Generated by new atomic code, or converted to UPF format
     Using radial grid of  819 points,  5 beta functions with: 
                l(1) =   0
                l(2) =   0
                l(3) =   1
                l(4) =   1
                l(5) =   2
     Q(r) pseudized with  8 coefficients,  rinner =    1.250   1.250   1.250
                                                       1.250   1.250

     atomic species   valence    mass     pseudopotential
        Na             9.00    22.99000     Na( 1.00)

     48 Sym. Ops., with inversion, found



   Cartesian axes

     site n.     atom                  positions (alat units)
         1           Na  tau(   1) = (   0.0000000   0.0000000   0.0000000  )

     number of k points= 11368  Marzari-Vanderbilt smearing, width (Ry)=  0.0200

     Number of k-points >= 100: set verbosity='high' to print them.

     Dense  grid:    21187 G-vectors     FFT dimensions: (  40,  40,  40)

     Smooth grid:     7583 G-vectors     FFT dimensions: (  27,  27,  27)

     Estimated max dynamical RAM per process >       2.08MB

     Estimated total allocated dynamical RAM >       8.30MB

     The potential is recalculated from file :
     ./_ph0/na.fcc.save/charge-density.dat

     Starting wfc are    5 atomic +    4 random wfc

     Band Structure Calculation
     Davidson diagonalization with overlap

     ethr =  1.11E-10,  avg # of iterations = 18.8

     total cpu time spent up to now is      783.2 secs

     End of band structure calculation

     Number of k-points >= 100: set verbosity='high' to print the bands.

     the Fermi energy is     2.1831 ev

     Writing output data file na.fcc.save

                                                                                

     bravais-lattice index     =            2
     lattice parameter (alat)  =       9.5776  a.u.
     unit-cell volume          =     219.6411 (a.u.)^3
     number of atoms/cell      =            1
     number of atomic types    =            1
     kinetic-energy cut-off    =      40.0000  Ry
     charge density cut-off    =     320.0000  Ry
     convergence threshold     =      1.0E-12
     beta                      =       0.7000
     number of iterations used =            4
     Exchange-correlation      = SLA  PW   PBE  PBE ( 1  4  3  4 0 0)


     celldm(1)=    9.57763  celldm(2)=    0.00000  celldm(3)=    0.00000
     celldm(4)=    0.00000  celldm(5)=    0.00000  celldm(6)=    0.00000

     crystal axes: (cart. coord. in units of alat)
               a(1) = ( -0.5000  0.0000  0.5000 )  
               a(2) = (  0.0000  0.5000  0.5000 )  
               a(3) = ( -0.5000  0.5000  0.0000 )  

     reciprocal axes: (cart. coord. in units 2 pi/alat)
               b(1) = ( -1.0000 -1.0000  1.0000 )  
               b(2) = (  1.0000  1.0000  1.0000 )  
               b(3) = ( -1.0000  1.0000 -1.0000 )  


     Atoms inside the unit cell: 

     Cartesian axes

     site n.  atom      mass           positions (alat units)
        1     Na  22.9900   tau(    1) = (    0.00000    0.00000    0.00000  )

     Computing dynamical matrix for 
                    q = (  -0.1250000   0.3750000  -0.1250000 )

      2 Sym.Ops. (no q -> -q+G )


     G cutoff =  743.5427  (   5296 G-vectors)     FFT grid: ( 40, 40, 40)
     G cutoff =  371.7713  (   1896 G-vectors)  smooth grid: ( 27, 27, 27)

     number of k points= 11368  Marzari-Vanderbilt smearing, width (Ry)=  0.0200

     PseudoPot. # 1 for Na read from file:
     /home/s1333534/quantum_espresso/qe-6.1/pseudo/Na_pbe_v1.uspp.F.UPF
     MD5 check sum: 76a99c7e9422403d3e93cbc85ab7bccb
     Pseudo is Ultrasoft, Zval =  9.0
     Generated by new atomic code, or converted to UPF format
     Using radial grid of  819 points,  5 beta functions with: 
                l(1) =   0
                l(2) =   0
                l(3) =   1
                l(4) =   1
                l(5) =   2
     Q(r) pseudized with  8 coefficients,  rinner =    1.250   1.250   1.250
                                                       1.250   1.250

     Mode symmetry, C_s (m)     point group:


     Atomic displacements:
     There are   3 irreducible representations

     Representation     1      1 modes -A'  To be done

     Representation     2      1 modes -A'  To be done

     Representation     3      1 modes -A''  To be done



     Alpha used in Ewald sum =   2.8000
     PHONON       : 38m44.82s CPU    41m40.59s WALL



     Representation #  1 mode #   1

     Self-consistent Calculation

      iter #   1 total cpu time :  2554.9 secs   av.it.:   5.8
      thresh= 1.000E-02 alpha_mix =  0.700 |ddv_scf|^2 =  4.371E-03

      iter #   2 total cpu time :  2605.3 secs   av.it.:   6.3
      thresh= 6.611E-03 alpha_mix =  0.700 |ddv_scf|^2 =  1.395E-01

      iter #   3 total cpu time :  2653.3 secs   av.it.:   5.8
      thresh= 1.000E-02 alpha_mix =  0.700 |ddv_scf|^2 =  2.647E-06

      iter #   4 total cpu time :  2710.3 secs   av.it.:   7.4
      thresh= 1.627E-04 alpha_mix =  0.700 |ddv_scf|^2 =  1.874E-08

      iter #   5 total cpu time :  2771.1 secs   av.it.:   8.0
      thresh= 1.369E-05 alpha_mix =  0.700 |ddv_scf|^2 =  1.679E-09

      iter #   6 total cpu time :  2829.2 secs   av.it.:   7.7
      thresh= 4.098E-06 alpha_mix =  0.700 |ddv_scf|^2 =  4.189E-11

      iter #   7 total cpu time :  2890.9 secs   av.it.:   8.2
      thresh= 6.472E-07 alpha_mix =  0.700 |ddv_scf|^2 =  1.788E-10

      iter #   8 total cpu time :  2934.8 secs   av.it.:   5.2
      thresh= 1.337E-06 alpha_mix =  0.700 |ddv_scf|^2 =  2.617E-12

      iter #   9 total cpu time :  2991.9 secs   av.it.:   7.4
      thresh= 1.618E-07 alpha_mix =  0.700 |ddv_scf|^2 =  1.075E-13

     End of self-consistent calculation

     Convergence has been achieved 


     Representation #  2 mode #   2

     Self-consistent Calculation

      iter #   1 total cpu time :  3047.6 secs   av.it.:   5.7
      thresh= 1.000E-02 alpha_mix =  0.700 |ddv_scf|^2 =  6.739E-04

      iter #   2 total cpu time :  3100.9 secs   av.it.:   6.8
      thresh= 2.596E-03 alpha_mix =  0.700 |ddv_scf|^2 =  2.109E-02

      iter #   3 total cpu time :  3143.1 secs   av.it.:   4.9
      thresh= 1.000E-02 alpha_mix =  0.700 |ddv_scf|^2 =  2.896E-07

      iter #   4 total cpu time :  3204.1 secs   av.it.:   8.2
      thresh= 5.381E-05 alpha_mix =  0.700 |ddv_scf|^2 =  9.806E-09

      iter #   5 total cpu time :  3263.6 secs   av.it.:   7.9
      thresh= 9.903E-06 alpha_mix =  0.700 |ddv_scf|^2 =  4.052E-10

      iter #   6 total cpu time :  3323.0 secs   av.it.:   7.9
      thresh= 2.013E-06 alpha_mix =  0.700 |ddv_scf|^2 =  7.078E-11

      iter #   7 total cpu time :  3379.4 secs   av.it.:   7.5
      thresh= 8.413E-07 alpha_mix =  0.700 |ddv_scf|^2 =  4.264E-10

      iter #   8 total cpu time :  3430.5 secs   av.it.:   6.5
      thresh= 2.065E-06 alpha_mix =  0.700 |ddv_scf|^2 =  4.640E-11

      iter #   9 total cpu time :  3480.7 secs   av.it.:   6.4
      thresh= 6.811E-07 alpha_mix =  0.700 |ddv_scf|^2 =  9.778E-12

      iter #  10 total cpu time :  3536.5 secs   av.it.:   7.1
      thresh= 3.127E-07 alpha_mix =  0.700 |ddv_scf|^2 =  2.614E-14

     End of self-consistent calculation

     Convergence has been achieved 


     Representation #  3 mode #   3

     Self-consistent Calculation

      iter #   1 total cpu time :  3590.3 secs   av.it.:   5.4
      thresh= 1.000E-02 alpha_mix =  0.700 |ddv_scf|^2 =  1.520E-05

      iter #   2 total cpu time :  3648.5 secs   av.it.:   7.6
      thresh= 3.899E-04 alpha_mix =  0.700 |ddv_scf|^2 =  2.522E-07

      iter #   3 total cpu time :  3707.7 secs   av.it.:   7.8
      thresh= 5.021E-05 alpha_mix =  0.700 |ddv_scf|^2 =  8.702E-09

      iter #   4 total cpu time :  3765.3 secs   av.it.:   7.5
      thresh= 9.328E-06 alpha_mix =  0.700 |ddv_scf|^2 =  2.892E-11

      iter #   5 total cpu time :  3824.2 secs   av.it.:   7.8
      thresh= 5.377E-07 alpha_mix =  0.700 |ddv_scf|^2 =  3.421E-14

     End of self-consistent calculation

     Convergence has been achieved 

     Number of q in the star =   24
     List of q in the star:
          1  -0.125000000   0.375000000  -0.125000000
          2  -0.125000000   0.375000000   0.125000000
          3   0.125000000   0.375000000  -0.125000000
          4   0.125000000   0.375000000   0.125000000
          5   0.125000000  -0.375000000   0.125000000
          6   0.375000000  -0.125000000   0.125000000
          7   0.125000000  -0.125000000   0.375000000
          8  -0.125000000  -0.375000000  -0.125000000
          9   0.125000000  -0.375000000  -0.125000000
         10  -0.125000000  -0.375000000   0.125000000
         11   0.125000000  -0.125000000  -0.375000000
         12   0.375000000  -0.125000000  -0.125000000
         13  -0.375000000  -0.125000000   0.125000000
         14   0.375000000   0.125000000   0.125000000
         15  -0.125000000  -0.125000000   0.375000000
         16   0.125000000   0.125000000   0.375000000
         17  -0.375000000   0.125000000  -0.125000000
         18  -0.125000000   0.125000000  -0.375000000
         19  -0.375000000  -0.125000000  -0.125000000
         20   0.125000000   0.125000000  -0.375000000
         21   0.375000000   0.125000000  -0.125000000
         22  -0.125000000  -0.125000000  -0.375000000
         23  -0.375000000   0.125000000   0.125000000
         24  -0.125000000   0.125000000   0.375000000

     Diagonalizing the dynamical matrix

     q = (   -0.125000000   0.375000000  -0.125000000 ) 

 **************************************************************************
     freq (    1) =       1.889045 [THz] =      63.011749 [cm-1]
     freq (    2) =       1.950312 [THz] =      65.055390 [cm-1]
     freq (    3) =       3.244078 [THz] =     108.210798 [cm-1]
 **************************************************************************

     Mode symmetry, C_s (m)     point group:

     freq (  1 -  1) =         63.0  [cm-1]   --> A''                
     freq (  2 -  2) =         65.1  [cm-1]   --> A'                 
     freq (  3 -  3) =        108.2  [cm-1]   --> A'                 

     Calculation of q =   -0.2500000   0.5000000  -0.2500000

   Info: using nr1, nr2, nr3 values from input

   Info: using nr1, nr2, nr3 values from input

     Parallelization info
     --------------------
     sticks:   dense  smooth     PW     G-vecs:    dense   smooth      PW
     Min         253     127     46                 5296     1895     420
     Max         254     130     47                 5298     1896     423
     Sum        1015     511    187                21187     7583    1687



     bravais-lattice index     =            2
     lattice parameter (alat)  =       9.5776  a.u.
     unit-cell volume          =     219.6411 (a.u.)^3
     number of atoms/cell      =            1
     number of atomic types    =            1
     number of electrons       =         9.00
     number of Kohn-Sham states=            9
     kinetic-energy cutoff     =      40.0000  Ry
     charge density cutoff     =     320.0000  Ry
     Exchange-correlation      = SLA  PW   PBE  PBE ( 1  4  3  4 0 0)

     celldm(1)=   9.577625  celldm(2)=   0.000000  celldm(3)=   0.000000
     celldm(4)=   0.000000  celldm(5)=   0.000000  celldm(6)=   0.000000

     crystal axes: (cart. coord. in units of alat)
               a(1) = (  -0.500000   0.000000   0.500000 )  
               a(2) = (   0.000000   0.500000   0.500000 )  
               a(3) = (  -0.500000   0.500000   0.000000 )  

     reciprocal axes: (cart. coord. in units 2 pi/alat)
               b(1) = ( -1.000000 -1.000000  1.000000 )  
               b(2) = (  1.000000  1.000000  1.000000 )  
               b(3) = ( -1.000000  1.000000 -1.000000 )  


     PseudoPot. # 1 for Na read from file:
     /home/s1333534/quantum_espresso/qe-6.1/pseudo/Na_pbe_v1.uspp.F.UPF
     MD5 check sum: 76a99c7e9422403d3e93cbc85ab7bccb
     Pseudo is Ultrasoft, Zval =  9.0
     Generated by new atomic code, or converted to UPF format
     Using radial grid of  819 points,  5 beta functions with: 
                l(1) =   0
                l(2) =   0
                l(3) =   1
                l(4) =   1
                l(5) =   2
     Q(r) pseudized with  8 coefficients,  rinner =    1.250   1.250   1.250
                                                       1.250   1.250

     atomic species   valence    mass     pseudopotential
        Na             9.00    22.99000     Na( 1.00)

     48 Sym. Ops., with inversion, found



   Cartesian axes

     site n.     atom                  positions (alat units)
         1           Na  tau(   1) = (   0.0000000   0.0000000   0.0000000  )

     number of k points= 11368  Marzari-Vanderbilt smearing, width (Ry)=  0.0200

     Number of k-points >= 100: set verbosity='high' to print them.

     Dense  grid:    21187 G-vectors     FFT dimensions: (  40,  40,  40)

     Smooth grid:     7583 G-vectors     FFT dimensions: (  27,  27,  27)

     Estimated max dynamical RAM per process >       2.08MB

     Estimated total allocated dynamical RAM >       8.30MB

     The potential is recalculated from file :
     ./_ph0/na.fcc.save/charge-density.dat

     Starting wfc are    5 atomic +    4 random wfc

     Band Structure Calculation
     Davidson diagonalization with overlap

     ethr =  1.11E-10,  avg # of iterations = 18.9

     total cpu time spent up to now is     1097.8 secs

     End of band structure calculation

     Number of k-points >= 100: set verbosity='high' to print the bands.

     the Fermi energy is     2.1831 ev

     Writing output data file na.fcc.save

                                                                                

     bravais-lattice index     =            2
     lattice parameter (alat)  =       9.5776  a.u.
     unit-cell volume          =     219.6411 (a.u.)^3
     number of atoms/cell      =            1
     number of atomic types    =            1
     kinetic-energy cut-off    =      40.0000  Ry
     charge density cut-off    =     320.0000  Ry
     convergence threshold     =      1.0E-12
     beta                      =       0.7000
     number of iterations used =            4
     Exchange-correlation      = SLA  PW   PBE  PBE ( 1  4  3  4 0 0)


     celldm(1)=    9.57763  celldm(2)=    0.00000  celldm(3)=    0.00000
     celldm(4)=    0.00000  celldm(5)=    0.00000  celldm(6)=    0.00000

     crystal axes: (cart. coord. in units of alat)
               a(1) = ( -0.5000  0.0000  0.5000 )  
               a(2) = (  0.0000  0.5000  0.5000 )  
               a(3) = ( -0.5000  0.5000  0.0000 )  

     reciprocal axes: (cart. coord. in units 2 pi/alat)
               b(1) = ( -1.0000 -1.0000  1.0000 )  
               b(2) = (  1.0000  1.0000  1.0000 )  
               b(3) = ( -1.0000  1.0000 -1.0000 )  


     Atoms inside the unit cell: 

     Cartesian axes

     site n.  atom      mass           positions (alat units)
        1     Na  22.9900   tau(    1) = (    0.00000    0.00000    0.00000  )

     Computing dynamical matrix for 
                    q = (  -0.2500000   0.5000000  -0.2500000 )

      2 Sym.Ops. (no q -> -q+G )


     G cutoff =  743.5427  (   5296 G-vectors)     FFT grid: ( 40, 40, 40)
     G cutoff =  371.7713  (   1896 G-vectors)  smooth grid: ( 27, 27, 27)

     number of k points= 11368  Marzari-Vanderbilt smearing, width (Ry)=  0.0200

     PseudoPot. # 1 for Na read from file:
     /home/s1333534/quantum_espresso/qe-6.1/pseudo/Na_pbe_v1.uspp.F.UPF
     MD5 check sum: 76a99c7e9422403d3e93cbc85ab7bccb
     Pseudo is Ultrasoft, Zval =  9.0
     Generated by new atomic code, or converted to UPF format
     Using radial grid of  819 points,  5 beta functions with: 
                l(1) =   0
                l(2) =   0
                l(3) =   1
                l(4) =   1
                l(5) =   2
     Q(r) pseudized with  8 coefficients,  rinner =    1.250   1.250   1.250
                                                       1.250   1.250

     Mode symmetry, C_s (m)     point group:


     Atomic displacements:
     There are   3 irreducible representations

     Representation     1      1 modes -A'  To be done

     Representation     2      1 modes -A'  To be done

     Representation     3      1 modes -A''  To be done



     Alpha used in Ewald sum =   2.8000
     PHONON       :     1h 4m CPU        1h 9m WALL



     Representation #  1 mode #   1

     Self-consistent Calculation

      iter #   1 total cpu time :  4217.4 secs   av.it.:   5.8
      thresh= 1.000E-02 alpha_mix =  0.700 |ddv_scf|^2 =  4.214E-04

      iter #   2 total cpu time :  4271.9 secs   av.it.:   6.9
      thresh= 2.053E-03 alpha_mix =  0.700 |ddv_scf|^2 =  1.945E-03

      iter #   3 total cpu time :  4319.7 secs   av.it.:   5.8
      thresh= 4.410E-03 alpha_mix =  0.700 |ddv_scf|^2 =  4.341E-07

      iter #   4 total cpu time :  4379.2 secs   av.it.:   7.9
      thresh= 6.588E-05 alpha_mix =  0.700 |ddv_scf|^2 =  6.799E-09

      iter #   5 total cpu time :  4440.7 secs   av.it.:   8.3
      thresh= 8.246E-06 alpha_mix =  0.700 |ddv_scf|^2 =  7.281E-10

      iter #   6 total cpu time :  4501.4 secs   av.it.:   8.1
      thresh= 2.698E-06 alpha_mix =  0.700 |ddv_scf|^2 =  3.785E-11

      iter #   7 total cpu time :  4562.0 secs   av.it.:   8.0
      thresh= 6.152E-07 alpha_mix =  0.700 |ddv_scf|^2 =  7.171E-12

      iter #   8 total cpu time :  4617.7 secs   av.it.:   7.1
      thresh= 2.678E-07 alpha_mix =  0.700 |ddv_scf|^2 =  1.315E-11

      iter #   9 total cpu time :  4668.5 secs   av.it.:   6.5
      thresh= 3.627E-07 alpha_mix =  0.700 |ddv_scf|^2 =  5.699E-13

     End of self-consistent calculation

     Convergence has been achieved 


     Representation #  2 mode #   2

     Self-consistent Calculation

      iter #   1 total cpu time :  4724.4 secs   av.it.:   5.7
      thresh= 1.000E-02 alpha_mix =  0.700 |ddv_scf|^2 =  1.223E-04

      iter #   2 total cpu time :  4780.7 secs   av.it.:   7.3
      thresh= 1.106E-03 alpha_mix =  0.700 |ddv_scf|^2 =  4.957E-04

      iter #   3 total cpu time :  4828.7 secs   av.it.:   5.9
      thresh= 2.226E-03 alpha_mix =  0.700 |ddv_scf|^2 =  3.988E-07

      iter #   4 total cpu time :  4888.6 secs   av.it.:   7.8
      thresh= 6.315E-05 alpha_mix =  0.700 |ddv_scf|^2 =  9.491E-09

      iter #   5 total cpu time :  4950.1 secs   av.it.:   8.3
      thresh= 9.742E-06 alpha_mix =  0.700 |ddv_scf|^2 =  4.682E-10

      iter #   6 total cpu time :  5011.0 secs   av.it.:   8.2
      thresh= 2.164E-06 alpha_mix =  0.700 |ddv_scf|^2 =  3.893E-11

      iter #   7 total cpu time :  5071.6 secs   av.it.:   8.1
      thresh= 6.239E-07 alpha_mix =  0.700 |ddv_scf|^2 =  7.730E-13

     End of self-consistent calculation

     Convergence has been achieved 


     Representation #  3 mode #   3

     Self-consistent Calculation

      iter #   1 total cpu time :  5125.7 secs   av.it.:   5.4
      thresh= 1.000E-02 alpha_mix =  0.700 |ddv_scf|^2 =  1.558E-05

      iter #   2 total cpu time :  5184.2 secs   av.it.:   7.6
      thresh= 3.947E-04 alpha_mix =  0.700 |ddv_scf|^2 =  2.501E-07

      iter #   3 total cpu time :  5243.9 secs   av.it.:   7.9
      thresh= 5.001E-05 alpha_mix =  0.700 |ddv_scf|^2 =  1.000E-08

      iter #   4 total cpu time :  5301.0 secs   av.it.:   7.5
      thresh= 1.000E-05 alpha_mix =  0.700 |ddv_scf|^2 =  3.367E-11

      iter #   5 total cpu time :  5360.4 secs   av.it.:   7.8
      thresh= 5.802E-07 alpha_mix =  0.700 |ddv_scf|^2 =  3.652E-14

     End of self-consistent calculation

     Convergence has been achieved 

     Number of q in the star =   24
     List of q in the star:
          1  -0.250000000   0.500000000  -0.250000000
          2  -0.250000000   0.500000000   0.250000000
          3   0.250000000   0.500000000  -0.250000000
          4   0.250000000   0.500000000   0.250000000
          5   0.250000000  -0.500000000   0.250000000
          6   0.500000000  -0.250000000   0.250000000
          7   0.250000000  -0.250000000   0.500000000
          8  -0.250000000  -0.500000000  -0.250000000
          9   0.250000000  -0.500000000  -0.250000000
         10  -0.250000000  -0.500000000   0.250000000
         11   0.250000000  -0.250000000  -0.500000000
         12   0.500000000  -0.250000000  -0.250000000
         13  -0.500000000  -0.250000000   0.250000000
         14   0.500000000   0.250000000   0.250000000
         15  -0.250000000  -0.250000000   0.500000000
         16   0.250000000   0.250000000   0.500000000
         17  -0.500000000   0.250000000  -0.250000000
         18  -0.250000000   0.250000000  -0.500000000
         19  -0.500000000  -0.250000000  -0.250000000
         20   0.250000000   0.250000000  -0.500000000
         21   0.500000000   0.250000000  -0.250000000
         22  -0.250000000  -0.250000000  -0.500000000
         23  -0.500000000   0.250000000   0.250000000
         24  -0.250000000   0.250000000   0.500000000

     Diagonalizing the dynamical matrix

     q = (   -0.250000000   0.500000000  -0.250000000 ) 

 **************************************************************************
     freq (    1) =       2.150859 [THz] =      71.744938 [cm-1]
     freq (    2) =       2.464777 [THz] =      82.216125 [cm-1]
     freq (    3) =       4.480290 [THz] =     149.446386 [cm-1]
 **************************************************************************

     Mode symmetry, C_s (m)     point group:

     freq (  1 -  1) =         71.7  [cm-1]   --> A''                
     freq (  2 -  2) =         82.2  [cm-1]   --> A'                 
     freq (  3 -  3) =        149.4  [cm-1]   --> A'                 

     Calculation of q =    0.6250000  -0.3750000   0.6250000

   Info: using nr1, nr2, nr3 values from input

   Info: using nr1, nr2, nr3 values from input

     Parallelization info
     --------------------
     sticks:   dense  smooth     PW     G-vecs:    dense   smooth      PW
     Min         253     127     49                 5296     1895     457
     Max         254     130     50                 5298     1896     460
     Sum        1015     511    199                21187     7583    1837



     bravais-lattice index     =            2
     lattice parameter (alat)  =       9.5776  a.u.
     unit-cell volume          =     219.6411 (a.u.)^3
     number of atoms/cell      =            1
     number of atomic types    =            1
     number of electrons       =         9.00
     number of Kohn-Sham states=            9
     kinetic-energy cutoff     =      40.0000  Ry
     charge density cutoff     =     320.0000  Ry
     Exchange-correlation      = SLA  PW   PBE  PBE ( 1  4  3  4 0 0)

     celldm(1)=   9.577625  celldm(2)=   0.000000  celldm(3)=   0.000000
     celldm(4)=   0.000000  celldm(5)=   0.000000  celldm(6)=   0.000000

     crystal axes: (cart. coord. in units of alat)
               a(1) = (  -0.500000   0.000000   0.500000 )  
[...]

     PseudoPot. # 1 for Na read from file:
     /home/s1333534/quantum_espresso/qe-6.1/pseudo/Na_pbe_v1.uspp.F.UPF
     MD5 check sum: 76a99c7e9422403d3e93cbc85ab7bccb
     Pseudo is Ultrasoft, Zval =  9.0
     Generated by new atomic code, or converted to UPF format
     Using radial grid of  819 points,  5 beta functions with: 
                l(1) =   0
                l(2) =   0
                l(3) =   1
                l(4) =   1
                l(5) =   2
     Q(r) pseudized with  8 coefficients,  rinner =    1.250   1.250   1.250
                                                       1.250   1.250

     Mode symmetry, C_2v (mm2)  point group:


     Atomic displacements:
     There are   3 irreducible representations

     Representation     1      1 modes -A_1  D_1  S_1  To be done

     Representation     2      1 modes -B_1  D_3  S_3  To be done

     Representation     3      1 modes -B_2  D_4  S_4  To be done



     Alpha used in Ewald sum =   2.8000
     PHONON       :     7h58m CPU        8h38m WALL



     Representation #  1 mode #   1

     Self-consistent Calculation

      iter #   1 total cpu time : 31116.1 secs   av.it.:   5.6
      thresh= 1.000E-02 alpha_mix =  0.700 |ddv_scf|^2 =  2.214E-05

      iter #   2 total cpu time : 31145.4 secs   av.it.:   7.8
      thresh= 4.706E-04 alpha_mix =  0.700 |ddv_scf|^2 =  6.346E-07

      iter #   3 total cpu time : 31174.3 secs   av.it.:   7.7
      thresh= 7.966E-05 alpha_mix =  0.700 |ddv_scf|^2 =  2.989E-08

      iter #   4 total cpu time : 31203.0 secs   av.it.:   7.9
      thresh= 1.729E-05 alpha_mix =  0.700 |ddv_scf|^2 =  1.934E-09

      iter #   5 total cpu time : 31232.6 secs   av.it.:   7.9
      thresh= 4.398E-06 alpha_mix =  0.700 |ddv_scf|^2 =  6.434E-11

      iter #   6 total cpu time : 31261.8 secs   av.it.:   8.1
      thresh= 8.021E-07 alpha_mix =  0.700 |ddv_scf|^2 =  5.903E-12

      iter #   7 total cpu time : 31291.4 secs   av.it.:   8.1
      thresh= 2.430E-07 alpha_mix =  0.700 |ddv_scf|^2 =  1.035E-13

     End of self-consistent calculation

     Convergence has been achieved 


     Representation #  2 mode #   2

     Self-consistent Calculation

      iter #   1 total cpu time : 31317.4 secs   av.it.:   5.6
      thresh= 1.000E-02 alpha_mix =  0.700 |ddv_scf|^2 =  2.299E-05

      iter #   2 total cpu time : 31346.1 secs   av.it.:   7.7
      thresh= 4.795E-04 alpha_mix =  0.700 |ddv_scf|^2 =  3.416E-07

      iter #   3 total cpu time : 31375.2 secs   av.it.:   7.8
      thresh= 5.845E-05 alpha_mix =  0.700 |ddv_scf|^2 =  2.367E-08

      iter #   4 total cpu time : 31403.6 secs   av.it.:   7.8
      thresh= 1.539E-05 alpha_mix =  0.700 |ddv_scf|^2 =  2.919E-10

      iter #   5 total cpu time : 31429.8 secs   av.it.:   7.0
      thresh= 1.709E-06 alpha_mix =  0.700 |ddv_scf|^2 =  2.553E-13

     End of self-consistent calculation

     Convergence has been achieved 


     Representation #  3 mode #   3

     Self-consistent Calculation

      iter #   1 total cpu time : 31456.0 secs   av.it.:   5.6
      thresh= 1.000E-02 alpha_mix =  0.700 |ddv_scf|^2 =  5.850E-05

      iter #   2 total cpu time : 31483.5 secs   av.it.:   7.3
      thresh= 7.648E-04 alpha_mix =  0.700 |ddv_scf|^2 =  7.651E-06

      iter #   3 total cpu time : 31510.4 secs   av.it.:   7.2
      thresh= 2.766E-04 alpha_mix =  0.700 |ddv_scf|^2 =  5.992E-08

      iter #   4 total cpu time : 31539.0 secs   av.it.:   7.9
      thresh= 2.448E-05 alpha_mix =  0.700 |ddv_scf|^2 =  2.277E-10

      iter #   5 total cpu time : 31566.5 secs   av.it.:   6.9
      thresh= 1.509E-06 alpha_mix =  0.700 |ddv_scf|^2 =  3.929E-13

     End of self-consistent calculation

     Convergence has been achieved 

     Number of q in the star =   12
     List of q in the star:
          1  -0.250000000  -1.000000000   0.000000000
          2   0.000000000  -1.000000000   0.250000000
          3   0.000000000  -1.000000000  -0.250000000
          4   0.250000000  -1.000000000   0.000000000
          5  -1.000000000   0.000000000  -0.250000000
          6   1.000000000   0.000000000   0.250000000
          7  -1.000000000  -0.250000000   0.000000000
          8   0.000000000  -0.250000000  -1.000000000
          9   0.000000000   0.250000000  -1.000000000
         10   1.000000000   0.250000000   0.000000000
         11  -0.250000000   0.000000000   1.000000000
         12   0.250000000   0.000000000   1.000000000

     Diagonalizing the dynamical matrix

     q = (   -0.250000000  -1.000000000   0.000000000 ) 

 **************************************************************************
     freq (    1) =       3.314082 [THz] =     110.545873 [cm-1]
     freq (    2) =       3.850297 [THz] =     128.432099 [cm-1]
     freq (    3) =       5.052877 [THz] =     168.545827 [cm-1]
 **************************************************************************

     Mode symmetry, C_2v (mm2)  point group:

     freq (  1 -  1) =        110.5  [cm-1]   --> A_1  D_1  S_1      
     freq (  2 -  2) =        128.4  [cm-1]   --> B_1  D_3  S_3      
     freq (  3 -  3) =        168.5  [cm-1]   --> B_2  D_4  S_4      

     Calculation of q =   -0.5000000  -1.0000000   0.0000000

   Info: using nr1, nr2, nr3 values from input

   Info: using nr1, nr2, nr3 values from input

     Parallelization info
     --------------------
     sticks:   dense  smooth     PW     G-vecs:    dense   smooth      PW
     Min         253     127     49                 5296     1895     471
     Max         254     130     50                 5298     1896     474
     Sum        1015     511    199                21187     7583    1893



     bravais-lattice index     =            2
     lattice parameter (alat)  =       9.5776  a.u.
     unit-cell volume          =     219.6411 (a.u.)^3
     number of atoms/cell      =            1
     number of atomic types    =            1
     number of electrons       =         9.00
     number of Kohn-Sham states=            9
     kinetic-energy cutoff     =      40.0000  Ry
     charge density cutoff     =     320.0000  Ry
     Exchange-correlation      = SLA  PW   PBE  PBE ( 1  4  3  4 0 0)

     celldm(1)=   9.577625  celldm(2)=   0.000000  celldm(3)=   0.000000
     celldm(4)=   0.000000  celldm(5)=   0.000000  celldm(6)=   0.000000

     crystal axes: (cart. coord. in units of alat)
               a(1) = (  -0.500000   0.000000   0.500000 )  
               a(2) = (   0.000000   0.500000   0.500000 )  
               a(3) = (  -0.500000   0.500000   0.000000 )  

     reciprocal axes: (cart. coord. in units 2 pi/alat)
               b(1) = ( -1.000000 -1.000000  1.000000 )  
               b(2) = (  1.000000  1.000000  1.000000 )  
               b(3) = ( -1.000000  1.000000 -1.000000 )  


     PseudoPot. # 1 for Na read from file:
     /home/s1333534/quantum_espresso/qe-6.1/pseudo/Na_pbe_v1.uspp.F.UPF
     MD5 check sum: 76a99c7e9422403d3e93cbc85ab7bccb
     Pseudo is Ultrasoft, Zval =  9.0
     Generated by new atomic code, or converted to UPF format
     Using radial grid of  819 points,  5 beta functions with: 
                l(1) =   0
                l(2) =   0
                l(3) =   1
                l(4) =   1
                l(5) =   2
     Q(r) pseudized with  8 coefficients,  rinner =    1.250   1.250   1.250
                                                       1.250   1.250

     atomic species   valence    mass     pseudopotential
        Na             9.00    22.99000     Na( 1.00)

     48 Sym. Ops., with inversion, found



   Cartesian axes

     site n.     atom                  positions (alat units)
         1           Na  tau(   1) = (   0.0000000   0.0000000   0.0000000  )

     number of k points=  2744  Marzari-Vanderbilt smearing, width (Ry)=  0.0200

     Number of k-points >= 100: set verbosity='high' to print them.

     Dense  grid:    21187 G-vectors     FFT dimensions: (  40,  40,  40)

     Smooth grid:     7583 G-vectors     FFT dimensions: (  27,  27,  27)

     Estimated max dynamical RAM per process >       2.08MB

     Estimated total allocated dynamical RAM >       8.30MB

     The potential is recalculated from file :
     ./_ph0/na.fcc.save/charge-density.dat

     Starting wfc are    5 atomic +    4 random wfc

     Band Structure Calculation
     Davidson diagonalization with overlap

     ethr =  1.11E-10,  avg # of iterations = 18.8

     total cpu time spent up to now is     6670.1 secs

     End of band structure calculation

     Number of k-points >= 100: set verbosity='high' to print the bands.

     the Fermi energy is     2.1831 ev

     Writing output data file na.fcc.save

                                                                                

     bravais-lattice index     =            2
     lattice parameter (alat)  =       9.5776  a.u.
     unit-cell volume          =     219.6411 (a.u.)^3
     number of atoms/cell      =            1
     number of atomic types    =            1
     kinetic-energy cut-off    =      40.0000  Ry
     charge density cut-off    =     320.0000  Ry
     convergence threshold     =      1.0E-12
     beta                      =       0.7000
     number of iterations used =            4
     Exchange-correlation      = SLA  PW   PBE  PBE ( 1  4  3  4 0 0)


     celldm(1)=    9.57763  celldm(2)=    0.00000  celldm(3)=    0.00000
     celldm(4)=    0.00000  celldm(5)=    0.00000  celldm(6)=    0.00000

     crystal axes: (cart. coord. in units of alat)
               a(1) = ( -0.5000  0.0000  0.5000 )  
               a(2) = (  0.0000  0.5000  0.5000 )  
               a(3) = ( -0.5000  0.5000  0.0000 )  

     reciprocal axes: (cart. coord. in units 2 pi/alat)
               b(1) = ( -1.0000 -1.0000  1.0000 )  
               b(2) = (  1.0000  1.0000  1.0000 )  
               b(3) = ( -1.0000  1.0000 -1.0000 )  


     Atoms inside the unit cell: 

     Cartesian axes

     site n.  atom      mass           positions (alat units)
        1     Na  22.9900   tau(    1) = (    0.00000    0.00000    0.00000  )

     Computing dynamical matrix for 
                    q = (  -0.5000000  -1.0000000   0.0000000 )

      8 Sym.Ops. (no q -> -q+G )


     G cutoff =  743.5427  (   5296 G-vectors)     FFT grid: ( 40, 40, 40)
     G cutoff =  371.7713  (   1896 G-vectors)  smooth grid: ( 27, 27, 27)

     number of k points=  2744  Marzari-Vanderbilt smearing, width (Ry)=  0.0200

     PseudoPot. # 1 for Na read from file:
     /home/s1333534/quantum_espresso/qe-6.1/pseudo/Na_pbe_v1.uspp.F.UPF
     MD5 check sum: 76a99c7e9422403d3e93cbc85ab7bccb
     Pseudo is Ultrasoft, Zval =  9.0
     Generated by new atomic code, or converted to UPF format
     Using radial grid of  819 points,  5 beta functions with: 
                l(1) =   0
                l(2) =   0
                l(3) =   1
                l(4) =   1
                l(5) =   2
     Q(r) pseudized with  8 coefficients,  rinner =    1.250   1.250   1.250
                                                       1.250   1.250

     Mode symmetry, D_2d (-42m) point group:


     Atomic displacements:
     There are   2 irreducible representations

     Representation     1      1 modes -B_2  X_3  W_2  To be done

     Representation     2      2 modes -E    X_5  W_3  To be done



     Alpha used in Ewald sum =   2.8000
     PHONON       :     8h 6m CPU        8h47m WALL



     Representation #  1 mode #   1

     Self-consistent Calculation

      iter #   1 total cpu time : 31661.5 secs   av.it.:   5.6
      thresh= 1.000E-02 alpha_mix =  0.700 |ddv_scf|^2 =  2.518E-05

      iter #   2 total cpu time : 31675.6 secs   av.it.:   7.7
      thresh= 5.018E-04 alpha_mix =  0.700 |ddv_scf|^2 =  8.406E-07

      iter #   3 total cpu time : 31689.8 secs   av.it.:   7.6
      thresh= 9.169E-05 alpha_mix =  0.700 |ddv_scf|^2 =  2.138E-08

      iter #   4 total cpu time : 31704.3 secs   av.it.:   8.0
      thresh= 1.462E-05 alpha_mix =  0.700 |ddv_scf|^2 =  5.043E-10

      iter #   5 total cpu time : 31718.3 secs   av.it.:   7.4
      thresh= 2.246E-06 alpha_mix =  0.700 |ddv_scf|^2 =  7.437E-13

     End of self-consistent calculation

     Convergence has been achieved 


     Representation #  2 modes #   2  3

     Self-consistent Calculation

      iter #   1 total cpu time : 31743.9 secs   av.it.:   5.7
      thresh= 1.000E-02 alpha_mix =  0.700 |ddv_scf|^2 =  9.167E-06

      iter #   2 total cpu time : 31774.6 secs   av.it.:   8.2
      thresh= 3.028E-04 alpha_mix =  0.700 |ddv_scf|^2 =  4.525E-07

      iter #   3 total cpu time : 31803.4 secs   av.it.:   7.9
      thresh= 6.727E-05 alpha_mix =  0.700 |ddv_scf|^2 =  9.935E-09

      iter #   4 total cpu time : 31833.7 secs   av.it.:   8.5
      thresh= 9.967E-06 alpha_mix =  0.700 |ddv_scf|^2 =  6.593E-11

      iter #   5 total cpu time : 31861.4 secs   av.it.:   7.6
      thresh= 8.120E-07 alpha_mix =  0.700 |ddv_scf|^2 =  5.018E-14

     End of self-consistent calculation

     Convergence has been achieved 

     Number of q in the star =    6
     List of q in the star:
          1  -0.500000000  -1.000000000   0.000000000
          2   0.000000000   1.000000000   0.500000000
          3   0.500000000  -1.000000000   0.000000000
          4   0.000000000   1.000000000  -0.500000000
          5  -1.000000000  -0.500000000   0.000000000
          6   0.000000000  -0.500000000  -1.000000000

     Diagonalizing the dynamical matrix

     q = (   -0.500000000  -1.000000000   0.000000000 ) 

 **************************************************************************
     freq (    1) =       3.795940 [THz] =     126.618915 [cm-1]
     freq (    2) =       4.332672 [THz] =     144.522398 [cm-1]
     freq (    3) =       4.332672 [THz] =     144.522398 [cm-1]
 **************************************************************************

     Mode symmetry, D_2d (-42m) point group:

     freq (  1 -  1) =        126.6  [cm-1]   --> B_2  X_3  W_2      
     freq (  2 -  3) =        144.5  [cm-1]   --> E    X_5  W_3      

     init_run     :      9.01s CPU      9.09s WALL (      28 calls)
     electrons    :   6137.09s CPU   6493.15s WALL (      28 calls)

     Called by init_run:
     wfcinit      :      0.00s CPU      0.00s WALL (      28 calls)
     potinit      :      0.40s CPU      0.41s WALL (      28 calls)

     Called by electrons:
     c_bands      :   6135.95s CPU   6492.00s WALL (      28 calls)
     v_of_rho     :      0.32s CPU      0.33s WALL (      29 calls)
     newd         :      0.36s CPU      0.39s WALL (      29 calls)

     Called by c_bands:
     init_us_2    :    349.43s CPU    336.81s WALL ( 3419269 calls)
     cegterg      :   5630.77s CPU   5944.97s WALL (  295408 calls)

     Called by sum_band:

     Called by *egterg:
     h_psi        :  20476.81s CPU  21809.60s WALL (28708514 calls)
     s_psi        :    466.03s CPU    562.97s WALL (54786767 calls)
     g_psi        :     29.17s CPU     41.69s WALL ( 4517782 calls)
     cdiaghg      :   1016.12s CPU    964.20s WALL ( 4757686 calls)

     Called by h_psi:
     h_psi:pot    :  20387.54s CPU  21698.63s WALL (28708514 calls)
     h_psi:calbec :    388.69s CPU    459.64s WALL (28708514 calls)
     vloc_psi     :  19603.29s CPU  20817.92s WALL (28708514 calls)
     add_vuspsi   :    329.87s CPU    337.14s WALL (28708514 calls)

     General routines
     calbec       :    840.79s CPU    897.21s WALL (60695488 calls)
     fft          :      3.26s CPU      3.46s WALL (    9052 calls)
     ffts         :     36.07s CPU     37.87s WALL (  363590 calls)
     fftw         :  22141.33s CPU  22819.90s WALL (******** calls)
     interpolate  :      0.58s CPU      0.65s WALL (    1255 calls)
     davcio       :    157.82s CPU    565.62s WALL (12937927 calls)

     Parallel routines
     fft_scatter  :   3608.96s CPU   4372.29s WALL (******** calls)

     PHONON       :     8h10m CPU        8h51m WALL

     INITIALIZATION: 
     phq_setup    :      1.07s CPU      1.07s WALL (      29 calls)
     phq_init     :    452.31s CPU    476.89s WALL (      29 calls)

     phq_init     :    452.31s CPU    476.89s WALL (      29 calls)
     init_vloc    :      0.09s CPU      0.09s WALL (      29 calls)
     init_us_1    :      3.39s CPU      3.40s WALL (      29 calls)
     newd         :      0.36s CPU      0.39s WALL (      29 calls)
     dvanqq       :      1.55s CPU      1.57s WALL (      29 calls)
     drho         :    376.22s CPU    396.68s WALL (      29 calls)

     DYNAMICAL MATRIX:
     dynmat0      :     48.07s CPU     49.83s WALL (      29 calls)
     phqscf       :  22631.36s CPU  24699.52s WALL (      29 calls)
     dynmatrix    :      0.03s CPU      0.04s WALL (      29 calls)

     phqscf       :  22631.36s CPU  24699.52s WALL (      29 calls)
     solve_linter :  22549.70s CPU  24612.78s WALL (      76 calls)
     drhodv       :     81.56s CPU     85.47s WALL (      76 calls)

     dynmat0      :     48.07s CPU     49.83s WALL (      29 calls)
     dynmat_us    :     48.03s CPU     49.78s WALL (      29 calls)
     d2ionq       :      0.03s CPU      0.03s WALL (      29 calls)

     dynmat_us    :     48.03s CPU     49.78s WALL (      29 calls)
     addusdynmat  :      0.00s CPU      0.00s WALL (      29 calls)

     phqscf       :  22631.36s CPU  24699.52s WALL (      29 calls)
     solve_linter :  22549.70s CPU  24612.78s WALL (      76 calls)

     solve_linter :  22549.70s CPU  24612.78s WALL (      76 calls)
     dvqpsi_us    :    666.67s CPU    703.80s WALL (  360696 calls)
     ortho        :    156.88s CPU    184.90s WALL ( 2422833 calls)
     cgsolve      :  17590.30s CPU  18842.87s WALL ( 2422833 calls)
     incdrhoscf   :   1977.38s CPU   2158.76s WALL ( 2422833 calls)
     addusddens   :     11.70s CPU     11.77s WALL (     576 calls)
     vpsifft      :   1614.56s CPU   1758.70s WALL ( 2062137 calls)
     dv_of_drho   :      3.88s CPU      4.02s WALL (     555 calls)
     mix_pot      :      0.50s CPU      1.01s WALL (     500 calls)
     ef_shift     :      0.02s CPU      0.03s WALL (       6 calls)
     localdos     :      0.19s CPU      0.21s WALL (       1 calls)
     psymdvscf    :      7.03s CPU      7.16s WALL (     458 calls)
     newdq        :     10.54s CPU     10.58s WALL (     500 calls)
     adddvscf     :     60.20s CPU     62.37s WALL ( 2062137 calls)
     drhodvus     :      0.02s CPU      0.03s WALL (      76 calls)

     dvqpsi_us    :    666.67s CPU    703.80s WALL (  360696 calls)
     dvqpsi_us_on :     94.64s CPU     88.07s WALL (  360696 calls)

     cgsolve      :  17590.30s CPU  18842.87s WALL ( 2422833 calls)
     ch_psi       :  17298.55s CPU  18529.60s WALL (23655420 calls)

     ch_psi       :  17298.55s CPU  18529.60s WALL (23655420 calls)
     h_psi        :  20476.81s CPU  21809.60s WALL (28708514 calls)
     last         :    927.37s CPU   1045.05s WALL (23655420 calls)

     h_psi        :  20476.81s CPU  21809.60s WALL (28708514 calls)
     add_vuspsi   :    329.87s CPU    337.14s WALL (28708514 calls)

     incdrhoscf   :   1977.38s CPU   2158.76s WALL ( 2422833 calls)
     addusdbec    :     69.92s CPU     80.64s WALL ( 2783529 calls)

     drhodvus     :      0.02s CPU      0.03s WALL (      76 calls)

      General routines
     calbec       :    840.79s CPU    897.21s WALL (60695488 calls)
     fft          :      3.26s CPU      3.46s WALL (    9052 calls)
     ffts         :     36.07s CPU     37.87s WALL (  363590 calls)
     fftw         :  22141.33s CPU  22819.90s WALL (******** calls)
     davcio       :    157.82s CPU    565.62s WALL (12937927 calls)
     write_rec    :      0.43s CPU      1.79s WALL (     576 calls)


     PHONON       :     8h10m CPU        8h51m WALL


   This run was terminated on:  21:12: 1  21Dec2017            

=------------------------------------------------------------------------------=
   JOB DONE.
=------------------------------------------------------------------------------=
