
     Program PWSCF v.5.4.0 starts on 26Mar2018 at 16:51:27 

     This program is part of the open-source Quantum ESPRESSO suite
     for quantum simulation of materials; please cite
         "P. Giannozzi et al., J. Phys.:Condens. Matter 21 395502 (2009);
          URL http://www.quantum-espresso.org", 
     in publications or presentations arising from this work. More details at
     http://www.quantum-espresso.org/quote

     Parallel version (MPI & OpenMP), running on     192 processor cores
     Number of MPI processes:               192
     Threads/MPI process:                     1
     K-points division:     npool     =      24
     R & G space division:  proc/nbgrp/npool/nimage =       8
     Waiting for input...
     Reading input from standard input

     Current dimensions of program PWSCF are:
     Max number of different atomic species (ntypx) = 10
     Max number of k-points (npk) =  40000
     Max angular momentum in pseudopotentials (lmaxx) =  3

     Subspace diagonalization in iterative solution of the eigenvalue problem:
     one sub-group per band group will be used
     scalapack distributed-memory algorithm (size of sub-group:  2*  2 procs)

 
     Parallelization info
     --------------------
     sticks:   dense  smooth     PW     G-vecs:    dense   smooth      PW
     Min         133      68     20                 5835     2056     346
     Max         134      69     21                 5844     2068     351
     Sum        1069     547    163                46721    16503    2779
 


     bravais-lattice index     =            4
     lattice parameter (alat)  =       6.9939  a.u.
     unit-cell volume          =     483.0474 (a.u.)^3
     number of atoms/cell      =            2
     number of atomic types    =            1
     number of electrons       =        18.00
     number of Kohn-Sham states=           13
     kinetic-energy cutoff     =      40.0000  Ry
     charge density cutoff     =     320.0000  Ry
     convergence threshold     =      1.0E-07
     mixing beta               =       0.7000
     number of iterations used =            8  plain     mixing
     Exchange-correlation      = SLA  PW   PBE  PBE ( 1  4  3  4 0 0)
     nstep                     =           50


     celldm(1)=   6.993850  celldm(2)=   0.000000  celldm(3)=   1.630460
     celldm(4)=   0.000000  celldm(5)=   0.000000  celldm(6)=   0.000000

     crystal axes: (cart. coord. in units of alat)
               a(1) = (   1.000000   0.000000   0.000000 )  
               a(2) = (  -0.500000   0.866025   0.000000 )  
               a(3) = (   0.000000   0.000000   1.630460 )  

     reciprocal axes: (cart. coord. in units 2 pi/alat)
               b(1) = (  1.000000  0.577350  0.000000 )  
               b(2) = (  0.000000  1.154701  0.000000 )  
               b(3) = (  0.000000  0.000000  0.613324 )  


     PseudoPot. # 1 for Na read from file:
     ./Na_pbe_v1.uspp.F.UPF
     MD5 check sum: 76a99c7e9422403d3e93cbc85ab7bccb
     Pseudo is Ultrasoft, Zval =  9.0
     Generated by new atomic code, or converted to UPF format
     Using radial grid of  819 points,  5 beta functions with: 
                l(1) =   0
                l(2) =   0
                l(3) =   1
                l(4) =   1
                l(5) =   2
     Q(r) pseudized with  8 coefficients,  rinner =    1.250   1.250   1.250
                                                       1.250   1.250

     atomic species   valence    mass     pseudopotential
        Na             9.00    22.99000     Na( 1.00)

     12 Sym. Ops. (no inversion) found
          (note: 12 additional sym.ops. were found but ignored
           their fractional translations are incommensurate with FFT grid)


   Cartesian axes

     site n.     atom                  positions (alat units)
         1           Na  tau(   1) = (   0.0000000   0.0000000   0.0000000  )
         2           Na  tau(   2) = (   0.4999995   0.2886748   0.8152300  )

     number of k points=   366  Marzari-Vanderbilt smearing, width (Ry)=  0.0200

     Number of k-points >= 100: set verbosity='high' to print them.

     Dense  grid:    46721 G-vectors     FFT dimensions: (  40,  40,  72)

     Smooth grid:    16503 G-vectors     FFT dimensions: (  30,  30,  45)

     Largest allocated arrays     est. size (Mb)     dimensions
        Kohn-Sham Wavefunctions         0.05 Mb     (     276,   13)
        NL pseudopotentials             0.11 Mb     (     276,   26)
        Each V/rho on FFT grid          0.22 Mb     (   14400)
        Each G-vector array             0.04 Mb     (    5844)
        G-vector shells                 0.04 Mb     (    5844)
     Largest temporary arrays     est. size (Mb)     dimensions
        Auxiliary wavefunctions         0.22 Mb     (     276,   52)
        Each subspace H/S matrix        0.01 Mb     (      26,   26)
        Each <psi_i|beta_j> matrix      0.01 Mb     (      26,   13)
        Arrays for rho mixing           1.76 Mb     (   14400,    8)

     Initial potential from superposition of free atoms

     starting charge   17.98742, renormalised to   18.00000
     Starting wfc are   10 randomized atomic wfcs +    3 random wfc

     total cpu time spent up to now is        0.4 secs

     per-process dynamical memory:    12.2 Mb

     Self-consistent Calculation

     iteration #  1     ecut=    40.00 Ry     beta=0.70
     Davidson diagonalization with overlap
     ethr =  1.00E-02,  avg # of iterations =  5.8

     Threshold (ethr) on eigenvalues was too large:
     Diagonalizing with lowered threshold

     Davidson diagonalization with overlap
     ethr =  9.43E-06,  avg # of iterations =  6.8

     total cpu time spent up to now is        1.3 secs

     total energy              =    -190.21279650 Ry
     Harris-Foulkes estimate   =    -190.21322628 Ry
     estimated scf accuracy    <       0.00175415 Ry

     iteration #  2     ecut=    40.00 Ry     beta=0.70
     Davidson diagonalization with overlap
     ethr =  9.75E-06,  avg # of iterations =  2.0

     total cpu time spent up to now is        1.6 secs

     total energy              =    -190.21299067 Ry
     Harris-Foulkes estimate   =    -190.21302957 Ry
     estimated scf accuracy    <       0.00018752 Ry

     iteration #  3     ecut=    40.00 Ry     beta=0.70
     Davidson diagonalization with overlap
     ethr =  1.04E-06,  avg # of iterations =  2.0

     total cpu time spent up to now is        1.8 secs

     total energy              =    -190.21300907 Ry
     Harris-Foulkes estimate   =    -190.21301156 Ry
     estimated scf accuracy    <       0.00001179 Ry

     iteration #  4     ecut=    40.00 Ry     beta=0.70
     Davidson diagonalization with overlap
     ethr =  6.55E-08,  avg # of iterations =  2.0

     total cpu time spent up to now is        2.0 secs

     End of self-consistent calculation

     Number of k-points >= 100: set verbosity='high' to print the bands.

     the Fermi energy is     1.7531 ev

!    total energy              =    -190.21301033 Ry
     Harris-Foulkes estimate   =    -190.21301022 Ry
     estimated scf accuracy    <       0.00000002 Ry

     The total energy is the sum of the following terms:

     one-electron contribution =    -174.76112389 Ry
     hartree contribution      =      88.22503611 Ry
     xc contribution           =     -28.54616021 Ry
     ewald contribution        =     -75.13063452 Ry
     smearing contrib. (-TS)   =      -0.00012781 Ry

     convergence has been achieved in   4 iterations

     Forces acting on atoms (Ry/au):

     atom    1 type  1   force =     0.00000000    0.00000000    0.00000000
     atom    2 type  1   force =     0.00000000    0.00000000    0.00000000

     Total force =     0.000000     Total SCF correction =     0.000001


     entering subroutine stress ...

          total   stress  (Ry/bohr**3)                   (kbar)     P=    0.14
   0.00000068   0.00000000   0.00000000          0.10      0.00      0.00
   0.00000000   0.00000068   0.00000000          0.00      0.10      0.00
  -0.00000000   0.00000000   0.00000160         -0.00      0.00      0.24


     BFGS Geometry Optimization

     number of scf cycles    =   1
     number of bfgs steps    =   0

     enthalpy new            =    -190.2113684827 Ry

     new trust radius        =       0.0002989850 bohr
     new conv_thr            =       0.0000001000 Ry

     new unit-cell volume =    482.95991 a.u.^3 (    71.56727 Ang^3 )

CELL_PARAMETERS (alat=  6.99385000)
   0.999931982   0.000000000  -0.000000000
  -0.499965991   0.865966498   0.000000000
   0.000000000   0.000000000   1.630386594

ATOMIC_POSITIONS (crystal)
Na       0.000000000   0.000000000   0.000000000
Na       0.666666000   0.333333000   0.500000000



     Writing output data file na_hcp_0.5$.save
     NEW-OLD atomic charge density approx. for the potential
     extrapolated charge   17.99674, renormalised to   18.00000

     total cpu time spent up to now is       10.9 secs

     per-process dynamical memory:    23.1 Mb

     Self-consistent Calculation

     iteration #  1     ecut=    40.00 Ry     beta=0.70
     Davidson diagonalization with overlap
     ethr =  1.00E-06,  avg # of iterations =  2.0

     Threshold (ethr) on eigenvalues was too large:
     Diagonalizing with lowered threshold

     Davidson diagonalization with overlap
     ethr =  1.09E-08,  avg # of iterations =  1.0

     total cpu time spent up to now is       11.2 secs

     total energy              =    -190.21300685 Ry
     Harris-Foulkes estimate   =    -190.23822696 Ry
     estimated scf accuracy    <       0.00000197 Ry

     iteration #  2     ecut=    40.00 Ry     beta=0.70
     Davidson diagonalization with overlap
     ethr =  1.09E-08,  avg # of iterations =  3.0

     total cpu time spent up to now is       11.5 secs

     total energy              =    -190.21301042 Ry
     Harris-Foulkes estimate   =    -190.21301186 Ry
     estimated scf accuracy    <       0.00000327 Ry

     iteration #  3     ecut=    40.00 Ry     beta=0.70
     Davidson diagonalization with overlap
     ethr =  1.09E-08,  avg # of iterations =  2.0

     total cpu time spent up to now is       11.8 secs

     total energy              =    -190.21301032 Ry
     Harris-Foulkes estimate   =    -190.21301064 Ry
     estimated scf accuracy    <       0.00000063 Ry

     iteration #  4     ecut=    40.00 Ry     beta=0.70
     Davidson diagonalization with overlap
     ethr =  3.48E-09,  avg # of iterations =  2.0

     total cpu time spent up to now is       12.0 secs

     End of self-consistent calculation

     Number of k-points >= 100: set verbosity='high' to print the bands.

     the Fermi energy is     1.7538 ev

!    total energy              =    -190.21301032 Ry
     Harris-Foulkes estimate   =    -190.21301038 Ry
     estimated scf accuracy    <       0.00000007 Ry

     The total energy is the sum of the following terms:

     one-electron contribution =    -174.75166201 Ry
     hartree contribution      =      88.21981213 Ry
     xc contribution           =     -28.54586198 Ry
     ewald contribution        =     -75.13517066 Ry
     smearing contrib. (-TS)   =      -0.00012781 Ry

     convergence has been achieved in   4 iterations

     Forces acting on atoms (Ry/au):

     atom    1 type  1   force =     0.00000000    0.00000000    0.00000000
     atom    2 type  1   force =     0.00000000    0.00000000    0.00000000

     Total force =     0.000000     Total SCF correction =     0.000000


     entering subroutine stress ...

          total   stress  (Ry/bohr**3)                   (kbar)     P=   -1.48
  -0.00001037  -0.00000000  -0.00000000         -1.52     -0.00     -0.00
  -0.00000000  -0.00001037   0.00000000         -0.00     -1.52      0.00
   0.00000000  -0.00000000  -0.00000940          0.00     -0.00     -1.38


     number of scf cycles    =   2
     number of bfgs steps    =   1

     enthalpy old            =    -190.2113684827 Ry
     enthalpy new            =    -190.2113687769 Ry

     CASE: enthalpy_new < enthalpy_old


     WARNING: bfgs curvature condition failed, Theta= 0.147
     new trust radius        =       0.0003288761 bohr
     new conv_thr            =       0.0000000010 Ry

     new unit-cell volume =    482.85458 a.u.^3 (    71.55167 Ang^3 )

CELL_PARAMETERS (alat=  6.99385000)
   0.999857162  -0.000000000   0.000000000
  -0.499928581   0.865901702  -0.000000000
  -0.000000000   0.000000000   1.630274954

ATOMIC_POSITIONS (crystal)
Na       0.000000000   0.000000000   0.000000000
Na       0.666666000   0.333333000   0.500000000



     Writing output data file na_hcp_0.5$.save
     NEW-OLD atomic charge density approx. for the potential
     extrapolated charge   17.99608, renormalised to   18.00000

     total cpu time spent up to now is       15.1 secs

     per-process dynamical memory:    23.1 Mb

     Self-consistent Calculation

     iteration #  1     ecut=    40.00 Ry     beta=0.70
     Davidson diagonalization with overlap
     ethr =  1.00E-06,  avg # of iterations =  2.0

     Threshold (ethr) on eigenvalues was too large:
     Diagonalizing with lowered threshold

     Davidson diagonalization with overlap
     ethr =  2.04E-08,  avg # of iterations =  1.0

     total cpu time spent up to now is       15.5 secs

     total energy              =    -190.21300462 Ry
     Harris-Foulkes estimate   =    -190.24338808 Ry
     estimated scf accuracy    <       0.00000367 Ry

     iteration #  2     ecut=    40.00 Ry     beta=0.70
     Davidson diagonalization with overlap
     ethr =  2.04E-08,  avg # of iterations =  3.0

     total cpu time spent up to now is       15.8 secs

     total energy              =    -190.21301030 Ry
     Harris-Foulkes estimate   =    -190.21301262 Ry
     estimated scf accuracy    <       0.00000504 Ry

     iteration #  3     ecut=    40.00 Ry     beta=0.70
     Davidson diagonalization with overlap
     ethr =  2.04E-08,  avg # of iterations =  2.0

     total cpu time spent up to now is       16.0 secs

     total energy              =    -190.21301041 Ry
     Harris-Foulkes estimate   =    -190.21301067 Ry
     estimated scf accuracy    <       0.00000085 Ry

     iteration #  4     ecut=    40.00 Ry     beta=0.70
     Davidson diagonalization with overlap
     ethr =  4.70E-09,  avg # of iterations =  1.0

     total cpu time spent up to now is       16.2 secs

     total energy              =    -190.21301036 Ry
     Harris-Foulkes estimate   =    -190.21301044 Ry
     estimated scf accuracy    <       0.00000031 Ry

     iteration #  5     ecut=    40.00 Ry     beta=0.70
     Davidson diagonalization with overlap
     ethr =  1.72E-09,  avg # of iterations =  1.0

     total cpu time spent up to now is       16.4 secs

     total energy              =    -190.21301034 Ry
     Harris-Foulkes estimate   =    -190.21301037 Ry
     estimated scf accuracy    <       0.00000014 Ry

     iteration #  6     ecut=    40.00 Ry     beta=0.70
     Davidson diagonalization with overlap
     ethr =  7.99E-10,  avg # of iterations =  1.0

     total cpu time spent up to now is       16.6 secs

     total energy              =    -190.21301031 Ry
     Harris-Foulkes estimate   =    -190.21301034 Ry
     estimated scf accuracy    <       0.00000009 Ry

     iteration #  7     ecut=    40.00 Ry     beta=0.70
     Davidson diagonalization with overlap
     ethr =  4.76E-10,  avg # of iterations =  1.0

     total cpu time spent up to now is       16.7 secs

     total energy              =    -190.21301030 Ry
     Harris-Foulkes estimate   =    -190.21301031 Ry
     estimated scf accuracy    <       0.00000002 Ry

     iteration #  8     ecut=    40.00 Ry     beta=0.70
     Davidson diagonalization with overlap
     ethr =  1.24E-10,  avg # of iterations =  2.0

     total cpu time spent up to now is       17.0 secs

     End of self-consistent calculation

     Number of k-points >= 100: set verbosity='high' to print the bands.

     the Fermi energy is     1.7546 ev

!    total energy              =    -190.21301030 Ry
     Harris-Foulkes estimate   =    -190.21301030 Ry
     estimated scf accuracy    <          3.6E-10 Ry

     The total energy is the sum of the following terms:

     one-electron contribution =    -174.74389291 Ry
     hartree contribution      =      88.21797207 Ry
     xc contribution           =     -28.54632724 Ry
     ewald contribution        =     -75.14063441 Ry
     smearing contrib. (-TS)   =      -0.00012780 Ry

     convergence has been achieved in   8 iterations

     Forces acting on atoms (Ry/au):

     atom    1 type  1   force =    -0.00000000   -0.00000000   -0.00000000
     atom    2 type  1   force =     0.00000000    0.00000000    0.00000000

     Total force =     0.000000     Total SCF correction =     0.000000


     entering subroutine stress ...

          total   stress  (Ry/bohr**3)                   (kbar)     P=    0.18
   0.00000094  -0.00000000  -0.00000000          0.14     -0.00     -0.00
   0.00000000   0.00000094  -0.00000000          0.00      0.14     -0.00
  -0.00000000   0.00000000   0.00000187         -0.00      0.00      0.28


     number of scf cycles    =   3
     number of bfgs steps    =   2

     enthalpy old            =    -190.2113687769 Ry
     enthalpy new            =    -190.2113691127 Ry

     CASE: enthalpy_new < enthalpy_old

     small trust_radius: resetting bfgs history

     new trust radius        =       0.0001000000 bohr
     new conv_thr            =       0.0000000010 Ry

     new unit-cell volume =    482.82580 a.u.^3 (    71.54740 Ang^3 )

CELL_PARAMETERS (alat=  6.99385000)
   0.999834411  -0.000000000   0.000000000
  -0.499917206   0.865882000  -0.000000000
  -0.000000000  -0.000000000   1.630251966

ATOMIC_POSITIONS (crystal)
Na      -0.000000000  -0.000000000   0.000000000
Na       0.666666000   0.333333000   0.500000000



     Writing output data file na_hcp_0.5$.save
     NEW-OLD atomic charge density approx. for the potential
     extrapolated charge   17.99893, renormalised to   18.00000

     total cpu time spent up to now is       19.9 secs

     per-process dynamical memory:    23.1 Mb

     Self-consistent Calculation

     iteration #  1     ecut=    40.00 Ry     beta=0.70
     Davidson diagonalization with overlap
     ethr =  1.00E-06,  avg # of iterations =  2.0

     Threshold (ethr) on eigenvalues was too large:
     Diagonalizing with lowered threshold

     Davidson diagonalization with overlap
     ethr =  1.10E-09,  avg # of iterations =  1.0

     total cpu time spent up to now is       20.3 secs

     total energy              =    -190.21300992 Ry
     Harris-Foulkes estimate   =    -190.22131120 Ry
     estimated scf accuracy    <       0.00000020 Ry

     iteration #  2     ecut=    40.00 Ry     beta=0.70
     Davidson diagonalization with overlap
     ethr =  1.10E-09,  avg # of iterations =  3.0

     total cpu time spent up to now is       20.6 secs

     total energy              =    -190.21301030 Ry
     Harris-Foulkes estimate   =    -190.21301045 Ry
     estimated scf accuracy    <       0.00000035 Ry

     iteration #  3     ecut=    40.00 Ry     beta=0.70
     Davidson diagonalization with overlap
     ethr =  1.10E-09,  avg # of iterations =  2.0

     total cpu time spent up to now is       20.8 secs

     total energy              =    -190.21301029 Ry
     Harris-Foulkes estimate   =    -190.21301032 Ry
     estimated scf accuracy    <       0.00000007 Ry

     iteration #  4     ecut=    40.00 Ry     beta=0.70
     Davidson diagonalization with overlap
     ethr =  3.85E-10,  avg # of iterations =  1.0

     total cpu time spent up to now is       21.0 secs

     total energy              =    -190.21301030 Ry
     Harris-Foulkes estimate   =    -190.21301030 Ry
     estimated scf accuracy    <       0.00000002 Ry

     iteration #  5     ecut=    40.00 Ry     beta=0.70
     Davidson diagonalization with overlap
     ethr =  1.13E-10,  avg # of iterations =  1.0

     total cpu time spent up to now is       21.2 secs

     total energy              =    -190.21301029 Ry
     Harris-Foulkes estimate   =    -190.21301030 Ry
     estimated scf accuracy    <       0.00000002 Ry

     iteration #  6     ecut=    40.00 Ry     beta=0.70
     Davidson diagonalization with overlap
     ethr =  1.13E-10,  avg # of iterations =  1.0

     total cpu time spent up to now is       21.3 secs

     total energy              =    -190.21301029 Ry
     Harris-Foulkes estimate   =    -190.21301029 Ry
     estimated scf accuracy    <          8.4E-09 Ry

     iteration #  7     ecut=    40.00 Ry     beta=0.70
     Davidson diagonalization with overlap
     ethr =  4.67E-11,  avg # of iterations =  2.0

     total cpu time spent up to now is       21.6 secs

     End of self-consistent calculation

     Number of k-points >= 100: set verbosity='high' to print the bands.

     the Fermi energy is     1.7549 ev

!    total energy              =    -190.21301029 Ry
     Harris-Foulkes estimate   =    -190.21301029 Ry
     estimated scf accuracy    <          7.0E-11 Ry

     The total energy is the sum of the following terms:

     one-electron contribution =    -174.74121483 Ry
     hartree contribution      =      88.21678997 Ry
     xc contribution           =     -28.54632958 Ry
     ewald contribution        =     -75.14212805 Ry
     smearing contrib. (-TS)   =      -0.00012780 Ry

     convergence has been achieved in   7 iterations

     Forces acting on atoms (Ry/au):

     atom    1 type  1   force =     0.00000000    0.00000000    0.00000000
     atom    2 type  1   force =     0.00000000    0.00000000    0.00000000

     Total force =     0.000000     Total SCF correction =     0.000000


     entering subroutine stress ...

          total   stress  (Ry/bohr**3)                   (kbar)     P=    0.14
   0.00000062   0.00000000  -0.00000000          0.09      0.00     -0.00
   0.00000000   0.00000062   0.00000000          0.00      0.09      0.00
   0.00000000   0.00000000   0.00000156          0.00      0.00      0.23


     number of scf cycles    =   4
     number of bfgs steps    =   3

     enthalpy old            =    -190.2113691127 Ry
     enthalpy new            =    -190.2113691954 Ry

     CASE: enthalpy_new < enthalpy_old


     WARNING: bfgs curvature condition failed, Theta= 0.578
     uphill step: resetting bfgs history

     new trust radius        =       0.0001499989 bohr
     new conv_thr            =       0.0000000010 Ry

     new unit-cell volume =    482.78194 a.u.^3 (    71.54090 Ang^3 )

CELL_PARAMETERS (alat=  6.99385000)
   0.999800285  -0.000000000   0.000000000
  -0.499900142   0.865852445   0.000000000
  -0.000000000  -0.000000000   1.630215167

ATOMIC_POSITIONS (crystal)
Na      -0.000000000  -0.000000000   0.000000000
Na       0.666666000   0.333333000   0.500000000



     Writing output data file na_hcp_0.5$.save
     NEW-OLD atomic charge density approx. for the potential
     extrapolated charge   17.99837, renormalised to   18.00000

     total cpu time spent up to now is       26.3 secs

     per-process dynamical memory:    23.1 Mb

     Self-consistent Calculation

     iteration #  1     ecut=    40.00 Ry     beta=0.70
     Davidson diagonalization with overlap
     ethr =  1.00E-06,  avg # of iterations =  2.0

     Threshold (ethr) on eigenvalues was too large:
     Diagonalizing with lowered threshold

     Davidson diagonalization with overlap
     ethr =  2.67E-09,  avg # of iterations =  1.0

     total cpu time spent up to now is       26.7 secs

     total energy              =    -190.21300939 Ry
     Harris-Foulkes estimate   =    -190.22565957 Ry
     estimated scf accuracy    <       0.00000048 Ry

     iteration #  2     ecut=    40.00 Ry     beta=0.70
     Davidson diagonalization with overlap
     ethr =  2.68E-09,  avg # of iterations =  3.0

     total cpu time spent up to now is       27.0 secs

     total energy              =    -190.21301028 Ry
     Harris-Foulkes estimate   =    -190.21301064 Ry
     estimated scf accuracy    <       0.00000082 Ry

     iteration #  3     ecut=    40.00 Ry     beta=0.70
     Davidson diagonalization with overlap
     ethr =  2.68E-09,  avg # of iterations =  2.0

     total cpu time spent up to now is       27.2 secs

     total energy              =    -190.21301028 Ry
     Harris-Foulkes estimate   =    -190.21301033 Ry
     estimated scf accuracy    <       0.00000016 Ry

     iteration #  4     ecut=    40.00 Ry     beta=0.70
     Davidson diagonalization with overlap
     ethr =  8.82E-10,  avg # of iterations =  1.0

     total cpu time spent up to now is       27.4 secs

     total energy              =    -190.21301028 Ry
     Harris-Foulkes estimate   =    -190.21301028 Ry
     estimated scf accuracy    <       0.00000005 Ry

     iteration #  5     ecut=    40.00 Ry     beta=0.70
     Davidson diagonalization with overlap
     ethr =  2.83E-10,  avg # of iterations =  1.0

     total cpu time spent up to now is       27.6 secs

     total energy              =    -190.21301027 Ry
     Harris-Foulkes estimate   =    -190.21301028 Ry
     estimated scf accuracy    <       0.00000004 Ry

     iteration #  6     ecut=    40.00 Ry     beta=0.70
     Davidson diagonalization with overlap
     ethr =  2.48E-10,  avg # of iterations =  1.0

     total cpu time spent up to now is       27.8 secs

     total energy              =    -190.21301026 Ry
     Harris-Foulkes estimate   =    -190.21301027 Ry
     estimated scf accuracy    <       0.00000002 Ry

     iteration #  7     ecut=    40.00 Ry     beta=0.70
     Davidson diagonalization with overlap
     ethr =  9.79E-11,  avg # of iterations =  2.0

     total cpu time spent up to now is       28.0 secs

     End of self-consistent calculation

     Number of k-points >= 100: set verbosity='high' to print the bands.

     the Fermi energy is     1.7553 ev

!    total energy              =    -190.21301026 Ry
     Harris-Foulkes estimate   =    -190.21301026 Ry
     estimated scf accuracy    <          1.7E-10 Ry

     The total energy is the sum of the following terms:

     one-electron contribution =    -174.73725440 Ry
     hartree contribution      =      88.21513693 Ry
     xc contribution           =     -28.54636089 Ry
     ewald contribution        =     -75.14440410 Ry
     smearing contrib. (-TS)   =      -0.00012780 Ry

     convergence has been achieved in   7 iterations

     Forces acting on atoms (Ry/au):

     atom    1 type  1   force =     0.00000000    0.00000000    0.00000000
     atom    2 type  1   force =     0.00000000    0.00000000    0.00000000

     Total force =     0.000000     Total SCF correction =     0.000000


     entering subroutine stress ...

          total   stress  (Ry/bohr**3)                   (kbar)     P=    0.18
   0.00000091  -0.00000000  -0.00000000          0.13     -0.00     -0.00
  -0.00000000   0.00000091  -0.00000000         -0.00      0.13     -0.00
  -0.00000000  -0.00000000   0.00000185         -0.00     -0.00      0.27


     number of scf cycles    =   5
     number of bfgs steps    =   4

     enthalpy old            =    -190.2113691954 Ry
     enthalpy new            =    -190.2113693185 Ry

     CASE: enthalpy_new < enthalpy_old

     new trust radius        =       0.0002249959 bohr
     new conv_thr            =       0.0000000010 Ry

     new unit-cell volume =    482.71801 a.u.^3 (    71.53143 Ang^3 )

CELL_PARAMETERS (alat=  6.99385000)
   0.999749095  -0.000000000   0.000000000
  -0.499874547   0.865808114  -0.000000000
  -0.000000000  -0.000000000   1.630166213

ATOMIC_POSITIONS (crystal)
Na      -0.000000000  -0.000000000   0.000000000
Na       0.666666000   0.333333000   0.500000000



     Writing output data file na_hcp_0.5$.save
     NEW-OLD atomic charge density approx. for the potential
     extrapolated charge   17.99762, renormalised to   18.00000

     total cpu time spent up to now is       32.0 secs

     per-process dynamical memory:    23.1 Mb

     Self-consistent Calculation

     iteration #  1     ecut=    40.00 Ry     beta=0.70
     Davidson diagonalization with overlap
     ethr =  1.00E-06,  avg # of iterations =  2.0

     Threshold (ethr) on eigenvalues was too large:
     Diagonalizing with lowered threshold

     Davidson diagonalization with overlap
     ethr =  5.66E-09,  avg # of iterations =  1.0

     total cpu time spent up to now is       32.4 secs

     total energy              =    -190.21300837 Ry
     Harris-Foulkes estimate   =    -190.23145121 Ry
     estimated scf accuracy    <       0.00000102 Ry

     iteration #  2     ecut=    40.00 Ry     beta=0.70
     Davidson diagonalization with overlap
     ethr =  5.67E-09,  avg # of iterations =  3.0

     total cpu time spent up to now is       32.6 secs

     total energy              =    -190.21301026 Ry
     Harris-Foulkes estimate   =    -190.21301102 Ry
     estimated scf accuracy    <       0.00000174 Ry

     iteration #  3     ecut=    40.00 Ry     beta=0.70
     Davidson diagonalization with overlap
     ethr =  5.67E-09,  avg # of iterations =  2.0

     total cpu time spent up to now is       32.9 secs

     total energy              =    -190.21301025 Ry
     Harris-Foulkes estimate   =    -190.21301037 Ry
     estimated scf accuracy    <       0.00000034 Ry

     iteration #  4     ecut=    40.00 Ry     beta=0.70
     Davidson diagonalization with overlap
     ethr =  1.88E-09,  avg # of iterations =  1.0

     total cpu time spent up to now is       33.1 secs

     total energy              =    -190.21301026 Ry
     Harris-Foulkes estimate   =    -190.21301027 Ry
     estimated scf accuracy    <       0.00000011 Ry

     iteration #  5     ecut=    40.00 Ry     beta=0.70
     Davidson diagonalization with overlap
     ethr =  6.06E-10,  avg # of iterations =  1.0

     total cpu time spent up to now is       33.3 secs

     total energy              =    -190.21301023 Ry
     Harris-Foulkes estimate   =    -190.21301026 Ry
     estimated scf accuracy    <       0.00000010 Ry

     iteration #  6     ecut=    40.00 Ry     beta=0.70
     Davidson diagonalization with overlap
     ethr =  5.40E-10,  avg # of iterations =  1.0

     total cpu time spent up to now is       33.4 secs

     total energy              =    -190.21301021 Ry
     Harris-Foulkes estimate   =    -190.21301024 Ry
     estimated scf accuracy    <       0.00000004 Ry

     iteration #  7     ecut=    40.00 Ry     beta=0.70
     Davidson diagonalization with overlap
     ethr =  2.10E-10,  avg # of iterations =  2.0

     total cpu time spent up to now is       33.7 secs

     End of self-consistent calculation

     Number of k-points >= 100: set verbosity='high' to print the bands.

     the Fermi energy is     1.7559 ev

!    total energy              =    -190.21301022 Ry
     Harris-Foulkes estimate   =    -190.21301022 Ry
     estimated scf accuracy    <          3.3E-10 Ry

     The total energy is the sum of the following terms:

     one-electron contribution =    -174.73146435 Ry
     hartree contribution      =      88.21270787 Ry
     xc contribution           =     -28.54640321 Ry
     ewald contribution        =     -75.14772274 Ry
     smearing contrib. (-TS)   =      -0.00012779 Ry

     convergence has been achieved in   7 iterations

     Forces acting on atoms (Ry/au):

     atom    1 type  1   force =     0.00000000    0.00000000    0.00000000
     atom    2 type  1   force =     0.00000000    0.00000000    0.00000000

     Total force =     0.000000     Total SCF correction =     0.000000


     entering subroutine stress ...

          total   stress  (Ry/bohr**3)                   (kbar)     P=    0.22
   0.00000121   0.00000000  -0.00000000          0.18      0.00     -0.00
   0.00000000   0.00000121   0.00000000          0.00      0.18      0.00
  -0.00000000   0.00000000   0.00000213         -0.00      0.00      0.31


     number of scf cycles    =   6
     number of bfgs steps    =   5

     enthalpy old            =    -190.2113693185 Ry
     enthalpy new            =    -190.2113694940 Ry

     CASE: enthalpy_new < enthalpy_old

     new trust radius        =       0.0003374887 bohr
     new conv_thr            =       0.0000000010 Ry

     new unit-cell volume =    482.62409 a.u.^3 (    71.51751 Ang^3 )

CELL_PARAMETERS (alat=  6.99385000)
   0.999672310   0.000000000  -0.000000000
  -0.499836155   0.865741616  -0.000000000
  -0.000000000  -0.000000000   1.630099446

ATOMIC_POSITIONS (crystal)
Na       0.000000000   0.000000000  -0.000000000
Na       0.666666000   0.333333000   0.500000000



     Writing output data file na_hcp_0.5$.save
     NEW-OLD atomic charge density approx. for the potential
     extrapolated charge   17.99650, renormalised to   18.00000

     total cpu time spent up to now is       38.1 secs

     per-process dynamical memory:    23.1 Mb

     Self-consistent Calculation

     iteration #  1     ecut=    40.00 Ry     beta=0.70
     Davidson diagonalization with overlap
     ethr =  1.00E-06,  avg # of iterations =  2.0

     Threshold (ethr) on eigenvalues was too large:
     Diagonalizing with lowered threshold

     Davidson diagonalization with overlap
     ethr =  1.22E-08,  avg # of iterations =  1.0

     total cpu time spent up to now is       38.5 secs

     total energy              =    -190.21300616 Ry
     Harris-Foulkes estimate   =    -190.24010302 Ry
     estimated scf accuracy    <       0.00000221 Ry

     iteration #  2     ecut=    40.00 Ry     beta=0.70
     Davidson diagonalization with overlap
     ethr =  1.23E-08,  avg # of iterations =  3.0

     total cpu time spent up to now is       38.8 secs

     total energy              =    -190.21301023 Ry
     Harris-Foulkes estimate   =    -190.21301187 Ry
     estimated scf accuracy    <       0.00000375 Ry

     iteration #  3     ecut=    40.00 Ry     beta=0.70
     Davidson diagonalization with overlap
     ethr =  1.23E-08,  avg # of iterations =  2.0

     total cpu time spent up to now is       39.0 secs

     total energy              =    -190.21301022 Ry
     Harris-Foulkes estimate   =    -190.21301048 Ry
     estimated scf accuracy    <       0.00000073 Ry

     iteration #  4     ecut=    40.00 Ry     beta=0.70
     Davidson diagonalization with overlap
     ethr =  4.05E-09,  avg # of iterations =  1.0

     total cpu time spent up to now is       39.2 secs

     total energy              =    -190.21301024 Ry
     Harris-Foulkes estimate   =    -190.21301025 Ry
     estimated scf accuracy    <       0.00000024 Ry

     iteration #  5     ecut=    40.00 Ry     beta=0.70
     Davidson diagonalization with overlap
     ethr =  1.31E-09,  avg # of iterations =  1.0

     total cpu time spent up to now is       39.4 secs

     total energy              =    -190.21301018 Ry
     Harris-Foulkes estimate   =    -190.21301024 Ry
     estimated scf accuracy    <       0.00000021 Ry

     iteration #  6     ecut=    40.00 Ry     beta=0.70
     Davidson diagonalization with overlap
     ethr =  1.16E-09,  avg # of iterations =  1.0

     total cpu time spent up to now is       39.6 secs

     total energy              =    -190.21301013 Ry
     Harris-Foulkes estimate   =    -190.21301018 Ry
     estimated scf accuracy    <       0.00000008 Ry

     iteration #  7     ecut=    40.00 Ry     beta=0.70
     Davidson diagonalization with overlap
     ethr =  4.51E-10,  avg # of iterations =  2.0

     total cpu time spent up to now is       39.8 secs

     End of self-consistent calculation

     Number of k-points >= 100: set verbosity='high' to print the bands.

     the Fermi energy is     1.7567 ev

!    total energy              =    -190.21301015 Ry
     Harris-Foulkes estimate   =    -190.21301015 Ry
     estimated scf accuracy    <          6.0E-10 Ry

     The total energy is the sum of the following terms:

     one-electron contribution =    -174.72294866 Ry
     hartree contribution      =      88.20912899 Ry
     xc contribution           =     -28.54646360 Ry
     ewald contribution        =     -75.15259909 Ry
     smearing contrib. (-TS)   =      -0.00012778 Ry

     convergence has been achieved in   7 iterations

     Forces acting on atoms (Ry/au):

     atom    1 type  1   force =     0.00000000    0.00000000    0.00000000
     atom    2 type  1   force =     0.00000000    0.00000000    0.00000000

     Total force =     0.000000     Total SCF correction =     0.000000


     entering subroutine stress ...

          total   stress  (Ry/bohr**3)                   (kbar)     P=    0.28
   0.00000160   0.00000000   0.00000000          0.24      0.00      0.00
   0.00000000   0.00000160   0.00000000          0.00      0.24      0.00
   0.00000000   0.00000000   0.00000250          0.00      0.00      0.37


     number of scf cycles    =   7
     number of bfgs steps    =   6

     enthalpy old            =    -190.2113694940 Ry
     enthalpy new            =    -190.2113697423 Ry

     CASE: enthalpy_new < enthalpy_old

     new trust radius        =       0.0005062227 bohr
     new conv_thr            =       0.0000000010 Ry

     new unit-cell volume =    482.48624 a.u.^3 (    71.49708 Ang^3 )

CELL_PARAMETERS (alat=  6.99385000)
   0.999557134   0.000000000  -0.000000000
  -0.499778567   0.865641870  -0.000000000
  -0.000000000  -0.000000000   1.630009415

ATOMIC_POSITIONS (crystal)
Na       0.000000000   0.000000000  -0.000000000
Na       0.666666000   0.333333000   0.500000000



     Writing output data file na_hcp_0.5$.save
     NEW-OLD atomic charge density approx. for the potential
     extrapolated charge   17.99486, renormalised to   18.00000

     total cpu time spent up to now is       47.5 secs

     per-process dynamical memory:    23.1 Mb

     Self-consistent Calculation

     iteration #  1     ecut=    40.00 Ry     beta=0.70
     Davidson diagonalization with overlap
     ethr =  1.00E-06,  avg # of iterations =  2.0

     Threshold (ethr) on eigenvalues was too large:
     Diagonalizing with lowered threshold

     Davidson diagonalization with overlap
     ethr =  2.64E-08,  avg # of iterations =  1.0

     total cpu time spent up to now is       47.9 secs

     total energy              =    -190.21300142 Ry
     Harris-Foulkes estimate   =    -190.25278660 Ry
     estimated scf accuracy    <       0.00000476 Ry

     iteration #  2     ecut=    40.00 Ry     beta=0.70
     Davidson diagonalization with overlap
     ethr =  2.64E-08,  avg # of iterations =  3.0

     total cpu time spent up to now is       48.2 secs

     total energy              =    -190.21301019 Ry
     Harris-Foulkes estimate   =    -190.21301373 Ry
     estimated scf accuracy    <       0.00000809 Ry

     iteration #  3     ecut=    40.00 Ry     beta=0.70
     Davidson diagonalization with overlap
     ethr =  2.64E-08,  avg # of iterations =  2.0

     total cpu time spent up to now is       48.4 secs

     total energy              =    -190.21301018 Ry
     Harris-Foulkes estimate   =    -190.21301073 Ry
     estimated scf accuracy    <       0.00000157 Ry

     iteration #  4     ecut=    40.00 Ry     beta=0.70
     Davidson diagonalization with overlap
     ethr =  8.71E-09,  avg # of iterations =  1.0

     total cpu time spent up to now is       48.6 secs

     total energy              =    -190.21301022 Ry
     Harris-Foulkes estimate   =    -190.21301025 Ry
     estimated scf accuracy    <       0.00000051 Ry

     iteration #  5     ecut=    40.00 Ry     beta=0.70
     Davidson diagonalization with overlap
     ethr =  2.83E-09,  avg # of iterations =  1.0

     total cpu time spent up to now is       48.8 secs

     total energy              =    -190.21301008 Ry
     Harris-Foulkes estimate   =    -190.21301022 Ry
     estimated scf accuracy    <       0.00000044 Ry

     iteration #  6     ecut=    40.00 Ry     beta=0.70
     Davidson diagonalization with overlap
     ethr =  2.46E-09,  avg # of iterations =  1.0

     total cpu time spent up to now is       49.0 secs

     total energy              =    -190.21300998 Ry
     Harris-Foulkes estimate   =    -190.21301010 Ry
     estimated scf accuracy    <       0.00000017 Ry

     iteration #  7     ecut=    40.00 Ry     beta=0.70
     Davidson diagonalization with overlap
     ethr =  9.57E-10,  avg # of iterations =  2.0

     total cpu time spent up to now is       49.2 secs

     End of self-consistent calculation

     Number of k-points >= 100: set verbosity='high' to print the bands.

     the Fermi energy is     1.7579 ev

!    total energy              =    -190.21301002 Ry
     Harris-Foulkes estimate   =    -190.21301002 Ry
     estimated scf accuracy    <          9.1E-10 Ry

     The total energy is the sum of the following terms:

     one-electron contribution =    -174.71042203 Ry
     hartree contribution      =      88.20384678 Ry
     xc contribution           =     -28.54654735 Ry
     ewald contribution        =     -75.15975966 Ry
     smearing contrib. (-TS)   =      -0.00012776 Ry

     convergence has been achieved in   7 iterations

     Forces acting on atoms (Ry/au):

     atom    1 type  1   force =     0.00000000    0.00000000    0.00000000
     atom    2 type  1   force =     0.00000000    0.00000000    0.00000000

     Total force =     0.000000     Total SCF correction =     0.000000


     entering subroutine stress ...

          total   stress  (Ry/bohr**3)                   (kbar)     P=    0.34
   0.00000204   0.00000000   0.00000000          0.30      0.00      0.00
   0.00000000   0.00000204   0.00000000          0.00      0.30      0.00
   0.00000000   0.00000000   0.00000289          0.00      0.00      0.43


     number of scf cycles    =   8
     number of bfgs steps    =   7

     enthalpy old            =    -190.2113697423 Ry
     enthalpy new            =    -190.2113700849 Ry

     CASE: enthalpy_new < enthalpy_old

     new trust radius        =       0.0007593132 bohr
     new conv_thr            =       0.0000000010 Ry

     new unit-cell volume =    482.28360 a.u.^3 (    71.46706 Ang^3 )

CELL_PARAMETERS (alat=  6.99385000)
   0.999384369   0.000000000  -0.000000000
  -0.499692184   0.865492251  -0.000000000
   0.000000000  -0.000000000   1.629888211

ATOMIC_POSITIONS (crystal)
Na       0.000000000   0.000000000  -0.000000000
Na       0.666666000   0.333333000   0.500000000



     Writing output data file na_hcp_0.5$.save
     NEW-OLD atomic charge density approx. for the potential
     extrapolated charge   17.99244, renormalised to   18.00000

     total cpu time spent up to now is       52.7 secs

     per-process dynamical memory:    23.1 Mb

     Self-consistent Calculation

     iteration #  1     ecut=    40.00 Ry     beta=0.70
     Davidson diagonalization with overlap
     ethr =  1.00E-06,  avg # of iterations =  2.0

     Threshold (ethr) on eigenvalues was too large:
     Diagonalizing with lowered threshold

     Davidson diagonalization with overlap
     ethr =  5.72E-08,  avg # of iterations =  1.0

     total cpu time spent up to now is       53.1 secs

     total energy              =    -190.21299116 Ry
     Harris-Foulkes estimate   =    -190.27149595 Ry
     estimated scf accuracy    <       0.00001032 Ry

     iteration #  2     ecut=    40.00 Ry     beta=0.70
     Davidson diagonalization with overlap
     ethr =  5.73E-08,  avg # of iterations =  3.0

     total cpu time spent up to now is       53.4 secs

     total energy              =    -190.21301016 Ry
     Harris-Foulkes estimate   =    -190.21301781 Ry
     estimated scf accuracy    <       0.00001750 Ry

     iteration #  3     ecut=    40.00 Ry     beta=0.70
     Davidson diagonalization with overlap
     ethr =  5.73E-08,  avg # of iterations =  2.0

     total cpu time spent up to now is       53.6 secs

     total energy              =    -190.21301012 Ry
     Harris-Foulkes estimate   =    -190.21301131 Ry
     estimated scf accuracy    <       0.00000338 Ry

     iteration #  4     ecut=    40.00 Ry     beta=0.70
     Davidson diagonalization with overlap
     ethr =  1.88E-08,  avg # of iterations =  1.0

     total cpu time spent up to now is       53.8 secs

     total energy              =    -190.21301019 Ry
     Harris-Foulkes estimate   =    -190.21301027 Ry
     estimated scf accuracy    <       0.00000109 Ry

     iteration #  5     ecut=    40.00 Ry     beta=0.70
     Davidson diagonalization with overlap
     ethr =  6.08E-09,  avg # of iterations =  1.0

     total cpu time spent up to now is       54.0 secs

     total energy              =    -190.21300992 Ry
     Harris-Foulkes estimate   =    -190.21301020 Ry
     estimated scf accuracy    <       0.00000092 Ry

     iteration #  6     ecut=    40.00 Ry     beta=0.70
     Davidson diagonalization with overlap
     ethr =  5.12E-09,  avg # of iterations =  1.0

     total cpu time spent up to now is       54.2 secs

     total energy              =    -190.21300970 Ry
     Harris-Foulkes estimate   =    -190.21300995 Ry
     estimated scf accuracy    <       0.00000036 Ry

     iteration #  7     ecut=    40.00 Ry     beta=0.70
     Davidson diagonalization with overlap
     ethr =  2.02E-09,  avg # of iterations =  2.0

     total cpu time spent up to now is       54.4 secs

     total energy              =    -190.21300979 Ry
     Harris-Foulkes estimate   =    -190.21300979 Ry
     estimated scf accuracy    <          2.0E-09 Ry

     iteration #  8     ecut=    40.00 Ry     beta=0.70
     Davidson diagonalization with overlap
     ethr =  1.13E-11,  avg # of iterations =  2.0

     total cpu time spent up to now is       54.7 secs

     End of self-consistent calculation

     Number of k-points >= 100: set verbosity='high' to print the bands.

     the Fermi energy is     1.7598 ev

!    total energy              =    -190.21300979 Ry
     Harris-Foulkes estimate   =    -190.21300979 Ry
     estimated scf accuracy    <          2.3E-10 Ry

     The total energy is the sum of the following terms:

     one-electron contribution =    -174.69168375 Ry
     hartree contribution      =      88.19569093 Ry
     xc contribution           =     -28.54659848 Ry
     ewald contribution        =     -75.17029076 Ry
     smearing contrib. (-TS)   =      -0.00012773 Ry

     convergence has been achieved in   8 iterations

     Forces acting on atoms (Ry/au):

     atom    1 type  1   force =     0.00000000    0.00000000    0.00000000
     atom    2 type  1   force =     0.00000000    0.00000000    0.00000000

     Total force =     0.000000     Total SCF correction =     0.000000


     entering subroutine stress ...

          total   stress  (Ry/bohr**3)                   (kbar)     P=    0.13
   0.00000068   0.00000000   0.00000000          0.10      0.00      0.00
   0.00000000   0.00000068   0.00000000          0.00      0.10      0.00
   0.00000000   0.00000000   0.00000139          0.00      0.00      0.21


     number of scf cycles    =   9
     number of bfgs steps    =   8

     enthalpy old            =    -190.2113700849 Ry
     enthalpy new            =    -190.2113705396 Ry

     CASE: enthalpy_new < enthalpy_old


     WARNING: bfgs curvature condition failed, Theta= 0.254
     new trust radius        =       0.0011389274 bohr
     new conv_thr            =       0.0000000010 Ry

     new unit-cell volume =    481.97657 a.u.^3 (    71.42156 Ang^3 )

CELL_PARAMETERS (alat=  6.99385000)
   0.999125221   0.000000000   0.000000000
  -0.499562610   0.865267823  -0.000000000
   0.000000000  -0.000000000   1.629695680

ATOMIC_POSITIONS (crystal)
Na       0.000000000   0.000000000  -0.000000000
Na       0.666666000   0.333333000   0.500000000



     Writing output data file na_hcp_0.5$.save
     NEW-OLD atomic charge density approx. for the potential
     extrapolated charge   17.98854, renormalised to   18.00000

     total cpu time spent up to now is       58.2 secs

     per-process dynamical memory:    23.1 Mb

     Self-consistent Calculation

     iteration #  1     ecut=    40.00 Ry     beta=0.70
     Davidson diagonalization with overlap
     ethr =  1.00E-06,  avg # of iterations =  2.0

     total cpu time spent up to now is       58.5 secs

     total energy              =    -190.21296622 Ry
     Harris-Foulkes estimate   =    -190.30166290 Ry
     estimated scf accuracy    <       0.00002416 Ry

     iteration #  2     ecut=    40.00 Ry     beta=0.70
     Davidson diagonalization with overlap
     ethr =  1.34E-07,  avg # of iterations =  3.0

     total cpu time spent up to now is       58.8 secs

     total energy              =    -190.21301009 Ry
     Harris-Foulkes estimate   =    -190.21302779 Ry
     estimated scf accuracy    <       0.00004030 Ry

     iteration #  3     ecut=    40.00 Ry     beta=0.70
     Davidson diagonalization with overlap
     ethr =  1.34E-07,  avg # of iterations =  2.0

     total cpu time spent up to now is       59.0 secs

     total energy              =    -190.21301016 Ry
     Harris-Foulkes estimate   =    -190.21301278 Ry
     estimated scf accuracy    <       0.00000771 Ry

     iteration #  4     ecut=    40.00 Ry     beta=0.70
     Davidson diagonalization with overlap
     ethr =  4.28E-08,  avg # of iterations =  1.0

     total cpu time spent up to now is       59.2 secs

     total energy              =    -190.21301011 Ry
     Harris-Foulkes estimate   =    -190.21301047 Ry
     estimated scf accuracy    <       0.00000262 Ry

     iteration #  5     ecut=    40.00 Ry     beta=0.70
     Davidson diagonalization with overlap
     ethr =  1.46E-08,  avg # of iterations =  1.0

     total cpu time spent up to now is       59.4 secs

     total energy              =    -190.21300961 Ry
     Harris-Foulkes estimate   =    -190.21301015 Ry
     estimated scf accuracy    <       0.00000182 Ry

     iteration #  6     ecut=    40.00 Ry     beta=0.70
     Davidson diagonalization with overlap
     ethr =  1.01E-08,  avg # of iterations =  1.0

     total cpu time spent up to now is       59.6 secs

     total energy              =    -190.21300913 Ry
     Harris-Foulkes estimate   =    -190.21300966 Ry
     estimated scf accuracy    <       0.00000077 Ry

     iteration #  7     ecut=    40.00 Ry     beta=0.70
     Davidson diagonalization with overlap
     ethr =  4.27E-09,  avg # of iterations =  2.0

     total cpu time spent up to now is       59.8 secs

     total energy              =    -190.21300931 Ry
     Harris-Foulkes estimate   =    -190.21300931 Ry
     estimated scf accuracy    <          1.5E-09 Ry

     iteration #  8     ecut=    40.00 Ry     beta=0.70
     Davidson diagonalization with overlap
     ethr =  8.27E-12,  avg # of iterations =  2.3

     total cpu time spent up to now is       60.1 secs

     End of self-consistent calculation

     Number of k-points >= 100: set verbosity='high' to print the bands.

     the Fermi energy is     1.7625 ev

!    total energy              =    -190.21300931 Ry
     Harris-Foulkes estimate   =    -190.21300931 Ry
     estimated scf accuracy    <          1.0E-10 Ry

     The total energy is the sum of the following terms:

     one-electron contribution =    -174.66381222 Ry
     hartree contribution      =      88.18398637 Ry
     xc contribution           =     -28.54679837 Ry
     ewald contribution        =     -75.18625740 Ry
     smearing contrib. (-TS)   =      -0.00012769 Ry

     convergence has been achieved in   8 iterations

     Forces acting on atoms (Ry/au):

     atom    1 type  1   force =     0.00000000    0.00000000    0.00000000
     atom    2 type  1   force =     0.00000000    0.00000000    0.00000000

     Total force =     0.000000     Total SCF correction =     0.000000


     entering subroutine stress ...

          total   stress  (Ry/bohr**3)                   (kbar)     P=    0.33
   0.00000205   0.00000000  -0.00000000          0.30      0.00     -0.00
   0.00000000   0.00000205   0.00000000          0.00      0.30      0.00
  -0.00000000   0.00000000   0.00000264         -0.00      0.00      0.39


     number of scf cycles    =  10
     number of bfgs steps    =   9

     enthalpy old            =    -190.2113705396 Ry
     enthalpy new            =    -190.2113711076 Ry

     CASE: enthalpy_new < enthalpy_old

     new trust radius        =       0.0010682235 bohr
     new conv_thr            =       0.0000000010 Ry

     new unit-cell volume =    481.69366 a.u.^3 (    71.37964 Ang^3 )

CELL_PARAMETERS (alat=  6.99385000)
   0.998882147   0.000000000  -0.000000000
  -0.499441073   0.865057314  -0.000000000
   0.000000000  -0.000000000   1.629531875

ATOMIC_POSITIONS (crystal)
Na       0.000000000   0.000000000  -0.000000000
Na       0.666666000   0.333333000   0.500000000



     Writing output data file na_hcp_0.5$.save
     NEW-OLD atomic charge density approx. for the potential
     extrapolated charge   17.98944, renormalised to   18.00000

     total cpu time spent up to now is       63.2 secs

     per-process dynamical memory:    23.1 Mb

     Self-consistent Calculation

     iteration #  1     ecut=    40.00 Ry     beta=0.70
     Davidson diagonalization with overlap
     ethr =  1.00E-06,  avg # of iterations =  2.0

     total cpu time spent up to now is       63.4 secs

     total energy              =    -190.21297225 Ry
     Harris-Foulkes estimate   =    -190.29473433 Ry
     estimated scf accuracy    <       0.00002037 Ry

     iteration #  2     ecut=    40.00 Ry     beta=0.70
     Davidson diagonalization with overlap
     ethr =  1.13E-07,  avg # of iterations =  3.0

     total cpu time spent up to now is       63.7 secs

     total energy              =    -190.21300943 Ry
     Harris-Foulkes estimate   =    -190.21302442 Ry
     estimated scf accuracy    <       0.00003419 Ry

     iteration #  3     ecut=    40.00 Ry     beta=0.70
     Davidson diagonalization with overlap
     ethr =  1.13E-07,  avg # of iterations =  2.0

     total cpu time spent up to now is       64.0 secs

     total energy              =    -190.21300946 Ry
     Harris-Foulkes estimate   =    -190.21301170 Ry
     estimated scf accuracy    <       0.00000657 Ry

     iteration #  4     ecut=    40.00 Ry     beta=0.70
     Davidson diagonalization with overlap
     ethr =  3.65E-08,  avg # of iterations =  1.0

     total cpu time spent up to now is       64.1 secs

     total energy              =    -190.21300947 Ry
     Harris-Foulkes estimate   =    -190.21300973 Ry
     estimated scf accuracy    <       0.00000222 Ry

     iteration #  5     ecut=    40.00 Ry     beta=0.70
     Davidson diagonalization with overlap
     ethr =  1.24E-08,  avg # of iterations =  1.0

     total cpu time spent up to now is       64.3 secs

     total energy              =    -190.21300900 Ry
     Harris-Foulkes estimate   =    -190.21300950 Ry
     estimated scf accuracy    <       0.00000164 Ry

     iteration #  6     ecut=    40.00 Ry     beta=0.70
     Davidson diagonalization with overlap
     ethr =  9.11E-09,  avg # of iterations =  1.0

     total cpu time spent up to now is       64.5 secs

     total energy              =    -190.21300860 Ry
     Harris-Foulkes estimate   =    -190.21300905 Ry
     estimated scf accuracy    <       0.00000067 Ry

     iteration #  7     ecut=    40.00 Ry     beta=0.70
     Davidson diagonalization with overlap
     ethr =  3.71E-09,  avg # of iterations =  2.0

     total cpu time spent up to now is       64.8 secs

     End of self-consistent calculation

     Number of k-points >= 100: set verbosity='high' to print the bands.

     the Fermi energy is     1.7651 ev

!    total energy              =    -190.21300875 Ry
     Harris-Foulkes estimate   =    -190.21300875 Ry
     estimated scf accuracy    <          7.0E-11 Ry

     The total energy is the sum of the following terms:

     one-electron contribution =    -174.63796187 Ry
     hartree contribution      =      88.17301383 Ry
     xc contribution           =     -28.54695085 Ry
     ewald contribution        =     -75.20098221 Ry
     smearing contrib. (-TS)   =      -0.00012764 Ry

     convergence has been achieved in   7 iterations

     Forces acting on atoms (Ry/au):

     atom    1 type  1   force =     0.00000000    0.00000000    0.00000000
     atom    2 type  1   force =    -0.00000000   -0.00000000   -0.00000000

     Total force =     0.000000     Total SCF correction =     0.000000


     entering subroutine stress ...

          total   stress  (Ry/bohr**3)                   (kbar)     P=    0.37
   0.00000242   0.00000000   0.00000000          0.36      0.00      0.00
   0.00000000   0.00000242   0.00000000          0.00      0.36      0.00
   0.00000000   0.00000000   0.00000280          0.00      0.00      0.41


     number of scf cycles    =  11
     number of bfgs steps    =  10

     enthalpy old            =    -190.2113711076 Ry
     enthalpy new            =    -190.2113715058 Ry

     CASE: enthalpy_new < enthalpy_old

     new trust radius        =       0.0016022547 bohr
     new conv_thr            =       0.0000000010 Ry

     new unit-cell volume =    481.26846 a.u.^3 (    71.31663 Ang^3 )

CELL_PARAMETERS (alat=  6.99385000)
   0.998517535   0.000000000   0.000000000
  -0.499258768   0.864741551  -0.000000000
   0.000000000  -0.000000000   1.629282661

ATOMIC_POSITIONS (crystal)
Na       0.000000000   0.000000000  -0.000000000
Na       0.666666000   0.333333000   0.500000000



     Writing output data file na_hcp_0.5$.save
     NEW-OLD atomic charge density approx. for the potential
     extrapolated charge   17.98411, renormalised to   18.00000

     total cpu time spent up to now is       67.8 secs

     per-process dynamical memory:    23.1 Mb

     Self-consistent Calculation

     iteration #  1     ecut=    40.00 Ry     beta=0.70
     Davidson diagonalization with overlap
     ethr =  1.00E-06,  avg # of iterations =  2.0

     total cpu time spent up to now is       68.1 secs

     total energy              =    -190.21292506 Ry
     Harris-Foulkes estimate   =    -190.33591194 Ry
     estimated scf accuracy    <       0.00004615 Ry

     iteration #  2     ecut=    40.00 Ry     beta=0.70
     Davidson diagonalization with overlap
     ethr =  2.56E-07,  avg # of iterations =  3.0

     total cpu time spent up to now is       68.4 secs

     total energy              =    -190.21300919 Ry
     Harris-Foulkes estimate   =    -190.21304314 Ry
     estimated scf accuracy    <       0.00007736 Ry

     iteration #  3     ecut=    40.00 Ry     beta=0.70
     Davidson diagonalization with overlap
     ethr =  2.56E-07,  avg # of iterations =  2.0

     total cpu time spent up to now is       68.6 secs

     total energy              =    -190.21300923 Ry
     Harris-Foulkes estimate   =    -190.21301434 Ry
     estimated scf accuracy    <       0.00001484 Ry

     iteration #  4     ecut=    40.00 Ry     beta=0.70
     Davidson diagonalization with overlap
     ethr =  8.24E-08,  avg # of iterations =  1.0

     total cpu time spent up to now is       68.8 secs

     total energy              =    -190.21300925 Ry
     Harris-Foulkes estimate   =    -190.21300985 Ry
     estimated scf accuracy    <       0.00000494 Ry

     iteration #  5     ecut=    40.00 Ry     beta=0.70
     Davidson diagonalization with overlap
     ethr =  2.74E-08,  avg # of iterations =  1.0

     total cpu time spent up to now is       69.0 secs

     total energy              =    -190.21300823 Ry
     Harris-Foulkes estimate   =    -190.21300932 Ry
     estimated scf accuracy    <       0.00000358 Ry

     iteration #  6     ecut=    40.00 Ry     beta=0.70
     Davidson diagonalization with overlap
     ethr =  1.99E-08,  avg # of iterations =  1.0

     total cpu time spent up to now is       69.2 secs

     total energy              =    -190.21300726 Ry
     Harris-Foulkes estimate   =    -190.21300833 Ry
     estimated scf accuracy    <       0.00000148 Ry

     iteration #  7     ecut=    40.00 Ry     beta=0.70
     Davidson diagonalization with overlap
     ethr =  8.23E-09,  avg # of iterations =  2.0

     total cpu time spent up to now is       69.4 secs

     total energy              =    -190.21300767 Ry
     Harris-Foulkes estimate   =    -190.21300768 Ry
     estimated scf accuracy    <       0.00000003 Ry

     iteration #  8     ecut=    40.00 Ry     beta=0.70
     Davidson diagonalization with overlap
     ethr =  1.58E-10,  avg # of iterations =  2.0

     total cpu time spent up to now is       69.7 secs

     total energy              =    -190.21300767 Ry
     Harris-Foulkes estimate   =    -190.21300767 Ry
     estimated scf accuracy    <          2.5E-09 Ry

     iteration #  9     ecut=    40.00 Ry     beta=0.70
     Davidson diagonalization with overlap
     ethr =  1.39E-11,  avg # of iterations =  1.2

     total cpu time spent up to now is       69.9 secs

     total energy              =    -190.21300767 Ry
     Harris-Foulkes estimate   =    -190.21300767 Ry
     estimated scf accuracy    <          1.8E-09 Ry

     iteration # 10     ecut=    40.00 Ry     beta=0.70
     Davidson diagonalization with overlap
     ethr =  9.89E-12,  avg # of iterations =  2.0

     total cpu time spent up to now is       70.1 secs

     End of self-consistent calculation

     Number of k-points >= 100: set verbosity='high' to print the bands.

     the Fermi energy is     1.7689 ev

!    total energy              =    -190.21300767 Ry
     Harris-Foulkes estimate   =    -190.21300767 Ry
     estimated scf accuracy    <          2.0E-10 Ry

     The total energy is the sum of the following terms:

     one-electron contribution =    -174.59915107 Ry
     hartree contribution      =      88.15659924 Ry
     xc contribution           =     -28.54719437 Ry
     ewald contribution        =     -75.22313390 Ry
     smearing contrib. (-TS)   =      -0.00012757 Ry

     convergence has been achieved in  10 iterations

     Forces acting on atoms (Ry/au):

     atom    1 type  1   force =     0.00000000    0.00000000    0.00000000
     atom    2 type  1   force =     0.00000000    0.00000000    0.00000000

     Total force =     0.000000     Total SCF correction =     0.000000


     entering subroutine stress ...

          total   stress  (Ry/bohr**3)                   (kbar)     P=    0.50
   0.00000334   0.00000000  -0.00000000          0.49      0.00     -0.00
   0.00000000   0.00000334   0.00000000          0.00      0.49      0.00
   0.00000000   0.00000000   0.00000358          0.00      0.00      0.53


     bfgs converged in  12 scf cycles and  11 bfgs steps
     (criteria: energy <  1.0E-04, force <  1.0E-03, cell <  5.0E-02)

     End of BFGS Geometry Optimization

     Final enthalpy =    -190.2113718732 Ry
Begin final coordinates
     new unit-cell volume =    481.26846 a.u.^3 (    71.31663 Ang^3 )

CELL_PARAMETERS (alat=  6.99385000)
   0.998517535   0.000000000   0.000000000
  -0.499258768   0.864741551  -0.000000000
   0.000000000  -0.000000000   1.629282661

ATOMIC_POSITIONS (crystal)
Na       0.000000000   0.000000000  -0.000000000
Na       0.666666000   0.333333000   0.500000000
End final coordinates



     A final scf calculation at the relaxed structure.
     The G-vectors are recalculated for the final unit cell
     Results may differ from those at the preceding step.
 
     Parallelization info
     --------------------
     sticks:   dense  smooth     PW     G-vecs:    dense   smooth      PW
     Min         133      68     20                 5813     2041     346
     Max         134      69     21                 5820     2054     351
     Sum        1069     547    163                46541    16395    2779
 


     bravais-lattice index     =            4
     lattice parameter (alat)  =       6.9939  a.u.
     unit-cell volume          =     481.2685 (a.u.)^3
     number of atoms/cell      =            2
     number of atomic types    =            1
     number of electrons       =        18.00
     number of Kohn-Sham states=           13
     kinetic-energy cutoff     =      40.0000  Ry
     charge density cutoff     =     320.0000  Ry
     convergence threshold     =      1.0E-09
     mixing beta               =       0.7000
     number of iterations used =            8  plain     mixing
     Exchange-correlation      = SLA  PW   PBE  PBE ( 1  4  3  4 0 0)

     celldm(1)=   6.993850  celldm(2)=   0.000000  celldm(3)=   1.630460
     celldm(4)=   0.000000  celldm(5)=   0.000000  celldm(6)=   0.000000

     crystal axes: (cart. coord. in units of alat)
               a(1) = (   0.998518   0.000000   0.000000 )  
               a(2) = (  -0.499259   0.864742  -0.000000 )  
               a(3) = (   0.000000  -0.000000   1.629283 )  

     reciprocal axes: (cart. coord. in units 2 pi/alat)
               b(1) = (  1.001485  0.578207  0.000000 )  
               b(2) = ( -0.000000  1.156415  0.000000 )  
               b(3) = ( -0.000000  0.000000  0.613767 )  


     PseudoPot. # 1 for Na read from file:
     ./Na_pbe_v1.uspp.F.UPF
     MD5 check sum: 76a99c7e9422403d3e93cbc85ab7bccb
     Pseudo is Ultrasoft, Zval =  9.0
     Generated by new atomic code, or converted to UPF format
     Using radial grid of  819 points,  5 beta functions with: 
                l(1) =   0
                l(2) =   0
                l(3) =   1
                l(4) =   1
                l(5) =   2
     Q(r) pseudized with  8 coefficients,  rinner =    1.250   1.250   1.250
                                                       1.250   1.250

     atomic species   valence    mass     pseudopotential
        Na             9.00    22.99000     Na( 1.00)

     12 Sym. Ops. (no inversion) found
          (note: 12 additional sym.ops. were found but ignored
           their fractional translations are incommensurate with FFT grid)


   Cartesian axes

     site n.     atom                  positions (alat units)
         1           Na  tau(   1) = (   0.0000000   0.0000000  -0.0000000  )
         2           Na  tau(   2) = (   0.4992583   0.2882469   0.8146413  )

     number of k points=   366  Marzari-Vanderbilt smearing, width (Ry)=  0.0200

     Number of k-points >= 100: set verbosity='high' to print them.

     Dense  grid:    46541 G-vectors     FFT dimensions: (  40,  40,  72)

     Smooth grid:    16395 G-vectors     FFT dimensions: (  30,  30,  45)

     Largest allocated arrays     est. size (Mb)     dimensions
        Kohn-Sham Wavefunctions         0.05 Mb     (     274,   13)
        NL pseudopotentials             0.11 Mb     (     274,   26)
        Each V/rho on FFT grid          0.22 Mb     (   14400)
        Each G-vector array             0.04 Mb     (    5815)
        G-vector shells                 0.01 Mb     (    1718)
     Largest temporary arrays     est. size (Mb)     dimensions
        Auxiliary wavefunctions         0.22 Mb     (     274,   52)
        Each subspace H/S matrix        0.01 Mb     (      26,   26)
        Each <psi_i|beta_j> matrix      0.01 Mb     (      26,   13)
        Arrays for rho mixing           1.76 Mb     (   14400,    8)

     Initial potential from superposition of free atoms

     starting charge   17.98742, renormalised to   18.00000
     Starting wfc are   10 randomized atomic wfcs +    3 random wfc

     Writing output data file na_hcp_0.5$.save

     total cpu time spent up to now is       73.6 secs

     per-process dynamical memory:    21.7 Mb

     Self-consistent Calculation

     iteration #  1     ecut=    40.00 Ry     beta=0.70
     Davidson diagonalization with overlap
     c_bands:  1 eigenvalues not converged
     c_bands:  1 eigenvalues not converged
     c_bands:  1 eigenvalues not converged
     c_bands:  1 eigenvalues not converged
     c_bands:  1 eigenvalues not converged
     c_bands:  1 eigenvalues not converged
     ethr =  1.00E-06,  avg # of iterations = 13.2

     total cpu time spent up to now is       74.7 secs

     total energy              =    -190.21273941 Ry
     Harris-Foulkes estimate   =    -190.21319689 Ry
     estimated scf accuracy    <       0.00177972 Ry

     iteration #  2     ecut=    40.00 Ry     beta=0.70
     Davidson diagonalization with overlap
     ethr =  9.89E-06,  avg # of iterations =  2.0

     total cpu time spent up to now is       75.0 secs

     total energy              =    -190.21295107 Ry
     Harris-Foulkes estimate   =    -190.21299767 Ry
     estimated scf accuracy    <       0.00020002 Ry

     iteration #  3     ecut=    40.00 Ry     beta=0.70
     Davidson diagonalization with overlap
     ethr =  1.11E-06,  avg # of iterations =  2.0

     total cpu time spent up to now is       75.2 secs

     total energy              =    -190.21297186 Ry
     Harris-Foulkes estimate   =    -190.21297457 Ry
     estimated scf accuracy    <       0.00001275 Ry

     iteration #  4     ecut=    40.00 Ry     beta=0.70
     Davidson diagonalization with overlap
     ethr =  7.08E-08,  avg # of iterations =  1.6

     total cpu time spent up to now is       75.4 secs

     total energy              =    -190.21297307 Ry
     Harris-Foulkes estimate   =    -190.21297298 Ry
     estimated scf accuracy    <       0.00000002 Ry

     iteration #  5     ecut=    40.00 Ry     beta=0.70
     Davidson diagonalization with overlap
     ethr =  1.16E-10,  avg # of iterations =  3.1

     total cpu time spent up to now is       75.7 secs

     total energy              =    -190.21297316 Ry
     Harris-Foulkes estimate   =    -190.21297315 Ry
     estimated scf accuracy    <          4.6E-09 Ry

     iteration #  6     ecut=    40.00 Ry     beta=0.70
     Davidson diagonalization with overlap
     ethr =  2.55E-11,  avg # of iterations =  1.8

     total cpu time spent up to now is       75.9 secs

     End of self-consistent calculation

     Number of k-points >= 100: set verbosity='high' to print the bands.

     the Fermi energy is     1.7689 ev

!    total energy              =    -190.21297316 Ry
     Harris-Foulkes estimate   =    -190.21297316 Ry
     estimated scf accuracy    <          2.9E-11 Ry

     The total energy is the sum of the following terms:

     one-electron contribution =    -174.59904279 Ry
     hartree contribution      =      88.15649982 Ry
     xc contribution           =     -28.54716872 Ry
     ewald contribution        =     -75.22313390 Ry
     smearing contrib. (-TS)   =      -0.00012756 Ry

     convergence has been achieved in   6 iterations

     Forces acting on atoms (Ry/au):

     atom    1 type  1   force =     0.00000000    0.00000000    0.00000000
     atom    2 type  1   force =     0.00000000    0.00000000    0.00000000

     Total force =     0.000000     Total SCF correction =     0.000000


     entering subroutine stress ...

          total   stress  (Ry/bohr**3)                   (kbar)     P=    0.38
   0.00000244   0.00000000  -0.00000000          0.36      0.00     -0.00
   0.00000000   0.00000244   0.00000000          0.00      0.36      0.00
  -0.00000000   0.00000000   0.00000280         -0.00      0.00      0.41


     Writing output data file na_hcp_0.5$.save
 
     init_run     :      0.41s CPU      0.44s WALL (       2 calls)
     electrons    :     22.07s CPU     23.44s WALL (      13 calls)
     update_pot   :      1.52s CPU      1.69s WALL (      11 calls)
     forces       :      0.80s CPU      0.81s WALL (      13 calls)
     stress       :      2.22s CPU      2.23s WALL (      13 calls)

     Called by init_run:
     wfcinit      :      0.10s CPU      0.11s WALL (       2 calls)
     potinit      :      0.07s CPU      0.08s WALL (       2 calls)

     Called by electrons:
     c_bands      :     15.89s CPU     16.98s WALL (      99 calls)
     sum_band     :      4.22s CPU      4.27s WALL (      99 calls)
     v_of_rho     :      0.73s CPU      0.76s WALL (     103 calls)
     newd         :      1.05s CPU      1.06s WALL (     103 calls)
     mix_rho      :      0.08s CPU      0.07s WALL (      99 calls)

     Called by c_bands:
     init_us_2    :      0.17s CPU      0.24s WALL (    3616 calls)
     cegterg      :     14.46s CPU     14.79s WALL (    1584 calls)

     Called by sum_band:
     sum_band:bec :      0.02s CPU      0.02s WALL (    1584 calls)
     addusdens    :      1.74s CPU      1.75s WALL (      99 calls)

     Called by *egterg:
     h_psi        :      8.02s CPU      8.37s WALL (    4812 calls)
     s_psi        :      0.20s CPU      0.27s WALL (    4812 calls)
     g_psi        :      0.07s CPU      0.06s WALL (    3196 calls)
     cdiaghg      :      4.48s CPU      4.45s WALL (    4460 calls)

     Called by h_psi:
     add_vuspsi   :      0.30s CPU      0.28s WALL (    4812 calls)

     General routines
     calbec       :      0.49s CPU      0.57s WALL (    7436 calls)
     fft          :      0.41s CPU      0.44s WALL (    1747 calls)
     ffts         :      0.01s CPU      0.02s WALL (     202 calls)
     fftw         :      7.78s CPU      8.02s WALL (  121926 calls)
     interpolate  :      0.06s CPU      0.08s WALL (     202 calls)
 
     Parallel routines
     fft_scatter  :      3.00s CPU      3.10s WALL (  123875 calls)
 
     PWSCF        :  0m32.47s CPU     1m32.61s WALL

 
   This run was terminated on:  16:52:59  26Mar2018            

=------------------------------------------------------------------------------=
   JOB DONE.
=------------------------------------------------------------------------------=
Application 30366777 resources: utime ~17650s, stime ~96s, Rss ~38032, inblocks ~1452766, outblocks ~1819026
