
     Program PWSCF v.5.4.0 starts on 26Mar2018 at 16:50:24 

     This program is part of the open-source Quantum ESPRESSO suite
     for quantum simulation of materials; please cite
         "P. Giannozzi et al., J. Phys.:Condens. Matter 21 395502 (2009);
          URL http://www.quantum-espresso.org", 
     in publications or presentations arising from this work. More details at
     http://www.quantum-espresso.org/quote

     Parallel version (MPI & OpenMP), running on     192 processor cores
     Number of MPI processes:               192
     Threads/MPI process:                     1
     K-points division:     npool     =      24
     R & G space division:  proc/nbgrp/npool/nimage =       8
     Waiting for input...
     Reading input from standard input

     Current dimensions of program PWSCF are:
     Max number of different atomic species (ntypx) = 10
     Max number of k-points (npk) =  40000
     Max angular momentum in pseudopotentials (lmaxx) =  3

     Subspace diagonalization in iterative solution of the eigenvalue problem:
     one sub-group per band group will be used
     scalapack distributed-memory algorithm (size of sub-group:  2*  2 procs)

 
     Parallelization info
     --------------------
     sticks:   dense  smooth     PW     G-vecs:    dense   smooth      PW
     Min         133      68     20                 5835     2056     346
     Max         134      69     21                 5844     2068     351
     Sum        1069     547    163                46721    16503    2779
 


     bravais-lattice index     =            4
     lattice parameter (alat)  =       6.9939  a.u.
     unit-cell volume          =     483.0474 (a.u.)^3
     number of atoms/cell      =            2
     number of atomic types    =            1
     number of electrons       =        18.00
     number of Kohn-Sham states=           13
     kinetic-energy cutoff     =      40.0000  Ry
     charge density cutoff     =     320.0000  Ry
     convergence threshold     =      1.0E-07
     mixing beta               =       0.7000
     number of iterations used =            8  plain     mixing
     Exchange-correlation      = SLA  PW   PBE  PBE ( 1  4  3  4 0 0)
     nstep                     =           50


     celldm(1)=   6.993850  celldm(2)=   0.000000  celldm(3)=   1.630460
     celldm(4)=   0.000000  celldm(5)=   0.000000  celldm(6)=   0.000000

     crystal axes: (cart. coord. in units of alat)
               a(1) = (   1.000000   0.000000   0.000000 )  
               a(2) = (  -0.500000   0.866025   0.000000 )  
               a(3) = (   0.000000   0.000000   1.630460 )  

     reciprocal axes: (cart. coord. in units 2 pi/alat)
               b(1) = (  1.000000  0.577350  0.000000 )  
               b(2) = (  0.000000  1.154701  0.000000 )  
               b(3) = (  0.000000  0.000000  0.613324 )  


     PseudoPot. # 1 for Na read from file:
     ./Na_pbe_v1.uspp.F.UPF
     MD5 check sum: 76a99c7e9422403d3e93cbc85ab7bccb
     Pseudo is Ultrasoft, Zval =  9.0
     Generated by new atomic code, or converted to UPF format
     Using radial grid of  819 points,  5 beta functions with: 
                l(1) =   0
                l(2) =   0
                l(3) =   1
                l(4) =   1
                l(5) =   2
     Q(r) pseudized with  8 coefficients,  rinner =    1.250   1.250   1.250
                                                       1.250   1.250

     atomic species   valence    mass     pseudopotential
        Na             9.00    22.99000     Na( 1.00)

     12 Sym. Ops. (no inversion) found
          (note: 12 additional sym.ops. were found but ignored
           their fractional translations are incommensurate with FFT grid)


   Cartesian axes

     site n.     atom                  positions (alat units)
         1           Na  tau(   1) = (   0.0000000   0.0000000   0.0000000  )
         2           Na  tau(   2) = (   0.4999995   0.2886748   0.8152300  )

     number of k points=   366  Marzari-Vanderbilt smearing, width (Ry)=  0.0200

     Number of k-points >= 100: set verbosity='high' to print them.

     Dense  grid:    46721 G-vectors     FFT dimensions: (  40,  40,  72)

     Smooth grid:    16503 G-vectors     FFT dimensions: (  30,  30,  45)

     Largest allocated arrays     est. size (Mb)     dimensions
        Kohn-Sham Wavefunctions         0.05 Mb     (     276,   13)
        NL pseudopotentials             0.11 Mb     (     276,   26)
        Each V/rho on FFT grid          0.22 Mb     (   14400)
        Each G-vector array             0.04 Mb     (    5844)
        G-vector shells                 0.04 Mb     (    5844)
     Largest temporary arrays     est. size (Mb)     dimensions
        Auxiliary wavefunctions         0.22 Mb     (     276,   52)
        Each subspace H/S matrix        0.01 Mb     (      26,   26)
        Each <psi_i|beta_j> matrix      0.01 Mb     (      26,   13)
        Arrays for rho mixing           1.76 Mb     (   14400,    8)

     Initial potential from superposition of free atoms

     starting charge   17.98742, renormalised to   18.00000
     Starting wfc are   10 randomized atomic wfcs +    3 random wfc

     total cpu time spent up to now is        0.4 secs

     per-process dynamical memory:    12.2 Mb

     Self-consistent Calculation

     iteration #  1     ecut=    40.00 Ry     beta=0.70
     Davidson diagonalization with overlap
     ethr =  1.00E-02,  avg # of iterations =  5.8

     Threshold (ethr) on eigenvalues was too large:
     Diagonalizing with lowered threshold

     Davidson diagonalization with overlap
     ethr =  9.43E-06,  avg # of iterations =  6.8

     total cpu time spent up to now is        1.3 secs

     total energy              =    -190.21279650 Ry
     Harris-Foulkes estimate   =    -190.21322628 Ry
     estimated scf accuracy    <       0.00175415 Ry

     iteration #  2     ecut=    40.00 Ry     beta=0.70
     Davidson diagonalization with overlap
     ethr =  9.75E-06,  avg # of iterations =  2.0

     total cpu time spent up to now is        1.5 secs

     total energy              =    -190.21299067 Ry
     Harris-Foulkes estimate   =    -190.21302957 Ry
     estimated scf accuracy    <       0.00018752 Ry

     iteration #  3     ecut=    40.00 Ry     beta=0.70
     Davidson diagonalization with overlap
     ethr =  1.04E-06,  avg # of iterations =  2.0

     total cpu time spent up to now is        1.8 secs

     total energy              =    -190.21300907 Ry
     Harris-Foulkes estimate   =    -190.21301156 Ry
     estimated scf accuracy    <       0.00001179 Ry

     iteration #  4     ecut=    40.00 Ry     beta=0.70
     Davidson diagonalization with overlap
     ethr =  6.55E-08,  avg # of iterations =  2.0

     total cpu time spent up to now is        2.0 secs

     End of self-consistent calculation

     Number of k-points >= 100: set verbosity='high' to print the bands.

     the Fermi energy is     1.7531 ev

!    total energy              =    -190.21301033 Ry
     Harris-Foulkes estimate   =    -190.21301022 Ry
     estimated scf accuracy    <       0.00000002 Ry

     The total energy is the sum of the following terms:

     one-electron contribution =    -174.76112389 Ry
     hartree contribution      =      88.22503611 Ry
     xc contribution           =     -28.54616021 Ry
     ewald contribution        =     -75.13063452 Ry
     smearing contrib. (-TS)   =      -0.00012781 Ry

     convergence has been achieved in   4 iterations

     Forces acting on atoms (Ry/au):

     atom    1 type  1   force =    -0.00000000   -0.00000000    0.00000000
     atom    2 type  1   force =     0.00000000    0.00000000    0.00000000

     Total force =     0.000000     Total SCF correction =     0.000001


     entering subroutine stress ...

          total   stress  (Ry/bohr**3)                   (kbar)     P=    0.14
   0.00000068   0.00000000   0.00000000          0.10      0.00      0.00
   0.00000000   0.00000068  -0.00000000          0.00      0.10     -0.00
   0.00000000   0.00000000   0.00000160          0.00      0.00      0.24


     BFGS Geometry Optimization

     number of scf cycles    =   1
     number of bfgs steps    =   0

     enthalpy new            =    -190.2123535897 Ry

     new trust radius        =       0.0000748764 bohr
     new conv_thr            =       0.0000001000 Ry

     new unit-cell volume =    483.03379 a.u.^3 (    71.57822 Ang^3 )

CELL_PARAMETERS (alat=  6.99385000)
   0.999982966   0.000000000   0.000000000
  -0.499991483   0.866010652   0.000000000
   0.000000000  -0.000000000   1.630469721

ATOMIC_POSITIONS (crystal)
Na      -0.000000000  -0.000000000   0.000000000
Na       0.666666000   0.333333000   0.500000000



     Writing output data file na_hcp_0.2$.save
     NEW-OLD atomic charge density approx. for the potential
     extrapolated charge   17.99949, renormalised to   18.00000

     total cpu time spent up to now is        6.3 secs

     per-process dynamical memory:    23.1 Mb

     Self-consistent Calculation

     iteration #  1     ecut=    40.00 Ry     beta=0.70
     Davidson diagonalization with overlap
     ethr =  1.00E-06,  avg # of iterations =  2.0

     Threshold (ethr) on eigenvalues was too large:
     Diagonalizing with lowered threshold

     Davidson diagonalization with overlap
     ethr =  2.76E-10,  avg # of iterations =  2.1

     total cpu time spent up to now is        6.8 secs

     End of self-consistent calculation

     Number of k-points >= 100: set verbosity='high' to print the bands.

     the Fermi energy is     1.7531 ev

!    total energy              =    -190.21301029 Ry
     Harris-Foulkes estimate   =    -190.21692469 Ry
     estimated scf accuracy    <       0.00000005 Ry

     The total energy is the sum of the following terms:

     one-electron contribution =    -174.76306891 Ry
     hartree contribution      =      88.22839163 Ry
     xc contribution           =     -28.54686529 Ry
     ewald contribution        =     -75.13133994 Ry
     smearing contrib. (-TS)   =      -0.00012779 Ry

     convergence has been achieved in   1 iterations

     Forces acting on atoms (Ry/au):

     atom    1 type  1   force =     0.00000000    0.00000000    0.00000000
     atom    2 type  1   force =     0.00000000    0.00000000    0.00000000

     Total force =     0.000000     Total SCF correction =     0.000000


     entering subroutine stress ...

          total   stress  (Ry/bohr**3)                   (kbar)     P=    3.00
   0.00002011  -0.00000000  -0.00000000          2.96     -0.00     -0.00
  -0.00000000   0.00002011   0.00000000         -0.00      2.96      0.00
   0.00000000   0.00000000   0.00002104          0.00      0.00      3.10


     number of scf cycles    =   2
     number of bfgs steps    =   1

     enthalpy old            =    -190.2123535897 Ry
     enthalpy new            =    -190.2123535755 Ry

     CASE: enthalpy_new > enthalpy_old

     new trust radius        =       0.0000170694 bohr

     trust_radius < trust_radius_min

     resetting bfgs history

     new conv_thr            =       0.0000001000 Ry

     new unit-cell volume =    483.03379 a.u.^3 (    71.57822 Ang^3 )

CELL_PARAMETERS (alat=  6.99385000)
   0.999982966  -0.000000000   0.000000000
  -0.499991483   0.866010652  -0.000000000
   0.000000000  -0.000000000   1.630469722

ATOMIC_POSITIONS (crystal)
Na      -0.000000000  -0.000000000   0.000000000
Na       0.666666000   0.333333000   0.500000000



     Writing output data file na_hcp_0.2$.save
     NEW-OLD atomic charge density approx. for the potential

     total cpu time spent up to now is       10.8 secs

     per-process dynamical memory:    23.1 Mb

     Self-consistent Calculation

     iteration #  1     ecut=    40.00 Ry     beta=0.70
     Davidson diagonalization with overlap
     ethr =  1.00E-06,  avg # of iterations =  1.0

     Threshold (ethr) on eigenvalues was too large:
     Diagonalizing with lowered threshold

     Davidson diagonalization with overlap
     ethr =  8.09E-10,  avg # of iterations =  2.0

     total cpu time spent up to now is       11.1 secs

     total energy              =    -190.21301034 Ry
     Harris-Foulkes estimate   =    -190.21301046 Ry
     estimated scf accuracy    <       0.00000016 Ry

     iteration #  2     ecut=    40.00 Ry     beta=0.70
     Davidson diagonalization with overlap
     ethr =  8.74E-10,  avg # of iterations =  2.0

     total cpu time spent up to now is       11.4 secs

     End of self-consistent calculation

     Number of k-points >= 100: set verbosity='high' to print the bands.

     the Fermi energy is     1.7530 ev

!    total energy              =    -190.21301038 Ry
     Harris-Foulkes estimate   =    -190.21301039 Ry
     estimated scf accuracy    <       0.00000001 Ry

     The total energy is the sum of the following terms:

     one-electron contribution =    -174.76075211 Ry
     hartree contribution      =      88.22556375 Ry
     xc contribution           =     -28.54635429 Ry
     ewald contribution        =     -75.13133992 Ry
     smearing contrib. (-TS)   =      -0.00012780 Ry

     convergence has been achieved in   2 iterations

     Forces acting on atoms (Ry/au):

     atom    1 type  1   force =     0.00000000    0.00000000   -0.00000000
     atom    2 type  1   force =     0.00000000    0.00000000   -0.00000000

     Total force =     0.000000     Total SCF correction =     0.000000


     entering subroutine stress ...

          total   stress  (Ry/bohr**3)                   (kbar)     P=    0.67
   0.00000424   0.00000000  -0.00000000          0.62      0.00     -0.00
   0.00000000   0.00000424   0.00000000          0.00      0.62      0.00
  -0.00000000   0.00000000   0.00000519         -0.00      0.00      0.76


     number of scf cycles    =   3
     number of bfgs steps    =   1

     enthalpy old            =    -190.2123535897 Ry
     enthalpy new            =    -190.2123536604 Ry

     CASE: enthalpy_new < enthalpy_old

     Message from routine bfgs:
     history already reset at previous step: stopping
     small trust_radius: resetting bfgs history

     new trust radius        =       0.0001000000 bohr
     new conv_thr            =       0.0000000010 Ry

     new unit-cell volume =    483.06134 a.u.^3 (    71.58230 Ang^3 )

CELL_PARAMETERS (alat=  6.99385000)
   1.000000100  -0.000000000  -0.000000000
  -0.500000050   0.866025490   0.000000000
   0.000000000  -0.000000000   1.630506815

ATOMIC_POSITIONS (crystal)
Na      -0.000000000  -0.000000000   0.000000000
Na       0.666666000   0.333333000   0.500000000



     Writing output data file na_hcp_0.2$.save
     NEW-OLD atomic charge density approx. for the potential
     extrapolated charge   18.00103, renormalised to   18.00000

     total cpu time spent up to now is       15.2 secs

     per-process dynamical memory:    23.1 Mb

     Self-consistent Calculation

     iteration #  1     ecut=    40.00 Ry     beta=0.70
     Davidson diagonalization with overlap
     ethr =  1.00E-06,  avg # of iterations =  2.0

     Threshold (ethr) on eigenvalues was too large:
     Diagonalizing with lowered threshold

     Davidson diagonalization with overlap
     ethr =  1.57E-09,  avg # of iterations =  1.0

     total cpu time spent up to now is       15.6 secs

     total energy              =    -190.21300998 Ry
     Harris-Foulkes estimate   =    -190.20506974 Ry
     estimated scf accuracy    <       0.00000028 Ry

     iteration #  2     ecut=    40.00 Ry     beta=0.70
     Davidson diagonalization with overlap
     ethr =  1.57E-09,  avg # of iterations =  3.0

     total cpu time spent up to now is       15.9 secs

     total energy              =    -190.21301039 Ry
     Harris-Foulkes estimate   =    -190.21301056 Ry
     estimated scf accuracy    <       0.00000036 Ry

     iteration #  3     ecut=    40.00 Ry     beta=0.70
     Davidson diagonalization with overlap
     ethr =  1.57E-09,  avg # of iterations =  2.0

     total cpu time spent up to now is       16.1 secs

     total energy              =    -190.21301041 Ry
     Harris-Foulkes estimate   =    -190.21301042 Ry
     estimated scf accuracy    <       0.00000006 Ry

     iteration #  4     ecut=    40.00 Ry     beta=0.70
     Davidson diagonalization with overlap
     ethr =  3.11E-10,  avg # of iterations =  1.0

     total cpu time spent up to now is       16.3 secs

     total energy              =    -190.21301040 Ry
     Harris-Foulkes estimate   =    -190.21301041 Ry
     estimated scf accuracy    <       0.00000003 Ry

     iteration #  5     ecut=    40.00 Ry     beta=0.70
     Davidson diagonalization with overlap
     ethr =  1.56E-10,  avg # of iterations =  1.0

     total cpu time spent up to now is       16.5 secs

     total energy              =    -190.21301040 Ry
     Harris-Foulkes estimate   =    -190.21301040 Ry
     estimated scf accuracy    <       0.00000001 Ry

     iteration #  6     ecut=    40.00 Ry     beta=0.70
     Davidson diagonalization with overlap
     ethr =  7.92E-11,  avg # of iterations =  1.0

     total cpu time spent up to now is       16.7 secs

     total energy              =    -190.21301039 Ry
     Harris-Foulkes estimate   =    -190.21301040 Ry
     estimated scf accuracy    <          2.6E-09 Ry

     iteration #  7     ecut=    40.00 Ry     beta=0.70
     Davidson diagonalization with overlap
     ethr =  1.43E-11,  avg # of iterations =  2.0

     total cpu time spent up to now is       16.9 secs

     End of self-consistent calculation

     Number of k-points >= 100: set verbosity='high' to print the bands.

     the Fermi energy is     1.7528 ev

!    total energy              =    -190.21301040 Ry
     Harris-Foulkes estimate   =    -190.21301040 Ry
     estimated scf accuracy    <          5.5E-13 Ry

     The total energy is the sum of the following terms:

     one-electron contribution =    -174.76259521 Ry
     hartree contribution      =      88.22581417 Ry
     xc contribution           =     -28.54618919 Ry
     ewald contribution        =     -75.12991237 Ry
     smearing contrib. (-TS)   =      -0.00012780 Ry

     convergence has been achieved in   7 iterations

     Forces acting on atoms (Ry/au):

     atom    1 type  1   force =     0.00000000    0.00000000    0.00000000
     atom    2 type  1   force =     0.00000000    0.00000000   -0.00000000

     Total force =     0.000000     Total SCF correction =     0.000000


     entering subroutine stress ...

          total   stress  (Ry/bohr**3)                   (kbar)     P=    0.04
  -0.00000001  -0.00000000   0.00000000         -0.00     -0.00      0.00
  -0.00000000  -0.00000001  -0.00000000         -0.00     -0.00     -0.00
   0.00000000  -0.00000000   0.00000093          0.00     -0.00      0.14


     bfgs converged in   4 scf cycles and   2 bfgs steps
     (criteria: energy <  1.0E-04, force <  1.0E-03, cell <  5.0E-02)

     End of BFGS Geometry Optimization

     Final enthalpy =    -190.2123536381 Ry
Begin final coordinates
     new unit-cell volume =    483.06134 a.u.^3 (    71.58230 Ang^3 )

CELL_PARAMETERS (alat=  6.99385000)
   1.000000100  -0.000000000  -0.000000000
  -0.500000050   0.866025490   0.000000000
   0.000000000  -0.000000000   1.630506815

ATOMIC_POSITIONS (crystal)
Na      -0.000000000  -0.000000000   0.000000000
Na       0.666666000   0.333333000   0.500000000
End final coordinates



     A final scf calculation at the relaxed structure.
     The G-vectors are recalculated for the final unit cell
     Results may differ from those at the preceding step.
 
     Parallelization info
     --------------------
     sticks:   dense  smooth     PW     G-vecs:    dense   smooth      PW
     Min         133      68     20                 5835     2056     346
     Max         134      69     21                 5844     2068     351
     Sum        1069     547    163                46721    16503    2779
 


     bravais-lattice index     =            4
     lattice parameter (alat)  =       6.9939  a.u.
     unit-cell volume          =     483.0613 (a.u.)^3
     number of atoms/cell      =            2
     number of atomic types    =            1
     number of electrons       =        18.00
     number of Kohn-Sham states=           13
     kinetic-energy cutoff     =      40.0000  Ry
     charge density cutoff     =     320.0000  Ry
     convergence threshold     =      1.0E-09
     mixing beta               =       0.7000
     number of iterations used =            8  plain     mixing
     Exchange-correlation      = SLA  PW   PBE  PBE ( 1  4  3  4 0 0)

     celldm(1)=   6.993850  celldm(2)=   0.000000  celldm(3)=   1.630460
     celldm(4)=   0.000000  celldm(5)=   0.000000  celldm(6)=   0.000000

     crystal axes: (cart. coord. in units of alat)
               a(1) = (   1.000000  -0.000000  -0.000000 )  
               a(2) = (  -0.500000   0.866025   0.000000 )  
               a(3) = (   0.000000  -0.000000   1.630507 )  

     reciprocal axes: (cart. coord. in units 2 pi/alat)
               b(1) = (  1.000000  0.577350 -0.000000 )  
               b(2) = (  0.000000  1.154700  0.000000 )  
               b(3) = (  0.000000 -0.000000  0.613306 )  


     PseudoPot. # 1 for Na read from file:
     ./Na_pbe_v1.uspp.F.UPF
     MD5 check sum: 76a99c7e9422403d3e93cbc85ab7bccb
     Pseudo is Ultrasoft, Zval =  9.0
     Generated by new atomic code, or converted to UPF format
     Using radial grid of  819 points,  5 beta functions with: 
                l(1) =   0
                l(2) =   0
                l(3) =   1
                l(4) =   1
                l(5) =   2
     Q(r) pseudized with  8 coefficients,  rinner =    1.250   1.250   1.250
                                                       1.250   1.250

     atomic species   valence    mass     pseudopotential
        Na             9.00    22.99000     Na( 1.00)

     12 Sym. Ops. (no inversion) found
          (note: 12 additional sym.ops. were found but ignored
           their fractional translations are incommensurate with FFT grid)


   Cartesian axes

     site n.     atom                  positions (alat units)
         1           Na  tau(   1) = (  -0.0000000  -0.0000000   0.0000000  )
         2           Na  tau(   2) = (   0.4999995   0.2886749   0.8152534  )

     number of k points=   366  Marzari-Vanderbilt smearing, width (Ry)=  0.0200

     Number of k-points >= 100: set verbosity='high' to print them.

     Dense  grid:    46721 G-vectors     FFT dimensions: (  40,  40,  72)

     Smooth grid:    16503 G-vectors     FFT dimensions: (  30,  30,  45)

     Largest allocated arrays     est. size (Mb)     dimensions
        Kohn-Sham Wavefunctions         0.05 Mb     (     276,   13)
        NL pseudopotentials             0.11 Mb     (     276,   26)
        Each V/rho on FFT grid          0.22 Mb     (   14400)
        Each G-vector array             0.04 Mb     (    5844)
        G-vector shells                 0.01 Mb     (    1763)
     Largest temporary arrays     est. size (Mb)     dimensions
        Auxiliary wavefunctions         0.22 Mb     (     276,   52)
        Each subspace H/S matrix        0.01 Mb     (      26,   26)
        Each <psi_i|beta_j> matrix      0.01 Mb     (      26,   13)
        Arrays for rho mixing           1.76 Mb     (   14400,    8)

     Initial potential from superposition of free atoms

     starting charge   17.98742, renormalised to   18.00000
     Starting wfc are   10 randomized atomic wfcs +    3 random wfc

     Writing output data file na_hcp_0.2$.save

     total cpu time spent up to now is       22.4 secs

     per-process dynamical memory:    21.7 Mb

     Self-consistent Calculation

     iteration #  1     ecut=    40.00 Ry     beta=0.70
     Davidson diagonalization with overlap
     c_bands:  1 eigenvalues not converged
     c_bands:  1 eigenvalues not converged
     c_bands:  1 eigenvalues not converged
     c_bands:  1 eigenvalues not converged
     c_bands:  1 eigenvalues not converged
     ethr =  1.00E-06,  avg # of iterations = 13.2

     total cpu time spent up to now is       23.2 secs

     total energy              =    -190.21277723 Ry
     Harris-Foulkes estimate   =    -190.21322800 Ry
     estimated scf accuracy    <       0.00177646 Ry

     iteration #  2     ecut=    40.00 Ry     beta=0.70
     Davidson diagonalization with overlap
     ethr =  9.87E-06,  avg # of iterations =  2.0

     total cpu time spent up to now is       23.5 secs

     total energy              =    -190.21298847 Ry
     Harris-Foulkes estimate   =    -190.21303454 Ry
     estimated scf accuracy    <       0.00019960 Ry

     iteration #  3     ecut=    40.00 Ry     beta=0.70
     Davidson diagonalization with overlap
     ethr =  1.11E-06,  avg # of iterations =  2.0

     total cpu time spent up to now is       23.7 secs

     total energy              =    -190.21300922 Ry
     Harris-Foulkes estimate   =    -190.21301190 Ry
     estimated scf accuracy    <       0.00001274 Ry

     iteration #  4     ecut=    40.00 Ry     beta=0.70
     Davidson diagonalization with overlap
     ethr =  7.08E-08,  avg # of iterations =  1.7

     total cpu time spent up to now is       23.9 secs

     total energy              =    -190.21301044 Ry
     Harris-Foulkes estimate   =    -190.21301034 Ry
     estimated scf accuracy    <       0.00000002 Ry

     iteration #  5     ecut=    40.00 Ry     beta=0.70
     Davidson diagonalization with overlap
     ethr =  1.17E-10,  avg # of iterations =  3.1

     total cpu time spent up to now is       24.3 secs

     total energy              =    -190.21301053 Ry
     Harris-Foulkes estimate   =    -190.21301052 Ry
     estimated scf accuracy    <          4.5E-09 Ry

     iteration #  6     ecut=    40.00 Ry     beta=0.70
     Davidson diagonalization with overlap
     ethr =  2.51E-11,  avg # of iterations =  1.8

     total cpu time spent up to now is       24.5 secs

     End of self-consistent calculation

     Number of k-points >= 100: set verbosity='high' to print the bands.

     the Fermi energy is     1.7528 ev

!    total energy              =    -190.21301053 Ry
     Harris-Foulkes estimate   =    -190.21301053 Ry
     estimated scf accuracy    <          2.7E-11 Ry

     The total energy is the sum of the following terms:

     one-electron contribution =    -174.76260757 Ry
     hartree contribution      =      88.22582930 Ry
     xc contribution           =     -28.54619210 Ry
     ewald contribution        =     -75.12991237 Ry
     smearing contrib. (-TS)   =      -0.00012780 Ry

     convergence has been achieved in   6 iterations

     Forces acting on atoms (Ry/au):

     atom    1 type  1   force =     0.00000000    0.00000000   -0.00000000
     atom    2 type  1   force =    -0.00000000   -0.00000000    0.00000000

     Total force =     0.000000     Total SCF correction =     0.000000


     entering subroutine stress ...

          total   stress  (Ry/bohr**3)                   (kbar)     P=    0.06
   0.00000008  -0.00000000  -0.00000000          0.01     -0.00     -0.00
   0.00000000   0.00000008   0.00000000          0.00      0.01      0.00
  -0.00000000   0.00000000   0.00000103         -0.00      0.00      0.15


     Writing output data file na_hcp_0.2$.save
 
     init_run     :      0.42s CPU      0.44s WALL (       2 calls)
     electrons    :      6.25s CPU      6.63s WALL (       5 calls)
     update_pot   :      0.38s CPU      0.45s WALL (       3 calls)
     forces       :      0.30s CPU      0.30s WALL (       5 calls)
     stress       :      0.74s CPU      0.74s WALL (       5 calls)

     Called by init_run:
     wfcinit      :      0.10s CPU      0.11s WALL (       2 calls)
     potinit      :      0.08s CPU      0.08s WALL (       2 calls)

     Called by electrons:
     c_bands      :      4.77s CPU      5.02s WALL (      24 calls)
     sum_band     :      1.03s CPU      1.05s WALL (      24 calls)
     v_of_rho     :      0.19s CPU      0.19s WALL (      25 calls)
     newd         :      0.27s CPU      0.26s WALL (      25 calls)
     mix_rho      :      0.01s CPU      0.01s WALL (      24 calls)

     Called by c_bands:
     init_us_2    :      0.07s CPU      0.06s WALL (     960 calls)
     cegterg      :      4.32s CPU      4.43s WALL (     384 calls)

     Called by sum_band:
     sum_band:bec :      0.01s CPU      0.00s WALL (     384 calls)
     addusdens    :      0.44s CPU      0.43s WALL (      24 calls)

     Called by *egterg:
     h_psi        :      2.22s CPU      2.26s WALL (    1620 calls)
     s_psi        :      0.05s CPU      0.07s WALL (    1620 calls)
     g_psi        :      0.00s CPU      0.02s WALL (    1204 calls)
     cdiaghg      :      1.65s CPU      1.66s WALL (    1476 calls)

     Called by h_psi:
     add_vuspsi   :      0.09s CPU      0.08s WALL (    1620 calls)

     General routines
     calbec       :      0.15s CPU      0.16s WALL (    2404 calls)
     fft          :      0.14s CPU      0.12s WALL (     439 calls)
     ffts         :      0.00s CPU      0.00s WALL (      49 calls)
     fftw         :      2.08s CPU      2.12s WALL (   32184 calls)
     interpolate  :      0.01s CPU      0.02s WALL (      49 calls)
 
     Parallel routines
     fft_scatter  :      0.82s CPU      0.83s WALL (   32672 calls)
 
     PWSCF        :    11.22s CPU        39.52s WALL

 
   This run was terminated on:  16:51: 4  26Mar2018            

=------------------------------------------------------------------------------=
   JOB DONE.
=------------------------------------------------------------------------------=
Application 30366760 resources: utime ~7547s, stime ~50s, Rss ~37968, inblocks ~1445986, outblocks ~1760572
