
     Program PWSCF v.5.4.0 starts on 26Mar2018 at 16:53: 9 

     This program is part of the open-source Quantum ESPRESSO suite
     for quantum simulation of materials; please cite
         "P. Giannozzi et al., J. Phys.:Condens. Matter 21 395502 (2009);
          URL http://www.quantum-espresso.org", 
     in publications or presentations arising from this work. More details at
     http://www.quantum-espresso.org/quote

     Parallel version (MPI & OpenMP), running on     192 processor cores
     Number of MPI processes:               192
     Threads/MPI process:                     1
     K-points division:     npool     =      24
     R & G space division:  proc/nbgrp/npool/nimage =       8
     Waiting for input...
     Reading input from standard input

     Current dimensions of program PWSCF are:
     Max number of different atomic species (ntypx) = 10
     Max number of k-points (npk) =  40000
     Max angular momentum in pseudopotentials (lmaxx) =  3

     Subspace diagonalization in iterative solution of the eigenvalue problem:
     one sub-group per band group will be used
     scalapack distributed-memory algorithm (size of sub-group:  2*  2 procs)

 
     Parallelization info
     --------------------
     sticks:   dense  smooth     PW     G-vecs:    dense   smooth      PW
     Min         133      68     20                 5835     2056     346
     Max         134      69     21                 5844     2068     351
     Sum        1069     547    163                46721    16503    2779
 


     bravais-lattice index     =            4
     lattice parameter (alat)  =       6.9939  a.u.
     unit-cell volume          =     483.0474 (a.u.)^3
     number of atoms/cell      =            2
     number of atomic types    =            1
     number of electrons       =        18.00
     number of Kohn-Sham states=           13
     kinetic-energy cutoff     =      40.0000  Ry
     charge density cutoff     =     320.0000  Ry
     convergence threshold     =      1.0E-07
     mixing beta               =       0.7000
     number of iterations used =            8  plain     mixing
     Exchange-correlation      = SLA  PW   PBE  PBE ( 1  4  3  4 0 0)
     nstep                     =           50


     celldm(1)=   6.993850  celldm(2)=   0.000000  celldm(3)=   1.630460
     celldm(4)=   0.000000  celldm(5)=   0.000000  celldm(6)=   0.000000

     crystal axes: (cart. coord. in units of alat)
               a(1) = (   1.000000   0.000000   0.000000 )  
               a(2) = (  -0.500000   0.866025   0.000000 )  
               a(3) = (   0.000000   0.000000   1.630460 )  

     reciprocal axes: (cart. coord. in units 2 pi/alat)
               b(1) = (  1.000000  0.577350  0.000000 )  
               b(2) = (  0.000000  1.154701  0.000000 )  
               b(3) = (  0.000000  0.000000  0.613324 )  


     PseudoPot. # 1 for Na read from file:
     ./Na_pbe_v1.uspp.F.UPF
     MD5 check sum: 76a99c7e9422403d3e93cbc85ab7bccb
     Pseudo is Ultrasoft, Zval =  9.0
     Generated by new atomic code, or converted to UPF format
     Using radial grid of  819 points,  5 beta functions with: 
                l(1) =   0
                l(2) =   0
                l(3) =   1
                l(4) =   1
                l(5) =   2
     Q(r) pseudized with  8 coefficients,  rinner =    1.250   1.250   1.250
                                                       1.250   1.250

     atomic species   valence    mass     pseudopotential
        Na             9.00    22.99000     Na( 1.00)

     12 Sym. Ops. (no inversion) found
          (note: 12 additional sym.ops. were found but ignored
           their fractional translations are incommensurate with FFT grid)


   Cartesian axes

     site n.     atom                  positions (alat units)
         1           Na  tau(   1) = (   0.0000000   0.0000000   0.0000000  )
         2           Na  tau(   2) = (   0.4999995   0.2886748   0.8152300  )

     number of k points=   366  Marzari-Vanderbilt smearing, width (Ry)=  0.0200

     Number of k-points >= 100: set verbosity='high' to print them.

     Dense  grid:    46721 G-vectors     FFT dimensions: (  40,  40,  72)

     Smooth grid:    16503 G-vectors     FFT dimensions: (  30,  30,  45)

     Largest allocated arrays     est. size (Mb)     dimensions
        Kohn-Sham Wavefunctions         0.05 Mb     (     276,   13)
        NL pseudopotentials             0.11 Mb     (     276,   26)
        Each V/rho on FFT grid          0.22 Mb     (   14400)
        Each G-vector array             0.04 Mb     (    5844)
        G-vector shells                 0.04 Mb     (    5844)
     Largest temporary arrays     est. size (Mb)     dimensions
        Auxiliary wavefunctions         0.22 Mb     (     276,   52)
        Each subspace H/S matrix        0.01 Mb     (      26,   26)
        Each <psi_i|beta_j> matrix      0.01 Mb     (      26,   13)
        Arrays for rho mixing           1.76 Mb     (   14400,    8)

     Initial potential from superposition of free atoms

     starting charge   17.98742, renormalised to   18.00000
     Starting wfc are   10 randomized atomic wfcs +    3 random wfc

     total cpu time spent up to now is        0.4 secs

     per-process dynamical memory:    12.2 Mb

     Self-consistent Calculation

     iteration #  1     ecut=    40.00 Ry     beta=0.70
     Davidson diagonalization with overlap
     ethr =  1.00E-02,  avg # of iterations =  5.8

     Threshold (ethr) on eigenvalues was too large:
     Diagonalizing with lowered threshold

     Davidson diagonalization with overlap
     ethr =  9.43E-06,  avg # of iterations =  6.8

     total cpu time spent up to now is        1.3 secs

     total energy              =    -190.21279650 Ry
     Harris-Foulkes estimate   =    -190.21322628 Ry
     estimated scf accuracy    <       0.00175415 Ry

     iteration #  2     ecut=    40.00 Ry     beta=0.70
     Davidson diagonalization with overlap
     ethr =  9.75E-06,  avg # of iterations =  2.0

     total cpu time spent up to now is        1.6 secs

     total energy              =    -190.21299067 Ry
     Harris-Foulkes estimate   =    -190.21302957 Ry
     estimated scf accuracy    <       0.00018752 Ry

     iteration #  3     ecut=    40.00 Ry     beta=0.70
     Davidson diagonalization with overlap
     ethr =  1.04E-06,  avg # of iterations =  2.0

     total cpu time spent up to now is        1.8 secs

     total energy              =    -190.21300907 Ry
     Harris-Foulkes estimate   =    -190.21301156 Ry
     estimated scf accuracy    <       0.00001179 Ry

     iteration #  4     ecut=    40.00 Ry     beta=0.70
     Davidson diagonalization with overlap
     ethr =  6.55E-08,  avg # of iterations =  2.0

     total cpu time spent up to now is        2.0 secs

     End of self-consistent calculation

     Number of k-points >= 100: set verbosity='high' to print the bands.

     the Fermi energy is     1.7531 ev

!    total energy              =    -190.21301033 Ry
     Harris-Foulkes estimate   =    -190.21301022 Ry
     estimated scf accuracy    <       0.00000002 Ry

     The total energy is the sum of the following terms:

     one-electron contribution =    -174.76112389 Ry
     hartree contribution      =      88.22503611 Ry
     xc contribution           =     -28.54616021 Ry
     ewald contribution        =     -75.13063452 Ry
     smearing contrib. (-TS)   =      -0.00012781 Ry

     convergence has been achieved in   4 iterations

     Forces acting on atoms (Ry/au):

     atom    1 type  1   force =     0.00000000    0.00000000    0.00000000
     atom    2 type  1   force =     0.00000000    0.00000000    0.00000000

     Total force =     0.000000     Total SCF correction =     0.000001


     entering subroutine stress ...

          total   stress  (Ry/bohr**3)                   (kbar)     P=    0.14
   0.00000068   0.00000000  -0.00000000          0.10      0.00     -0.00
   0.00000000   0.00000068  -0.00000000          0.00      0.10     -0.00
  -0.00000000   0.00000000   0.00000160         -0.00      0.00      0.24


     BFGS Geometry Optimization

     number of scf cycles    =   1
     number of bfgs steps    =   0

     enthalpy new            =    -190.2103833758 Ry

     new trust radius        =       0.0005230936 bohr
     new conv_thr            =       0.0000001000 Ry

     new unit-cell volume =    482.88604 a.u.^3 (    71.55633 Ang^3 )

CELL_PARAMETERS (alat=  6.99385000)
   0.999880998   0.000000000  -0.000000000
  -0.499940499   0.865922345   0.000000000
  -0.000000000  -0.000000000   1.630303467

ATOMIC_POSITIONS (crystal)
Na       0.000000000   0.000000000   0.000000000
Na       0.666666000   0.333333000   0.500000000



     Writing output data file na_hcp_0.8$.save
     NEW-OLD atomic charge density approx. for the potential
     extrapolated charge   17.99399, renormalised to   18.00000

     total cpu time spent up to now is        8.3 secs

     per-process dynamical memory:    23.1 Mb

     Self-consistent Calculation

     iteration #  1     ecut=    40.00 Ry     beta=0.70
     Davidson diagonalization with overlap
     ethr =  1.00E-06,  avg # of iterations =  2.0

     Threshold (ethr) on eigenvalues was too large:
     Diagonalizing with lowered threshold

     Davidson diagonalization with overlap
     ethr =  3.69E-08,  avg # of iterations =  1.0

     total cpu time spent up to now is        8.7 secs

     total energy              =    -190.21299841 Ry
     Harris-Foulkes estimate   =    -190.25953077 Ry
     estimated scf accuracy    <       0.00000667 Ry

     iteration #  2     ecut=    40.00 Ry     beta=0.70
     Davidson diagonalization with overlap
     ethr =  3.70E-08,  avg # of iterations =  3.0

     total cpu time spent up to now is        9.0 secs

     total energy              =    -190.21301054 Ry
     Harris-Foulkes estimate   =    -190.21301543 Ry
     estimated scf accuracy    <       0.00001114 Ry

     iteration #  3     ecut=    40.00 Ry     beta=0.70
     Davidson diagonalization with overlap
     ethr =  3.70E-08,  avg # of iterations =  2.0

     total cpu time spent up to now is        9.2 secs

     total energy              =    -190.21301033 Ry
     Harris-Foulkes estimate   =    -190.21301128 Ry
     estimated scf accuracy    <       0.00000213 Ry

     iteration #  4     ecut=    40.00 Ry     beta=0.70
     Davidson diagonalization with overlap
     ethr =  1.19E-08,  avg # of iterations =  1.1

     total cpu time spent up to now is        9.5 secs

     total energy              =    -190.21301044 Ry
     Harris-Foulkes estimate   =    -190.21301048 Ry
     estimated scf accuracy    <       0.00000040 Ry

     iteration #  5     ecut=    40.00 Ry     beta=0.70
     Davidson diagonalization with overlap
     ethr =  2.22E-09,  avg # of iterations =  1.0

     total cpu time spent up to now is        9.6 secs

     total energy              =    -190.21301033 Ry
     Harris-Foulkes estimate   =    -190.21301045 Ry
     estimated scf accuracy    <       0.00000030 Ry

     iteration #  6     ecut=    40.00 Ry     beta=0.70
     Davidson diagonalization with overlap
     ethr =  1.67E-09,  avg # of iterations =  1.0

     total cpu time spent up to now is        9.8 secs

     End of self-consistent calculation

     Number of k-points >= 100: set verbosity='high' to print the bands.

     the Fermi energy is     1.7544 ev

!    total energy              =    -190.21301029 Ry
     Harris-Foulkes estimate   =    -190.21301035 Ry
     estimated scf accuracy    <       0.00000008 Ry

     The total energy is the sum of the following terms:

     one-electron contribution =    -174.74485394 Ry
     hartree contribution      =      88.21685498 Ry
     xc contribution           =     -28.54588174 Ry
     ewald contribution        =     -75.13900178 Ry
     smearing contrib. (-TS)   =      -0.00012781 Ry

     convergence has been achieved in   6 iterations

     Forces acting on atoms (Ry/au):

     atom    1 type  1   force =     0.00000000    0.00000000    0.00000000
     atom    2 type  1   force =     0.00000000    0.00000000    0.00000000

     Total force =     0.000000     Total SCF correction =     0.000000


     entering subroutine stress ...

          total   stress  (Ry/bohr**3)                   (kbar)     P=   -1.53
  -0.00001075   0.00000000  -0.00000000         -1.58      0.00     -0.00
   0.00000000  -0.00001075   0.00000000          0.00     -1.58      0.00
   0.00000000  -0.00000000  -0.00000976          0.00     -0.00     -1.44


     number of scf cycles    =   2
     number of bfgs steps    =   1

     enthalpy old            =    -190.2103833758 Ry
     enthalpy new            =    -190.2103842105 Ry

     CASE: enthalpy_new < enthalpy_old


     WARNING: bfgs curvature condition failed, Theta= 0.226
     new trust radius        =       0.0007846027 bohr
     new conv_thr            =       0.0000000010 Ry

     new unit-cell volume =    482.63402 a.u.^3 (    71.51898 Ang^3 )

CELL_PARAMETERS (alat=  6.99385000)
   0.999702495   0.000000000   0.000000000
  -0.499851247   0.865767757  -0.000000000
  -0.000000000  -0.000000000   1.630034546

ATOMIC_POSITIONS (crystal)
Na       0.000000000   0.000000000   0.000000000
Na       0.666666000   0.333333000   0.500000000



     Writing output data file na_hcp_0.8$.save
     NEW-OLD atomic charge density approx. for the potential
     extrapolated charge   17.99061, renormalised to   18.00000

     total cpu time spent up to now is       12.8 secs

     per-process dynamical memory:    23.1 Mb

     Self-consistent Calculation

     iteration #  1     ecut=    40.00 Ry     beta=0.70
     Davidson diagonalization with overlap
     ethr =  1.00E-06,  avg # of iterations =  2.0

     total cpu time spent up to now is       13.0 secs

     total energy              =    -190.21297959 Ry
     Harris-Foulkes estimate   =    -190.28571029 Ry
     estimated scf accuracy    <       0.00001824 Ry

     iteration #  2     ecut=    40.00 Ry     beta=0.70
     Davidson diagonalization with overlap
     ethr =  1.01E-07,  avg # of iterations =  3.0

     total cpu time spent up to now is       13.3 secs

     total energy              =    -190.21301043 Ry
     Harris-Foulkes estimate   =    -190.21302294 Ry
     estimated scf accuracy    <       0.00002790 Ry

     iteration #  3     ecut=    40.00 Ry     beta=0.70
     Davidson diagonalization with overlap
     ethr =  1.01E-07,  avg # of iterations =  2.0

     total cpu time spent up to now is       13.6 secs

     total energy              =    -190.21301073 Ry
     Harris-Foulkes estimate   =    -190.21301237 Ry
     estimated scf accuracy    <       0.00000504 Ry

     iteration #  4     ecut=    40.00 Ry     beta=0.70
     Davidson diagonalization with overlap
     ethr =  2.80E-08,  avg # of iterations =  1.0

     total cpu time spent up to now is       13.7 secs

     total energy              =    -190.21301043 Ry
     Harris-Foulkes estimate   =    -190.21301094 Ry
     estimated scf accuracy    <       0.00000179 Ry

     iteration #  5     ecut=    40.00 Ry     beta=0.70
     Davidson diagonalization with overlap
     ethr =  9.96E-09,  avg # of iterations =  1.0

     total cpu time spent up to now is       13.9 secs

     total energy              =    -190.21301030 Ry
     Harris-Foulkes estimate   =    -190.21301049 Ry
     estimated scf accuracy    <       0.00000076 Ry

     iteration #  6     ecut=    40.00 Ry     beta=0.70
     Davidson diagonalization with overlap
     ethr =  4.23E-09,  avg # of iterations =  1.0

     total cpu time spent up to now is       14.1 secs

     total energy              =    -190.21301026 Ry
     Harris-Foulkes estimate   =    -190.21301032 Ry
     estimated scf accuracy    <       0.00000038 Ry

     iteration #  7     ecut=    40.00 Ry     beta=0.70
     Davidson diagonalization with overlap
     ethr =  2.13E-09,  avg # of iterations =  1.0

     total cpu time spent up to now is       14.3 secs

     total energy              =    -190.21301009 Ry
     Harris-Foulkes estimate   =    -190.21301026 Ry
     estimated scf accuracy    <       0.00000027 Ry

     iteration #  8     ecut=    40.00 Ry     beta=0.70
     Davidson diagonalization with overlap
     ethr =  1.49E-09,  avg # of iterations =  2.0

     total cpu time spent up to now is       14.5 secs

     total energy              =    -190.21301014 Ry
     Harris-Foulkes estimate   =    -190.21301014 Ry
     estimated scf accuracy    <          2.2E-09 Ry

     iteration #  9     ecut=    40.00 Ry     beta=0.70
     Davidson diagonalization with overlap
     ethr =  1.21E-11,  avg # of iterations =  2.0

     total cpu time spent up to now is       14.8 secs

     End of self-consistent calculation

     Number of k-points >= 100: set verbosity='high' to print the bands.

     the Fermi energy is     1.7566 ev

!    total energy              =    -190.21301014 Ry
     Harris-Foulkes estimate   =    -190.21301014 Ry
     estimated scf accuracy    <          2.7E-10 Ry

     The total energy is the sum of the following terms:

     one-electron contribution =    -174.72362828 Ry
     hartree contribution      =      88.20923107 Ry
     xc contribution           =     -28.54640599 Ry
     ewald contribution        =     -75.15207913 Ry
     smearing contrib. (-TS)   =      -0.00012781 Ry

     convergence has been achieved in   9 iterations

     Forces acting on atoms (Ry/au):

     atom    1 type  1   force =     0.00000000    0.00000000    0.00000000
     atom    2 type  1   force =    -0.00000000   -0.00000000   -0.00000000

     Total force =     0.000000     Total SCF correction =     0.000000


     entering subroutine stress ...

          total   stress  (Ry/bohr**3)                   (kbar)     P=    0.05
   0.00000001  -0.00000000  -0.00000000          0.00     -0.00     -0.00
  -0.00000000   0.00000001   0.00000000         -0.00      0.00      0.00
  -0.00000000   0.00000000   0.00000095         -0.00      0.00      0.14


     number of scf cycles    =   3
     number of bfgs steps    =   2

     enthalpy old            =    -190.2103842105 Ry
     enthalpy new            =    -190.2103854335 Ry

     CASE: enthalpy_new < enthalpy_old

     new trust radius        =       0.0004085721 bohr
     new conv_thr            =       0.0000000010 Ry

     new unit-cell volume =    482.51365 a.u.^3 (    71.50115 Ang^3 )

CELL_PARAMETERS (alat=  6.99385000)
   0.999609534   0.000000000  -0.000000000
  -0.499804767   0.865687250  -0.000000000
  -0.000000000  -0.000000000   1.629931135

ATOMIC_POSITIONS (crystal)
Na       0.000000000   0.000000000   0.000000000
Na       0.666666000   0.333333000   0.500000000



     Writing output data file na_hcp_0.8$.save
     NEW-OLD atomic charge density approx. for the potential
     extrapolated charge   17.99551, renormalised to   18.00000

     total cpu time spent up to now is       18.5 secs

     per-process dynamical memory:    23.1 Mb

     Self-consistent Calculation

     iteration #  1     ecut=    40.00 Ry     beta=0.70
     Davidson diagonalization with overlap
     ethr =  1.00E-06,  avg # of iterations =  2.0

     Threshold (ethr) on eigenvalues was too large:
     Diagonalizing with lowered threshold

     Davidson diagonalization with overlap
     ethr =  2.08E-08,  avg # of iterations =  1.0

     total cpu time spent up to now is       18.9 secs

     total energy              =    -190.21300337 Ry
     Harris-Foulkes estimate   =    -190.24774001 Ry
     estimated scf accuracy    <       0.00000374 Ry

     iteration #  2     ecut=    40.00 Ry     beta=0.70
     Davidson diagonalization with overlap
     ethr =  2.08E-08,  avg # of iterations =  3.0

     total cpu time spent up to now is       19.2 secs

     total energy              =    -190.21301014 Ry
     Harris-Foulkes estimate   =    -190.21301288 Ry
     estimated scf accuracy    <       0.00000622 Ry

     iteration #  3     ecut=    40.00 Ry     beta=0.70
     Davidson diagonalization with overlap
     ethr =  2.08E-08,  avg # of iterations =  2.0

     total cpu time spent up to now is       19.4 secs

     total energy              =    -190.21301015 Ry
     Harris-Foulkes estimate   =    -190.21301056 Ry
     estimated scf accuracy    <       0.00000119 Ry

     iteration #  4     ecut=    40.00 Ry     beta=0.70
     Davidson diagonalization with overlap
     ethr =  6.59E-09,  avg # of iterations =  1.0

     total cpu time spent up to now is       19.6 secs

     total energy              =    -190.21301014 Ry
     Harris-Foulkes estimate   =    -190.21301020 Ry
     estimated scf accuracy    <       0.00000039 Ry

     iteration #  5     ecut=    40.00 Ry     beta=0.70
     Davidson diagonalization with overlap
     ethr =  2.15E-09,  avg # of iterations =  1.0

     total cpu time spent up to now is       19.8 secs

     total energy              =    -190.21301007 Ry
     Harris-Foulkes estimate   =    -190.21301014 Ry
     estimated scf accuracy    <       0.00000025 Ry

     iteration #  6     ecut=    40.00 Ry     beta=0.70
     Davidson diagonalization with overlap
     ethr =  1.41E-09,  avg # of iterations =  1.0

     total cpu time spent up to now is       20.0 secs

     total energy              =    -190.21300999 Ry
     Harris-Foulkes estimate   =    -190.21301008 Ry
     estimated scf accuracy    <       0.00000012 Ry

     iteration #  7     ecut=    40.00 Ry     beta=0.70
     Davidson diagonalization with overlap
     ethr =  6.50E-10,  avg # of iterations =  2.0

     total cpu time spent up to now is       20.2 secs

     total energy              =    -190.21301003 Ry
     Harris-Foulkes estimate   =    -190.21301003 Ry
     estimated scf accuracy    <          1.7E-09 Ry

     iteration #  8     ecut=    40.00 Ry     beta=0.70
     Davidson diagonalization with overlap
     ethr =  9.48E-12,  avg # of iterations =  2.0

     total cpu time spent up to now is       20.4 secs

     End of self-consistent calculation

     Number of k-points >= 100: set verbosity='high' to print the bands.

     the Fermi energy is     1.7577 ev

!    total energy              =    -190.21301003 Ry
     Harris-Foulkes estimate   =    -190.21301003 Ry
     estimated scf accuracy    <          2.4E-11 Ry

     The total energy is the sum of the following terms:

     one-electron contribution =    -174.71277694 Ry
     hartree contribution      =      88.20472113 Ry
     xc contribution           =     -28.54649671 Ry
     ewald contribution        =     -75.15832970 Ry
     smearing contrib. (-TS)   =      -0.00012780 Ry

     convergence has been achieved in   8 iterations

     Forces acting on atoms (Ry/au):

     atom    1 type  1   force =     0.00000000    0.00000000    0.00000000
     atom    2 type  1   force =     0.00000000    0.00000000    0.00000000

     Total force =     0.000000     Total SCF correction =     0.000000


     entering subroutine stress ...

          total   stress  (Ry/bohr**3)                   (kbar)     P=    0.19
   0.00000098   0.00000000   0.00000000          0.14      0.00      0.00
   0.00000000   0.00000098   0.00000000          0.00      0.14      0.00
  -0.00000000   0.00000000   0.00000189         -0.00      0.00      0.28


     number of scf cycles    =   4
     number of bfgs steps    =   3

     enthalpy old            =    -190.2103854335 Ry
     enthalpy new            =    -190.2103859762 Ry

     CASE: enthalpy_new < enthalpy_old


     WARNING: bfgs curvature condition failed, Theta= 0.982
     new trust radius        =       0.0006128387 bohr
     new conv_thr            =       0.0000000010 Ry

     new unit-cell volume =    482.33594 a.u.^3 (    71.47481 Ang^3 )

CELL_PARAMETERS (alat=  6.99385000)
   0.999470092   0.000000000  -0.000000000
  -0.499735046   0.865566490   0.000000000
  -0.000000000  -0.000000000   1.629785485

ATOMIC_POSITIONS (crystal)
Na       0.000000000   0.000000000   0.000000000
Na       0.666666000   0.333333000   0.500000000



     Writing output data file na_hcp_0.8$.save
     NEW-OLD atomic charge density approx. for the potential
     extrapolated charge   17.99337, renormalised to   18.00000

     total cpu time spent up to now is       23.5 secs

     per-process dynamical memory:    23.1 Mb

     Self-consistent Calculation

     iteration #  1     ecut=    40.00 Ry     beta=0.70
     Davidson diagonalization with overlap
     ethr =  1.00E-06,  avg # of iterations =  2.0

     Threshold (ethr) on eigenvalues was too large:
     Diagonalizing with lowered threshold

     Davidson diagonalization with overlap
     ethr =  4.46E-08,  avg # of iterations =  1.0

     total cpu time spent up to now is       23.9 secs

     total energy              =    -190.21299540 Ry
     Harris-Foulkes estimate   =    -190.26429860 Ry
     estimated scf accuracy    <       0.00000805 Ry

     iteration #  2     ecut=    40.00 Ry     beta=0.70
     Davidson diagonalization with overlap
     ethr =  4.47E-08,  avg # of iterations =  3.0

     total cpu time spent up to now is       24.2 secs

     total energy              =    -190.21301009 Ry
     Harris-Foulkes estimate   =    -190.21301602 Ry
     estimated scf accuracy    <       0.00001351 Ry

     iteration #  3     ecut=    40.00 Ry     beta=0.70
     Davidson diagonalization with overlap
     ethr =  4.47E-08,  avg # of iterations =  2.0

     total cpu time spent up to now is       24.4 secs

     total energy              =    -190.21301009 Ry
     Harris-Foulkes estimate   =    -190.21301099 Ry
     estimated scf accuracy    <       0.00000260 Ry

     iteration #  4     ecut=    40.00 Ry     beta=0.70
     Davidson diagonalization with overlap
     ethr =  1.44E-08,  avg # of iterations =  1.0

     total cpu time spent up to now is       24.6 secs

     total energy              =    -190.21301010 Ry
     Harris-Foulkes estimate   =    -190.21301020 Ry
     estimated scf accuracy    <       0.00000086 Ry

     iteration #  5     ecut=    40.00 Ry     beta=0.70
     Davidson diagonalization with overlap
     ethr =  4.75E-09,  avg # of iterations =  1.0

     total cpu time spent up to now is       24.8 secs

     total energy              =    -190.21300993 Ry
     Harris-Foulkes estimate   =    -190.21301011 Ry
     estimated scf accuracy    <       0.00000063 Ry

     iteration #  6     ecut=    40.00 Ry     beta=0.70
     Davidson diagonalization with overlap
     ethr =  3.52E-09,  avg # of iterations =  1.0

     total cpu time spent up to now is       25.0 secs

     total energy              =    -190.21300975 Ry
     Harris-Foulkes estimate   =    -190.21300995 Ry
     estimated scf accuracy    <       0.00000028 Ry

     iteration #  7     ecut=    40.00 Ry     beta=0.70
     Davidson diagonalization with overlap
     ethr =  1.56E-09,  avg # of iterations =  2.0

     total cpu time spent up to now is       25.2 secs

     total energy              =    -190.21300982 Ry
     Harris-Foulkes estimate   =    -190.21300982 Ry
     estimated scf accuracy    <          2.1E-09 Ry

     iteration #  8     ecut=    40.00 Ry     beta=0.70
     Davidson diagonalization with overlap
     ethr =  1.15E-11,  avg # of iterations =  2.0

     total cpu time spent up to now is       25.5 secs

     End of self-consistent calculation

     Number of k-points >= 100: set verbosity='high' to print the bands.

     the Fermi energy is     1.7593 ev

!    total energy              =    -190.21300982 Ry
     Harris-Foulkes estimate   =    -190.21300982 Ry
     estimated scf accuracy    <          1.7E-11 Ry

     The total energy is the sum of the following terms:

     one-electron contribution =    -174.69655640 Ry
     hartree contribution      =      88.19782543 Ry
     xc contribution           =     -28.54658872 Ry
     ewald contribution        =     -75.16756235 Ry
     smearing contrib. (-TS)   =      -0.00012779 Ry

     convergence has been achieved in   8 iterations

     Forces acting on atoms (Ry/au):

     atom    1 type  1   force =    -0.00000000   -0.00000000   -0.00000000
     atom    2 type  1   force =    -0.00000000   -0.00000000   -0.00000000

     Total force =     0.000000     Total SCF correction =     0.000000


     entering subroutine stress ...

          total   stress  (Ry/bohr**3)                   (kbar)     P=    0.20
   0.00000109  -0.00000000   0.00000000          0.16     -0.00      0.00
  -0.00000000   0.00000109  -0.00000000         -0.00      0.16     -0.00
  -0.00000000  -0.00000000   0.00000195         -0.00     -0.00      0.29


     number of scf cycles    =   5
     number of bfgs steps    =   4

     enthalpy old            =    -190.2103859762 Ry
     enthalpy new            =    -190.2103867403 Ry

     CASE: enthalpy_new < enthalpy_old


     WARNING: bfgs curvature condition failed, Theta= 0.862
     new trust radius        =       0.0009192169 bohr
     new conv_thr            =       0.0000000010 Ry

     new unit-cell volume =    482.06915 a.u.^3 (    71.43528 Ang^3 )

CELL_PARAMETERS (alat=  6.99385000)
   0.999260930   0.000000000  -0.000000000
  -0.499630465   0.865385351   0.000000000
  -0.000000000  -0.000000000   1.629565990

ATOMIC_POSITIONS (crystal)
Na      -0.000000000  -0.000000000  -0.000000000
Na       0.666666000   0.333333000   0.500000000



     Writing output data file na_hcp_0.8$.save
     NEW-OLD atomic charge density approx. for the potential
     extrapolated charge   17.99005, renormalised to   18.00000

     total cpu time spent up to now is       29.3 secs

     per-process dynamical memory:    23.1 Mb

     Self-consistent Calculation

     iteration #  1     ecut=    40.00 Ry     beta=0.70
     Davidson diagonalization with overlap
     ethr =  1.00E-06,  avg # of iterations =  2.0

     total cpu time spent up to now is       29.5 secs

     total energy              =    -190.21297691 Ry
     Harris-Foulkes estimate   =    -190.29003522 Ry
     estimated scf accuracy    <       0.00001817 Ry

     iteration #  2     ecut=    40.00 Ry     beta=0.70
     Davidson diagonalization with overlap
     ethr =  1.01E-07,  avg # of iterations =  3.0

     total cpu time spent up to now is       29.8 secs

     total energy              =    -190.21301003 Ry
     Harris-Foulkes estimate   =    -190.21302339 Ry
     estimated scf accuracy    <       0.00003043 Ry

     iteration #  3     ecut=    40.00 Ry     beta=0.70
     Davidson diagonalization with overlap
     ethr =  1.01E-07,  avg # of iterations =  2.0

     total cpu time spent up to now is       30.1 secs

     total energy              =    -190.21301006 Ry
     Harris-Foulkes estimate   =    -190.21301206 Ry
     estimated scf accuracy    <       0.00000584 Ry

     iteration #  4     ecut=    40.00 Ry     beta=0.70
     Davidson diagonalization with overlap
     ethr =  3.24E-08,  avg # of iterations =  1.0

     total cpu time spent up to now is       30.3 secs

     total energy              =    -190.21301007 Ry
     Harris-Foulkes estimate   =    -190.21301030 Ry
     estimated scf accuracy    <       0.00000197 Ry

     iteration #  5     ecut=    40.00 Ry     beta=0.70
     Davidson diagonalization with overlap
     ethr =  1.09E-08,  avg # of iterations =  1.0

     total cpu time spent up to now is       30.4 secs

     total energy              =    -190.21300967 Ry
     Harris-Foulkes estimate   =    -190.21301010 Ry
     estimated scf accuracy    <       0.00000145 Ry

     iteration #  6     ecut=    40.00 Ry     beta=0.70
     Davidson diagonalization with overlap
     ethr =  8.07E-09,  avg # of iterations =  1.0

     total cpu time spent up to now is       30.6 secs

     total energy              =    -190.21300930 Ry
     Harris-Foulkes estimate   =    -190.21300971 Ry
     estimated scf accuracy    <       0.00000063 Ry

     iteration #  7     ecut=    40.00 Ry     beta=0.70
     Davidson diagonalization with overlap
     ethr =  3.48E-09,  avg # of iterations =  2.0

     total cpu time spent up to now is       30.9 secs

     End of self-consistent calculation

     Number of k-points >= 100: set verbosity='high' to print the bands.

     the Fermi energy is     1.7617 ev

!    total energy              =    -190.21300943 Ry
     Harris-Foulkes estimate   =    -190.21300943 Ry
     estimated scf accuracy    <          1.1E-10 Ry

     The total energy is the sum of the following terms:

     one-electron contribution =    -174.67217112 Ry
     hartree contribution      =      88.18744440 Ry
     xc contribution           =     -28.54672377 Ry
     ewald contribution        =     -75.18143118 Ry
     smearing contrib. (-TS)   =      -0.00012777 Ry

     convergence has been achieved in   7 iterations

     Forces acting on atoms (Ry/au):

     atom    1 type  1   force =     0.00000000    0.00000000    0.00000000
     atom    2 type  1   force =     0.00000000    0.00000000    0.00000000

     Total force =     0.000000     Total SCF correction =     0.000000


     entering subroutine stress ...

          total   stress  (Ry/bohr**3)                   (kbar)     P=    0.21
   0.00000119  -0.00000000   0.00000000          0.17     -0.00      0.00
  -0.00000000   0.00000119   0.00000000         -0.00      0.17      0.00
  -0.00000000  -0.00000000   0.00000192         -0.00     -0.00      0.28


     number of scf cycles    =   6
     number of bfgs steps    =   5

     enthalpy old            =    -190.2103867403 Ry
     enthalpy new            =    -190.2103877998 Ry

     CASE: enthalpy_new < enthalpy_old

     new trust radius        =       0.0013787326 bohr
     new conv_thr            =       0.0000000010 Ry

     new unit-cell volume =    481.66723 a.u.^3 (    71.37572 Ang^3 )

CELL_PARAMETERS (alat=  6.99385000)
   0.998947187   0.000000000  -0.000000000
  -0.499473594   0.865113641   0.000000000
  -0.000000000   0.000000000   1.629230261

ATOMIC_POSITIONS (crystal)
Na      -0.000000000  -0.000000000  -0.000000000
Na       0.666666000   0.333333000   0.500000000



     Writing output data file na_hcp_0.8$.save
     NEW-OLD atomic charge density approx. for the potential
     extrapolated charge   17.98499, renormalised to   18.00000

     total cpu time spent up to now is       34.6 secs

     per-process dynamical memory:    23.1 Mb

     Self-consistent Calculation

     iteration #  1     ecut=    40.00 Ry     beta=0.70
     Davidson diagonalization with overlap
     ethr =  1.00E-06,  avg # of iterations =  2.0

     total cpu time spent up to now is       34.9 secs

     total energy              =    -190.21293468 Ry
     Harris-Foulkes estimate   =    -190.32911412 Ry
     estimated scf accuracy    <       0.00004139 Ry

     iteration #  2     ecut=    40.00 Ry     beta=0.70
     Davidson diagonalization with overlap
     ethr =  2.30E-07,  avg # of iterations =  3.0

     total cpu time spent up to now is       35.2 secs

     total energy              =    -190.21300998 Ry
     Harris-Foulkes estimate   =    -190.21304036 Ry
     estimated scf accuracy    <       0.00006918 Ry

     iteration #  3     ecut=    40.00 Ry     beta=0.70
     Davidson diagonalization with overlap
     ethr =  2.30E-07,  avg # of iterations =  2.0

     total cpu time spent up to now is       35.4 secs

     total energy              =    -190.21301003 Ry
     Harris-Foulkes estimate   =    -190.21301460 Ry
     estimated scf accuracy    <       0.00001325 Ry

     iteration #  4     ecut=    40.00 Ry     beta=0.70
     Davidson diagonalization with overlap
     ethr =  7.36E-08,  avg # of iterations =  1.0

     total cpu time spent up to now is       35.6 secs

     total energy              =    -190.21301002 Ry
     Harris-Foulkes estimate   =    -190.21301058 Ry
     estimated scf accuracy    <       0.00000440 Ry

     iteration #  5     ecut=    40.00 Ry     beta=0.70
     Davidson diagonalization with overlap
     ethr =  2.44E-08,  avg # of iterations =  1.0

     total cpu time spent up to now is       35.8 secs

     total energy              =    -190.21300918 Ry
     Harris-Foulkes estimate   =    -190.21301009 Ry
     estimated scf accuracy    <       0.00000314 Ry

     iteration #  6     ecut=    40.00 Ry     beta=0.70
     Davidson diagonalization with overlap
     ethr =  1.74E-08,  avg # of iterations =  1.0

     total cpu time spent up to now is       36.0 secs

     total energy              =    -190.21300827 Ry
     Harris-Foulkes estimate   =    -190.21300926 Ry
     estimated scf accuracy    <       0.00000138 Ry

     iteration #  7     ecut=    40.00 Ry     beta=0.70
     Davidson diagonalization with overlap
     ethr =  7.66E-09,  avg # of iterations =  2.0

     total cpu time spent up to now is       36.2 secs

     total energy              =    -190.21300864 Ry
     Harris-Foulkes estimate   =    -190.21300865 Ry
     estimated scf accuracy    <       0.00000002 Ry

     iteration #  8     ecut=    40.00 Ry     beta=0.70
     Davidson diagonalization with overlap
     ethr =  1.21E-10,  avg # of iterations =  2.0

     total cpu time spent up to now is       36.5 secs

     total energy              =    -190.21300864 Ry
     Harris-Foulkes estimate   =    -190.21300864 Ry
     estimated scf accuracy    <          2.1E-09 Ry

     iteration #  9     ecut=    40.00 Ry     beta=0.70
     Davidson diagonalization with overlap
     ethr =  1.19E-11,  avg # of iterations =  1.1

     total cpu time spent up to now is       36.7 secs

     total energy              =    -190.21300864 Ry
     Harris-Foulkes estimate   =    -190.21300864 Ry
     estimated scf accuracy    <          1.3E-09 Ry

     iteration # 10     ecut=    40.00 Ry     beta=0.70
     Davidson diagonalization with overlap
     ethr =  7.45E-12,  avg # of iterations =  2.0

     total cpu time spent up to now is       36.9 secs

     End of self-consistent calculation

     Number of k-points >= 100: set verbosity='high' to print the bands.

     the Fermi energy is     1.7653 ev

!    total energy              =    -190.21300864 Ry
     Harris-Foulkes estimate   =    -190.21300864 Ry
     estimated scf accuracy    <          5.4E-11 Ry

     The total energy is the sum of the following terms:

     one-electron contribution =    -174.63555033 Ry
     hartree contribution      =      88.17197073 Ry
     xc contribution           =     -28.54695776 Ry
     ewald contribution        =     -75.20234355 Ry
     smearing contrib. (-TS)   =      -0.00012774 Ry

     convergence has been achieved in  10 iterations

     Forces acting on atoms (Ry/au):

     atom    1 type  1   force =    -0.00000000   -0.00000000    0.00000000
     atom    2 type  1   force =    -0.00000000   -0.00000000    0.00000000

     Total force =     0.000000     Total SCF correction =     0.000000


     entering subroutine stress ...

          total   stress  (Ry/bohr**3)                   (kbar)     P=    0.35
   0.00000214  -0.00000000   0.00000000          0.31     -0.00      0.00
  -0.00000000   0.00000214   0.00000000         -0.00      0.31      0.00
   0.00000000  -0.00000000   0.00000283          0.00     -0.00      0.42


     number of scf cycles    =   7
     number of bfgs steps    =   6

     enthalpy old            =    -190.2103877998 Ry
     enthalpy new            =    -190.2103891969 Ry

     CASE: enthalpy_new < enthalpy_old

     new trust radius        =       0.0020678858 bohr
     new conv_thr            =       0.0000000010 Ry

     new unit-cell volume =    481.06754 a.u.^3 (    71.28685 Ang^3 )

CELL_PARAMETERS (alat=  6.99385000)
   0.998476572   0.000000000  -0.000000000
  -0.499238286   0.864706077   0.000000000
   0.000000000   0.000000000   1.628736089

ATOMIC_POSITIONS (crystal)
Na      -0.000000000  -0.000000000  -0.000000000
Na       0.666666000   0.333333000   0.500000000



     Writing output data file na_hcp_0.8$.save
     NEW-OLD atomic charge density approx. for the potential
     extrapolated charge   17.97758, renormalised to   18.00000

     total cpu time spent up to now is       47.5 secs

     per-process dynamical memory:    23.1 Mb

     Self-consistent Calculation

     iteration #  1     ecut=    40.00 Ry     beta=0.70
     Davidson diagonalization with overlap
     ethr =  1.00E-06,  avg # of iterations =  2.0

     total cpu time spent up to now is       47.7 secs

     total energy              =    -190.21284234 Ry
     Harris-Foulkes estimate   =    -190.38638834 Ry
     estimated scf accuracy    <       0.00009205 Ry

     iteration #  2     ecut=    40.00 Ry     beta=0.70
     Davidson diagonalization with overlap
     ethr =  5.11E-07,  avg # of iterations =  3.0

     total cpu time spent up to now is       48.0 secs

     total energy              =    -190.21301002 Ry
     Harris-Foulkes estimate   =    -190.21307767 Ry
     estimated scf accuracy    <       0.00015411 Ry

     iteration #  3     ecut=    40.00 Ry     beta=0.70
     Davidson diagonalization with overlap
     ethr =  5.11E-07,  avg # of iterations =  2.0

     total cpu time spent up to now is       48.3 secs

     total energy              =    -190.21301010 Ry
     Harris-Foulkes estimate   =    -190.21302029 Ry
     estimated scf accuracy    <       0.00002952 Ry

     iteration #  4     ecut=    40.00 Ry     beta=0.70
     Davidson diagonalization with overlap
     ethr =  1.64E-07,  avg # of iterations =  1.0

     total cpu time spent up to now is       48.5 secs

     total energy              =    -190.21301018 Ry
     Harris-Foulkes estimate   =    -190.21301134 Ry
     estimated scf accuracy    <       0.00000979 Ry

     iteration #  5     ecut=    40.00 Ry     beta=0.70
     Davidson diagonalization with overlap
     ethr =  5.44E-08,  avg # of iterations =  1.0

     total cpu time spent up to now is       48.6 secs

     total energy              =    -190.21300829 Ry
     Harris-Foulkes estimate   =    -190.21301031 Ry
     estimated scf accuracy    <       0.00000716 Ry

     iteration #  6     ecut=    40.00 Ry     beta=0.70
     Davidson diagonalization with overlap
     ethr =  3.98E-08,  avg # of iterations =  1.0

     total cpu time spent up to now is       48.8 secs

     total energy              =    -190.21300609 Ry
     Harris-Foulkes estimate   =    -190.21300845 Ry
     estimated scf accuracy    <       0.00000321 Ry

     iteration #  7     ecut=    40.00 Ry     beta=0.70
     Davidson diagonalization with overlap
     ethr =  1.78E-08,  avg # of iterations =  2.0

     total cpu time spent up to now is       49.1 secs

     total energy              =    -190.21300701 Ry
     Harris-Foulkes estimate   =    -190.21300707 Ry
     estimated scf accuracy    <       0.00000011 Ry

     iteration #  8     ecut=    40.00 Ry     beta=0.70
     Davidson diagonalization with overlap
     ethr =  5.87E-10,  avg # of iterations =  2.0

     total cpu time spent up to now is       49.3 secs

     total energy              =    -190.21300702 Ry
     Harris-Foulkes estimate   =    -190.21300702 Ry
     estimated scf accuracy    <          3.8E-09 Ry

     iteration #  9     ecut=    40.00 Ry     beta=0.70
     Davidson diagonalization with overlap
     ethr =  2.14E-11,  avg # of iterations =  2.0

     total cpu time spent up to now is       49.5 secs

     End of self-consistent calculation

     Number of k-points >= 100: set verbosity='high' to print the bands.

     the Fermi energy is     1.7707 ev

!    total energy              =    -190.21300702 Ry
     Harris-Foulkes estimate   =    -190.21300702 Ry
     estimated scf accuracy    <          4.4E-10 Ry

     The total energy is the sum of the following terms:

     one-electron contribution =    -174.58086597 Ry
     hartree contribution      =      88.14889168 Ry
     xc contribution           =     -28.54731593 Ry
     ewald contribution        =     -75.23358910 Ry
     smearing contrib. (-TS)   =      -0.00012770 Ry

     convergence has been achieved in   9 iterations

     Forces acting on atoms (Ry/au):

     atom    1 type  1   force =     0.00000000    0.00000000    0.00000000
     atom    2 type  1   force =     0.00000000    0.00000000    0.00000000

     Total force =     0.000000     Total SCF correction =     0.000000


     entering subroutine stress ...

          total   stress  (Ry/bohr**3)                   (kbar)     P=    0.59
   0.00000384  -0.00000000   0.00000000          0.56     -0.00      0.00
  -0.00000000   0.00000384  -0.00000000         -0.00      0.56     -0.00
   0.00000000  -0.00000000   0.00000437          0.00     -0.00      0.64


     number of scf cycles    =   8
     number of bfgs steps    =   7

     enthalpy old            =    -190.2103891969 Ry
     enthalpy new            =    -190.2103908376 Ry

     CASE: enthalpy_new < enthalpy_old

     new trust radius        =       0.0018454195 bohr
     new conv_thr            =       0.0000000010 Ry

     new unit-cell volume =    480.53691 a.u.^3 (    71.20822 Ang^3 )

CELL_PARAMETERS (alat=  6.99385000)
   0.998056523   0.000000000  -0.000000000
  -0.499028262   0.864342304   0.000000000
   0.000000000   0.000000000   1.628309297

ATOMIC_POSITIONS (crystal)
Na      -0.000000000  -0.000000000  -0.000000000
Na       0.666666000   0.333333000   0.500000000



     Writing output data file na_hcp_0.8$.save
     NEW-OLD atomic charge density approx. for the potential
     extrapolated charge   17.98014, renormalised to   18.00000

     total cpu time spent up to now is       52.7 secs

     per-process dynamical memory:    23.1 Mb

     Self-consistent Calculation

     iteration #  1     ecut=    40.00 Ry     beta=0.70
     Davidson diagonalization with overlap
     ethr =  1.00E-06,  avg # of iterations =  2.0

     total cpu time spent up to now is       53.0 secs

     total energy              =    -190.21287611 Ry
     Harris-Foulkes estimate   =    -190.36654636 Ry
     estimated scf accuracy    <       0.00007197 Ry

     iteration #  2     ecut=    40.00 Ry     beta=0.70
     Davidson diagonalization with overlap
     ethr =  4.00E-07,  avg # of iterations =  3.0

     total cpu time spent up to now is       53.3 secs

     total energy              =    -190.21300753 Ry
     Harris-Foulkes estimate   =    -190.21306054 Ry
     estimated scf accuracy    <       0.00012084 Ry

     iteration #  3     ecut=    40.00 Ry     beta=0.70
     Davidson diagonalization with overlap
     ethr =  4.00E-07,  avg # of iterations =  2.0

     total cpu time spent up to now is       53.5 secs

     total energy              =    -190.21300758 Ry
     Harris-Foulkes estimate   =    -190.21301557 Ry
     estimated scf accuracy    <       0.00002320 Ry

     iteration #  4     ecut=    40.00 Ry     beta=0.70
     Davidson diagonalization with overlap
     ethr =  1.29E-07,  avg # of iterations =  1.0

     total cpu time spent up to now is       53.7 secs

     total energy              =    -190.21300764 Ry
     Harris-Foulkes estimate   =    -190.21300855 Ry
     estimated scf accuracy    <       0.00000773 Ry

     iteration #  5     ecut=    40.00 Ry     beta=0.70
     Davidson diagonalization with overlap
     ethr =  4.29E-08,  avg # of iterations =  1.0

     total cpu time spent up to now is       53.9 secs

     total energy              =    -190.21300613 Ry
     Harris-Foulkes estimate   =    -190.21300774 Ry
     estimated scf accuracy    <       0.00000566 Ry

     iteration #  6     ecut=    40.00 Ry     beta=0.70
     Davidson diagonalization with overlap
     ethr =  3.15E-08,  avg # of iterations =  1.0

     total cpu time spent up to now is       54.1 secs

     total energy              =    -190.21300441 Ry
     Harris-Foulkes estimate   =    -190.21300626 Ry
     estimated scf accuracy    <       0.00000251 Ry

     iteration #  7     ecut=    40.00 Ry     beta=0.70
     Davidson diagonalization with overlap
     ethr =  1.39E-08,  avg # of iterations =  2.0

     total cpu time spent up to now is       54.3 secs

     total energy              =    -190.21300513 Ry
     Harris-Foulkes estimate   =    -190.21300518 Ry
     estimated scf accuracy    <       0.00000009 Ry

     iteration #  8     ecut=    40.00 Ry     beta=0.70
     Davidson diagonalization with overlap
     ethr =  5.00E-10,  avg # of iterations =  2.0

     total cpu time spent up to now is       54.5 secs

     total energy              =    -190.21300514 Ry
     Harris-Foulkes estimate   =    -190.21300515 Ry
     estimated scf accuracy    <          5.3E-09 Ry

     iteration #  9     ecut=    40.00 Ry     beta=0.70
     Davidson diagonalization with overlap
     ethr =  2.96E-11,  avg # of iterations =  2.0

     total cpu time spent up to now is       54.8 secs

     End of self-consistent calculation

     Number of k-points >= 100: set verbosity='high' to print the bands.

     the Fermi energy is     1.7755 ev

!    total energy              =    -190.21300514 Ry
     Harris-Foulkes estimate   =    -190.21300514 Ry
     estimated scf accuracy    <          1.1E-10 Ry

     The total energy is the sum of the following terms:

     one-electron contribution =    -174.53221154 Ry
     hartree contribution      =      88.12820387 Ry
     xc contribution           =     -28.54759014 Ry
     ewald contribution        =     -75.26127968 Ry
     smearing contrib. (-TS)   =      -0.00012765 Ry

     convergence has been achieved in   9 iterations

     Forces acting on atoms (Ry/au):

     atom    1 type  1   force =    -0.00000000   -0.00000000    0.00000000
     atom    2 type  1   force =     0.00000000    0.00000000    0.00000000

     Total force =     0.000000     Total SCF correction =     0.000000


     entering subroutine stress ...

          total   stress  (Ry/bohr**3)                   (kbar)     P=    0.62
   0.00000410  -0.00000000   0.00000000          0.60     -0.00      0.00
  -0.00000000   0.00000410  -0.00000000         -0.00      0.60     -0.00
   0.00000000  -0.00000000   0.00000448          0.00     -0.00      0.66


     number of scf cycles    =   9
     number of bfgs steps    =   8

     enthalpy old            =    -190.2103908376 Ry
     enthalpy new            =    -190.2103918439 Ry

     CASE: enthalpy_new < enthalpy_old


     WARNING: bfgs curvature condition failed, Theta= 0.944
     new trust radius        =       0.0027677665 bohr
     new conv_thr            =       0.0000000010 Ry

     new unit-cell volume =    479.74045 a.u.^3 (    71.09020 Ang^3 )

CELL_PARAMETERS (alat=  6.99385000)
   0.997426450  -0.000000000  -0.000000000
  -0.498713225   0.863796644   0.000000000
   0.000000000   0.000000000   1.627664931

ATOMIC_POSITIONS (crystal)
Na      -0.000000000  -0.000000000   0.000000000
Na       0.666666000   0.333333000   0.500000000



     Writing output data file na_hcp_0.8$.save
     NEW-OLD atomic charge density approx. for the potential
     extrapolated charge   17.97014, renormalised to   18.00000

     total cpu time spent up to now is       57.7 secs

     per-process dynamical memory:    23.1 Mb

     Self-consistent Calculation

     iteration #  1     ecut=    40.00 Ry     beta=0.70
     Davidson diagonalization with overlap
     ethr =  1.00E-06,  avg # of iterations =  2.0

     total cpu time spent up to now is       58.0 secs

     total energy              =    -190.21271000 Ry
     Harris-Foulkes estimate   =    -190.44372039 Ry
     estimated scf accuracy    <       0.00016291 Ry

     iteration #  2     ecut=    40.00 Ry     beta=0.70
     Davidson diagonalization with overlap
     ethr =  9.05E-07,  avg # of iterations =  3.0

     total cpu time spent up to now is       58.3 secs

     total energy              =    -190.21300680 Ry
     Harris-Foulkes estimate   =    -190.21312657 Ry
     estimated scf accuracy    <       0.00027287 Ry

     iteration #  3     ecut=    40.00 Ry     beta=0.70
     Davidson diagonalization with overlap
     ethr =  9.05E-07,  avg # of iterations =  2.0

     total cpu time spent up to now is       58.5 secs

     total energy              =    -190.21300692 Ry
     Harris-Foulkes estimate   =    -190.21302500 Ry
     estimated scf accuracy    <       0.00005223 Ry

     iteration #  4     ecut=    40.00 Ry     beta=0.70
     Davidson diagonalization with overlap
     ethr =  2.90E-07,  avg # of iterations =  1.0

     total cpu time spent up to now is       58.7 secs

     total energy              =    -190.21300713 Ry
     Harris-Foulkes estimate   =    -190.21300913 Ry
     estimated scf accuracy    <       0.00001725 Ry

     iteration #  5     ecut=    40.00 Ry     beta=0.70
     Davidson diagonalization with overlap
     ethr =  9.58E-08,  avg # of iterations =  1.0

     total cpu time spent up to now is       58.9 secs

     total energy              =    -190.21300376 Ry
     Harris-Foulkes estimate   =    -190.21300737 Ry
     estimated scf accuracy    <       0.00001273 Ry

     iteration #  6     ecut=    40.00 Ry     beta=0.70
     Davidson diagonalization with overlap
     ethr =  7.07E-08,  avg # of iterations =  1.0

     total cpu time spent up to now is       59.1 secs

     total energy              =    -190.21299996 Ry
     Harris-Foulkes estimate   =    -190.21300406 Ry
     estimated scf accuracy    <       0.00000569 Ry

     iteration #  7     ecut=    40.00 Ry     beta=0.70
     Davidson diagonalization with overlap
     ethr =  3.16E-08,  avg # of iterations =  2.0

     total cpu time spent up to now is       59.3 secs

     total energy              =    -190.21300151 Ry
     Harris-Foulkes estimate   =    -190.21300158 Ry
     estimated scf accuracy    <       0.00000011 Ry

     iteration #  8     ecut=    40.00 Ry     beta=0.70
     Davidson diagonalization with overlap
     ethr =  5.98E-10,  avg # of iterations =  2.0

     total cpu time spent up to now is       59.5 secs

     End of self-consistent calculation

     Number of k-points >= 100: set verbosity='high' to print the bands.

     the Fermi energy is     1.7827 ev

!    total energy              =    -190.21300153 Ry
     Harris-Foulkes estimate   =    -190.21300153 Ry
     estimated scf accuracy    <          9.0E-10 Ry

     The total energy is the sum of the following terms:

     one-electron contribution =    -174.45931732 Ry
     hartree contribution      =      88.09742295 Ry
     xc contribution           =     -28.54806170 Ry
     ewald contribution        =     -75.30291788 Ry
     smearing contrib. (-TS)   =      -0.00012758 Ry

     convergence has been achieved in   8 iterations

     Forces acting on atoms (Ry/au):

     atom    1 type  1   force =     0.00000000    0.00000000    0.00000000
     atom    2 type  1   force =    -0.00000000   -0.00000000    0.00000000

     Total force =     0.000000     Total SCF correction =     0.000000


     entering subroutine stress ...

          total   stress  (Ry/bohr**3)                   (kbar)     P=    0.92
   0.00000624  -0.00000000  -0.00000000          0.92     -0.00     -0.00
  -0.00000000   0.00000624  -0.00000000         -0.00      0.92     -0.00
  -0.00000000  -0.00000000   0.00000638         -0.00     -0.00      0.94


     number of scf cycles    =  10
     number of bfgs steps    =   9

     enthalpy old            =    -190.2103918439 Ry
     enthalpy new            =    -190.2103925595 Ry

     CASE: enthalpy_new < enthalpy_old

     new trust radius        =       0.0010977072 bohr
     new conv_thr            =       0.0000000010 Ry

     new unit-cell volume =    480.05885 a.u.^3 (    71.13738 Ang^3 )

CELL_PARAMETERS (alat=  6.99385000)
   0.997676389  -0.000000000  -0.000000000
  -0.498838195   0.864013098   0.000000000
   0.000000000   0.000000000   1.627929215

ATOMIC_POSITIONS (crystal)
Na      -0.000000000  -0.000000000   0.000000000
Na       0.666666000   0.333333000   0.500000000



     Writing output data file na_hcp_0.8$.save
     NEW-OLD atomic charge density approx. for the potential
     extrapolated charge   18.01193, renormalised to   18.00000

     total cpu time spent up to now is       66.4 secs

     per-process dynamical memory:    23.1 Mb

     Self-consistent Calculation

     iteration #  1     ecut=    40.00 Ry     beta=0.70
     Davidson diagonalization with overlap
     ethr =  1.00E-06,  avg # of iterations =  2.0

     total cpu time spent up to now is       66.6 secs

     total energy              =    -190.21295603 Ry
     Harris-Foulkes estimate   =    -190.12077977 Ry
     estimated scf accuracy    <       0.00002641 Ry

     iteration #  2     ecut=    40.00 Ry     beta=0.70
     Davidson diagonalization with overlap
     ethr =  1.47E-07,  avg # of iterations =  3.0

     total cpu time spent up to now is       66.9 secs

     total energy              =    -190.21300394 Ry
     Harris-Foulkes estimate   =    -190.21302327 Ry
     estimated scf accuracy    <       0.00004396 Ry

     iteration #  3     ecut=    40.00 Ry     beta=0.70
     Davidson diagonalization with overlap
     ethr =  1.47E-07,  avg # of iterations =  2.0

     total cpu time spent up to now is       67.2 secs

     total energy              =    -190.21300400 Ry
     Harris-Foulkes estimate   =    -190.21300687 Ry
     estimated scf accuracy    <       0.00000842 Ry

     iteration #  4     ecut=    40.00 Ry     beta=0.70
     Davidson diagonalization with overlap
     ethr =  4.68E-08,  avg # of iterations =  1.0

     total cpu time spent up to now is       67.3 secs

     total energy              =    -190.21300386 Ry
     Harris-Foulkes estimate   =    -190.21300435 Ry
     estimated scf accuracy    <       0.00000285 Ry

     iteration #  5     ecut=    40.00 Ry     beta=0.70
     Davidson diagonalization with overlap
     ethr =  1.58E-08,  avg # of iterations =  1.0

     total cpu time spent up to now is       67.5 secs

     total energy              =    -190.21300340 Ry
     Harris-Foulkes estimate   =    -190.21300391 Ry
     estimated scf accuracy    <       0.00000177 Ry

     iteration #  6     ecut=    40.00 Ry     beta=0.70
     Davidson diagonalization with overlap
     ethr =  9.81E-09,  avg # of iterations =  1.0

     total cpu time spent up to now is       67.7 secs

     total energy              =    -190.21300289 Ry
     Harris-Foulkes estimate   =    -190.21300344 Ry
     estimated scf accuracy    <       0.00000079 Ry

     iteration #  7     ecut=    40.00 Ry     beta=0.70
     Davidson diagonalization with overlap
     ethr =  4.39E-09,  avg # of iterations =  2.0

     total cpu time spent up to now is       68.0 secs

     total energy              =    -190.21300309 Ry
     Harris-Foulkes estimate   =    -190.21300309 Ry
     estimated scf accuracy    <          3.2E-09 Ry

     iteration #  8     ecut=    40.00 Ry     beta=0.70
     Davidson diagonalization with overlap
     ethr =  1.80E-11,  avg # of iterations =  1.9

     total cpu time spent up to now is       68.2 secs

     total energy              =    -190.21300309 Ry
     Harris-Foulkes estimate   =    -190.21300309 Ry
     estimated scf accuracy    <          1.6E-09 Ry

     iteration #  9     ecut=    40.00 Ry     beta=0.70
     Davidson diagonalization with overlap
     ethr =  8.92E-12,  avg # of iterations =  1.0

     total cpu time spent up to now is       68.4 secs

     total energy              =    -190.21300309 Ry
     Harris-Foulkes estimate   =    -190.21300309 Ry
     estimated scf accuracy    <          1.8E-09 Ry

     iteration # 10     ecut=    40.00 Ry     beta=0.70
     Davidson diagonalization with overlap
     ethr =  8.92E-12,  avg # of iterations =  2.0

     total cpu time spent up to now is       68.6 secs

     total energy              =    -190.21300309 Ry
     Harris-Foulkes estimate   =    -190.21300309 Ry
     estimated scf accuracy    <          1.1E-09 Ry

     iteration # 11     ecut=    40.00 Ry     beta=0.70
     Davidson diagonalization with overlap
     ethr =  5.88E-12,  avg # of iterations =  2.0

     total cpu time spent up to now is       68.9 secs

     End of self-consistent calculation

     Number of k-points >= 100: set verbosity='high' to print the bands.

     the Fermi energy is     1.7798 ev

!    total energy              =    -190.21300309 Ry
     Harris-Foulkes estimate   =    -190.21300309 Ry
     estimated scf accuracy    <          5.5E-12 Ry

     The total energy is the sum of the following terms:

     one-electron contribution =    -174.48835737 Ry
     hartree contribution      =      88.10959078 Ry
     xc contribution           =     -28.54784711 Ry
     ewald contribution        =     -75.28626178 Ry
     smearing contrib. (-TS)   =      -0.00012760 Ry

     convergence has been achieved in  11 iterations

     Forces acting on atoms (Ry/au):

     atom    1 type  1   force =    -0.00000000   -0.00000000    0.00000000
     atom    2 type  1   force =     0.00000000    0.00000000    0.00000000

     Total force =     0.000000     Total SCF correction =     0.000000


     entering subroutine stress ...

          total   stress  (Ry/bohr**3)                   (kbar)     P=    0.68
   0.00000451  -0.00000000   0.00000000          0.66     -0.00      0.00
  -0.00000000   0.00000451  -0.00000000         -0.00      0.66     -0.00
   0.00000000  -0.00000000   0.00000476          0.00     -0.00      0.70


     number of scf cycles    =  11
     number of bfgs steps    =  10

     enthalpy old            =    -190.2103925595 Ry
     enthalpy new            =    -190.2103923888 Ry

     CASE: enthalpy_new > enthalpy_old

     new trust radius        =       0.0003340893 bohr
     new conv_thr            =       0.0000000010 Ry

     new unit-cell volume =    479.83733 a.u.^3 (    71.10456 Ang^3 )

CELL_PARAMETERS (alat=  6.99385000)
   0.997502513  -0.000000000  -0.000000000
  -0.498751257   0.863862517   0.000000000
   0.000000000   0.000000000   1.627745360

ATOMIC_POSITIONS (crystal)
Na      -0.000000000  -0.000000000   0.000000000
Na       0.666666000   0.333333000   0.500000000



     Writing output data file na_hcp_0.8$.save
     NEW-OLD atomic charge density approx. for the potential
     extrapolated charge   17.99170, renormalised to   18.00000

     total cpu time spent up to now is       76.0 secs

     per-process dynamical memory:    23.1 Mb

     Self-consistent Calculation

     iteration #  1     ecut=    40.00 Ry     beta=0.70
     Davidson diagonalization with overlap
     ethr =  1.00E-06,  avg # of iterations =  2.0

     Threshold (ethr) on eigenvalues was too large:
     Diagonalizing with lowered threshold

     Davidson diagonalization with overlap
     ethr =  7.03E-08,  avg # of iterations =  1.0

     total cpu time spent up to now is       76.4 secs

     total energy              =    -190.21297935 Ry
     Harris-Foulkes estimate   =    -190.27717351 Ry
     estimated scf accuracy    <       0.00001268 Ry

     iteration #  2     ecut=    40.00 Ry     beta=0.70
     Davidson diagonalization with overlap
     ethr =  7.05E-08,  avg # of iterations =  3.0

     total cpu time spent up to now is       76.7 secs

     total energy              =    -190.21300244 Ry
     Harris-Foulkes estimate   =    -190.21301175 Ry
     estimated scf accuracy    <       0.00002122 Ry

     iteration #  3     ecut=    40.00 Ry     beta=0.70
     Davidson diagonalization with overlap
     ethr =  7.05E-08,  avg # of iterations =  2.0

     total cpu time spent up to now is       77.0 secs

     total energy              =    -190.21300244 Ry
     Harris-Foulkes estimate   =    -190.21300385 Ry
     estimated scf accuracy    <       0.00000407 Ry

     iteration #  4     ecut=    40.00 Ry     beta=0.70
     Davidson diagonalization with overlap
     ethr =  2.26E-08,  avg # of iterations =  1.0

     total cpu time spent up to now is       77.1 secs

     total energy              =    -190.21300242 Ry
     Harris-Foulkes estimate   =    -190.21300261 Ry
     estimated scf accuracy    <       0.00000134 Ry

     iteration #  5     ecut=    40.00 Ry     beta=0.70
     Davidson diagonalization with overlap
     ethr =  7.46E-09,  avg # of iterations =  1.0

     total cpu time spent up to now is       77.3 secs

     total energy              =    -190.21300218 Ry
     Harris-Foulkes estimate   =    -190.21300244 Ry
     estimated scf accuracy    <       0.00000091 Ry

     iteration #  6     ecut=    40.00 Ry     beta=0.70
     Davidson diagonalization with overlap
     ethr =  5.07E-09,  avg # of iterations =  1.0

     total cpu time spent up to now is       77.5 secs

     total energy              =    -190.21300191 Ry
     Harris-Foulkes estimate   =    -190.21300220 Ry
     estimated scf accuracy    <       0.00000042 Ry

     iteration #  7     ecut=    40.00 Ry     beta=0.70
     Davidson diagonalization with overlap
     ethr =  2.31E-09,  avg # of iterations =  2.0

     total cpu time spent up to now is       77.8 secs

     total energy              =    -190.21300202 Ry
     Harris-Foulkes estimate   =    -190.21300202 Ry
     estimated scf accuracy    <          2.9E-09 Ry

     iteration #  8     ecut=    40.00 Ry     beta=0.70
     Davidson diagonalization with overlap
     ethr =  1.60E-11,  avg # of iterations =  2.0

     total cpu time spent up to now is       78.0 secs

     End of self-consistent calculation

     Number of k-points >= 100: set verbosity='high' to print the bands.

     the Fermi energy is     1.7818 ev

!    total energy              =    -190.21300202 Ry
     Harris-Foulkes estimate   =    -190.21300202 Ry
     estimated scf accuracy    <          5.3E-11 Ry

     The total energy is the sum of the following terms:

     one-electron contribution =    -174.46808554 Ry
     hartree contribution      =      88.10104010 Ry
     xc contribution           =     -28.54798079 Ry
     ewald contribution        =     -75.29784820 Ry
     smearing contrib. (-TS)   =      -0.00012759 Ry

     convergence has been achieved in   8 iterations

     Forces acting on atoms (Ry/au):

     atom    1 type  1   force =     0.00000000    0.00000000    0.00000000
     atom    2 type  1   force =     0.00000000    0.00000000    0.00000000

     Total force =     0.000000     Total SCF correction =     0.000000


     entering subroutine stress ...

          total   stress  (Ry/bohr**3)                   (kbar)     P=    0.78
   0.00000521  -0.00000000   0.00000000          0.77     -0.00      0.00
  -0.00000000   0.00000521  -0.00000000         -0.00      0.77     -0.00
   0.00000000  -0.00000000   0.00000539          0.00     -0.00      0.79


     bfgs converged in  12 scf cycles and  10 bfgs steps
     (criteria: energy <  1.0E-04, force <  1.0E-03, cell <  5.0E-02)

     End of BFGS Geometry Optimization

     Final enthalpy =    -190.2103925239 Ry
Begin final coordinates
     new unit-cell volume =    479.83733 a.u.^3 (    71.10456 Ang^3 )

CELL_PARAMETERS (alat=  6.99385000)
   0.997502513  -0.000000000  -0.000000000
  -0.498751257   0.863862517   0.000000000
   0.000000000   0.000000000   1.627745360

ATOMIC_POSITIONS (crystal)
Na      -0.000000000  -0.000000000   0.000000000
Na       0.666666000   0.333333000   0.500000000
End final coordinates



     A final scf calculation at the relaxed structure.
     The G-vectors are recalculated for the final unit cell
     Results may differ from those at the preceding step.
 
     Parallelization info
     --------------------
     sticks:   dense  smooth     PW     G-vecs:    dense   smooth      PW
     Min         133      66     20                 5793     2033     344
     Max         134      67     21                 5800     2041     349
     Sum        1069     535    163                46373    16299    2767
 


     bravais-lattice index     =            4
     lattice parameter (alat)  =       6.9939  a.u.
     unit-cell volume          =     479.8373 (a.u.)^3
     number of atoms/cell      =            2
     number of atomic types    =            1
     number of electrons       =        18.00
     number of Kohn-Sham states=           13
     kinetic-energy cutoff     =      40.0000  Ry
     charge density cutoff     =     320.0000  Ry
     convergence threshold     =      1.0E-09
     mixing beta               =       0.7000
     number of iterations used =            8  plain     mixing
     Exchange-correlation      = SLA  PW   PBE  PBE ( 1  4  3  4 0 0)

     celldm(1)=   6.993850  celldm(2)=   0.000000  celldm(3)=   1.630460
     celldm(4)=   0.000000  celldm(5)=   0.000000  celldm(6)=   0.000000

     crystal axes: (cart. coord. in units of alat)
               a(1) = (   0.997503  -0.000000  -0.000000 )  
               a(2) = (  -0.498751   0.863863   0.000000 )  
               a(3) = (   0.000000   0.000000   1.627745 )  

     reciprocal axes: (cart. coord. in units 2 pi/alat)
               b(1) = (  1.002504  0.578796 -0.000000 )  
               b(2) = (  0.000000  1.157592 -0.000000 )  
               b(3) = (  0.000000 -0.000000  0.614347 )  


     PseudoPot. # 1 for Na read from file:
     ./Na_pbe_v1.uspp.F.UPF
     MD5 check sum: 76a99c7e9422403d3e93cbc85ab7bccb
     Pseudo is Ultrasoft, Zval =  9.0
     Generated by new atomic code, or converted to UPF format
     Using radial grid of  819 points,  5 beta functions with: 
                l(1) =   0
                l(2) =   0
                l(3) =   1
                l(4) =   1
                l(5) =   2
     Q(r) pseudized with  8 coefficients,  rinner =    1.250   1.250   1.250
                                                       1.250   1.250

     atomic species   valence    mass     pseudopotential
        Na             9.00    22.99000     Na( 1.00)

     12 Sym. Ops. (no inversion) found
          (note: 12 additional sym.ops. were found but ignored
           their fractional translations are incommensurate with FFT grid)


   Cartesian axes

     site n.     atom                  positions (alat units)
         1           Na  tau(   1) = (  -0.0000000  -0.0000000   0.0000000  )
         2           Na  tau(   2) = (   0.4987508   0.2879539   0.8138727  )

     number of k points=   366  Marzari-Vanderbilt smearing, width (Ry)=  0.0200

     Number of k-points >= 100: set verbosity='high' to print them.

     Dense  grid:    46373 G-vectors     FFT dimensions: (  40,  40,  72)

     Smooth grid:    16299 G-vectors     FFT dimensions: (  30,  30,  45)

     Largest allocated arrays     est. size (Mb)     dimensions
        Kohn-Sham Wavefunctions         0.05 Mb     (     269,   13)
        NL pseudopotentials             0.11 Mb     (     269,   26)
        Each V/rho on FFT grid          0.22 Mb     (   14400)
        Each G-vector array             0.04 Mb     (    5800)
        G-vector shells                 0.01 Mb     (    1746)
     Largest temporary arrays     est. size (Mb)     dimensions
        Auxiliary wavefunctions         0.21 Mb     (     269,   52)
        Each subspace H/S matrix        0.01 Mb     (      26,   26)
        Each <psi_i|beta_j> matrix      0.01 Mb     (      26,   13)
        Arrays for rho mixing           1.76 Mb     (   14400,    8)

     Initial potential from superposition of free atoms

     starting charge   17.98742, renormalised to   18.00000
     Starting wfc are   10 randomized atomic wfcs +    3 random wfc

     Writing output data file na_hcp_0.8$.save

     total cpu time spent up to now is       87.4 secs

     per-process dynamical memory:    21.7 Mb

     Self-consistent Calculation

     iteration #  1     ecut=    40.00 Ry     beta=0.70
     Davidson diagonalization with overlap
     c_bands:  1 eigenvalues not converged
     c_bands:  1 eigenvalues not converged
     c_bands:  1 eigenvalues not converged
     c_bands:  1 eigenvalues not converged
     c_bands:  1 eigenvalues not converged
     c_bands:  1 eigenvalues not converged
     ethr =  1.00E-06,  avg # of iterations = 13.2

     total cpu time spent up to now is       88.3 secs

     total energy              =    -190.21270478 Ry
     Harris-Foulkes estimate   =    -190.21316441 Ry
     estimated scf accuracy    <       0.00178239 Ry

     iteration #  2     ecut=    40.00 Ry     beta=0.70
     Davidson diagonalization with overlap
     ethr =  9.90E-06,  avg # of iterations =  2.0

     total cpu time spent up to now is       88.5 secs

     total energy              =    -190.21291713 Ry
     Harris-Foulkes estimate   =    -190.21296386 Ry
     estimated scf accuracy    <       0.00020036 Ry

     iteration #  3     ecut=    40.00 Ry     beta=0.70
     Davidson diagonalization with overlap
     ethr =  1.11E-06,  avg # of iterations =  2.0

     total cpu time spent up to now is       88.8 secs

     total energy              =    -190.21293797 Ry
     Harris-Foulkes estimate   =    -190.21294067 Ry
     estimated scf accuracy    <       0.00001276 Ry

     iteration #  4     ecut=    40.00 Ry     beta=0.70
     Davidson diagonalization with overlap
     ethr =  7.09E-08,  avg # of iterations =  1.6

     total cpu time spent up to now is       89.0 secs

     total energy              =    -190.21293918 Ry
     Harris-Foulkes estimate   =    -190.21293908 Ry
     estimated scf accuracy    <       0.00000002 Ry

     iteration #  5     ecut=    40.00 Ry     beta=0.70
     Davidson diagonalization with overlap
     ethr =  1.16E-10,  avg # of iterations =  3.1

     total cpu time spent up to now is       89.3 secs

     total energy              =    -190.21293927 Ry
     Harris-Foulkes estimate   =    -190.21293926 Ry
     estimated scf accuracy    <          4.7E-09 Ry

     iteration #  6     ecut=    40.00 Ry     beta=0.70
     Davidson diagonalization with overlap
     ethr =  2.59E-11,  avg # of iterations =  1.8

     total cpu time spent up to now is       89.5 secs

     End of self-consistent calculation

     Number of k-points >= 100: set verbosity='high' to print the bands.

     the Fermi energy is     1.7818 ev

!    total energy              =    -190.21293927 Ry
     Harris-Foulkes estimate   =    -190.21293927 Ry
     estimated scf accuracy    <          3.0E-11 Ry

     The total energy is the sum of the following terms:

     one-electron contribution =    -174.46797318 Ry
     hartree contribution      =      88.10096217 Ry
     xc contribution           =     -28.54795248 Ry
     ewald contribution        =     -75.29784820 Ry
     smearing contrib. (-TS)   =      -0.00012758 Ry

     convergence has been achieved in   6 iterations

     Forces acting on atoms (Ry/au):

     atom    1 type  1   force =     0.00000000    0.00000000    0.00000000
     atom    2 type  1   force =     0.00000000    0.00000000    0.00000000

     Total force =     0.000000     Total SCF correction =     0.000000


     entering subroutine stress ...

          total   stress  (Ry/bohr**3)                   (kbar)     P=    0.63
   0.00000421  -0.00000000   0.00000000          0.62     -0.00      0.00
  -0.00000000   0.00000421   0.00000000         -0.00      0.62      0.00
   0.00000000  -0.00000000   0.00000450          0.00     -0.00      0.66


     Writing output data file na_hcp_0.8$.save
 
     init_run     :      0.42s CPU      0.44s WALL (       2 calls)
     electrons    :     24.37s CPU     25.61s WALL (      13 calls)
     update_pot   :      1.42s CPU      1.77s WALL (      11 calls)
     forces       :      0.80s CPU      0.81s WALL (      13 calls)
     stress       :      1.88s CPU      1.90s WALL (      13 calls)

     Called by init_run:
     wfcinit      :      0.10s CPU      0.11s WALL (       2 calls)
     potinit      :      0.08s CPU      0.08s WALL (       2 calls)

     Called by electrons:
     c_bands      :     17.53s CPU     18.46s WALL (     108 calls)
     sum_band     :      4.57s CPU      4.69s WALL (     108 calls)
     v_of_rho     :      0.83s CPU      0.84s WALL (     116 calls)
     newd         :      1.16s CPU      1.20s WALL (     116 calls)
     mix_rho      :      0.13s CPU      0.08s WALL (     108 calls)

     Called by c_bands:
     init_us_2    :      0.25s CPU      0.26s WALL (    3904 calls)
     cegterg      :     15.87s CPU     16.34s WALL (    1728 calls)

     Called by sum_band:
     sum_band:bec :      0.03s CPU      0.02s WALL (    1728 calls)
     addusdens    :      1.96s CPU      1.91s WALL (     108 calls)

     Called by *egterg:
     h_psi        :      8.88s CPU      9.18s WALL (    5245 calls)
     s_psi        :      0.26s CPU      0.29s WALL (    5245 calls)
     g_psi        :      0.04s CPU      0.06s WALL (    3485 calls)
     cdiaghg      :      4.91s CPU      4.99s WALL (    4957 calls)

     Called by h_psi:
     add_vuspsi   :      0.30s CPU      0.31s WALL (    5245 calls)

     General routines
     calbec       :      0.59s CPU      0.62s WALL (    8013 calls)
     fft          :      0.56s CPU      0.49s WALL (    1939 calls)
     ffts         :      0.01s CPU      0.02s WALL (     224 calls)
     fftw         :      8.64s CPU      8.80s WALL (  133598 calls)
     interpolate  :      0.08s CPU      0.08s WALL (     224 calls)
 
     Parallel routines
     fft_scatter  :      3.31s CPU      3.41s WALL (  135761 calls)
 
     PWSCF        :  0m34.49s CPU     1m44.15s WALL

 
   This run was terminated on:  16:54:54  26Mar2018            

=------------------------------------------------------------------------------=
   JOB DONE.
=------------------------------------------------------------------------------=
Application 30366806 resources: utime ~19848s, stime ~103s, Rss ~37952, inblocks ~1452770, outblocks ~1819525
