
     Program PWSCF v.5.4.0 starts on 26Mar2018 at 16:49: 2 

     This program is part of the open-source Quantum ESPRESSO suite
     for quantum simulation of materials; please cite
         "P. Giannozzi et al., J. Phys.:Condens. Matter 21 395502 (2009);
          URL http://www.quantum-espresso.org", 
     in publications or presentations arising from this work. More details at
     http://www.quantum-espresso.org/quote

     Parallel version (MPI & OpenMP), running on     192 processor cores
     Number of MPI processes:               192
     Threads/MPI process:                     1
     K-points division:     npool     =      24
     R & G space division:  proc/nbgrp/npool/nimage =       8
     Waiting for input...
     Reading input from standard input

     Current dimensions of program PWSCF are:
     Max number of different atomic species (ntypx) = 10
     Max number of k-points (npk) =  40000
     Max angular momentum in pseudopotentials (lmaxx) =  3

     Subspace diagonalization in iterative solution of the eigenvalue problem:
     one sub-group per band group will be used
     scalapack distributed-memory algorithm (size of sub-group:  2*  2 procs)

 
     Parallelization info
     --------------------
     sticks:   dense  smooth     PW     G-vecs:    dense   smooth      PW
     Min         133      68     20                 5835     2056     346
     Max         134      69     21                 5844     2068     351
     Sum        1069     547    163                46721    16503    2779
 


     bravais-lattice index     =            4
     lattice parameter (alat)  =       6.9939  a.u.
     unit-cell volume          =     483.0474 (a.u.)^3
     number of atoms/cell      =            2
     number of atomic types    =            1
     number of electrons       =        18.00
     number of Kohn-Sham states=           13
     kinetic-energy cutoff     =      40.0000  Ry
     charge density cutoff     =     320.0000  Ry
     convergence threshold     =      1.0E-07
     mixing beta               =       0.7000
     number of iterations used =            8  plain     mixing
     Exchange-correlation      = SLA  PW   PBE  PBE ( 1  4  3  4 0 0)
     nstep                     =           50


     celldm(1)=   6.993850  celldm(2)=   0.000000  celldm(3)=   1.630460
     celldm(4)=   0.000000  celldm(5)=   0.000000  celldm(6)=   0.000000

     crystal axes: (cart. coord. in units of alat)
               a(1) = (   1.000000   0.000000   0.000000 )  
               a(2) = (  -0.500000   0.866025   0.000000 )  
               a(3) = (   0.000000   0.000000   1.630460 )  

     reciprocal axes: (cart. coord. in units 2 pi/alat)
               b(1) = (  1.000000  0.577350  0.000000 )  
               b(2) = (  0.000000  1.154701  0.000000 )  
               b(3) = (  0.000000  0.000000  0.613324 )  


     PseudoPot. # 1 for Na read from file:
     ./Na_pbe_v1.uspp.F.UPF
     MD5 check sum: 76a99c7e9422403d3e93cbc85ab7bccb
     Pseudo is Ultrasoft, Zval =  9.0
     Generated by new atomic code, or converted to UPF format
     Using radial grid of  819 points,  5 beta functions with: 
                l(1) =   0
                l(2) =   0
                l(3) =   1
                l(4) =   1
                l(5) =   2
     Q(r) pseudized with  8 coefficients,  rinner =    1.250   1.250   1.250
                                                       1.250   1.250

     atomic species   valence    mass     pseudopotential
        Na             9.00    22.99000     Na( 1.00)

     12 Sym. Ops. (no inversion) found
          (note: 12 additional sym.ops. were found but ignored
           their fractional translations are incommensurate with FFT grid)


   Cartesian axes

     site n.     atom                  positions (alat units)
         1           Na  tau(   1) = (   0.0000000   0.0000000   0.0000000  )
         2           Na  tau(   2) = (   0.4999995   0.2886748   0.8152300  )

     number of k points=   366  Marzari-Vanderbilt smearing, width (Ry)=  0.0200

     Number of k-points >= 100: set verbosity='high' to print them.

     Dense  grid:    46721 G-vectors     FFT dimensions: (  40,  40,  72)

     Smooth grid:    16503 G-vectors     FFT dimensions: (  30,  30,  45)

     Largest allocated arrays     est. size (Mb)     dimensions
        Kohn-Sham Wavefunctions         0.05 Mb     (     276,   13)
        NL pseudopotentials             0.11 Mb     (     276,   26)
        Each V/rho on FFT grid          0.22 Mb     (   14400)
        Each G-vector array             0.04 Mb     (    5844)
        G-vector shells                 0.04 Mb     (    5844)
     Largest temporary arrays     est. size (Mb)     dimensions
        Auxiliary wavefunctions         0.22 Mb     (     276,   52)
        Each subspace H/S matrix        0.01 Mb     (      26,   26)
        Each <psi_i|beta_j> matrix      0.01 Mb     (      26,   13)
        Arrays for rho mixing           1.76 Mb     (   14400,    8)

     Initial potential from superposition of free atoms

     starting charge   17.98742, renormalised to   18.00000
     Starting wfc are   10 randomized atomic wfcs +    3 random wfc

     total cpu time spent up to now is        0.4 secs

     per-process dynamical memory:    12.2 Mb

     Self-consistent Calculation

     iteration #  1     ecut=    40.00 Ry     beta=0.70
     Davidson diagonalization with overlap
     ethr =  1.00E-02,  avg # of iterations =  5.8

     Threshold (ethr) on eigenvalues was too large:
     Diagonalizing with lowered threshold

     Davidson diagonalization with overlap
     ethr =  9.43E-06,  avg # of iterations =  6.8

     total cpu time spent up to now is        1.3 secs

     total energy              =    -190.21279650 Ry
     Harris-Foulkes estimate   =    -190.21322628 Ry
     estimated scf accuracy    <       0.00175415 Ry

     iteration #  2     ecut=    40.00 Ry     beta=0.70
     Davidson diagonalization with overlap
     ethr =  9.75E-06,  avg # of iterations =  2.0

     total cpu time spent up to now is        1.5 secs

     total energy              =    -190.21299067 Ry
     Harris-Foulkes estimate   =    -190.21302957 Ry
     estimated scf accuracy    <       0.00018752 Ry

     iteration #  3     ecut=    40.00 Ry     beta=0.70
     Davidson diagonalization with overlap
     ethr =  1.04E-06,  avg # of iterations =  2.0

     total cpu time spent up to now is        1.8 secs

     total energy              =    -190.21300907 Ry
     Harris-Foulkes estimate   =    -190.21301156 Ry
     estimated scf accuracy    <       0.00001179 Ry

     iteration #  4     ecut=    40.00 Ry     beta=0.70
     Davidson diagonalization with overlap
     ethr =  6.55E-08,  avg # of iterations =  2.0

     total cpu time spent up to now is        2.0 secs

     End of self-consistent calculation

     Number of k-points >= 100: set verbosity='high' to print the bands.

     the Fermi energy is     1.7531 ev

!    total energy              =    -190.21301033 Ry
     Harris-Foulkes estimate   =    -190.21301022 Ry
     estimated scf accuracy    <       0.00000002 Ry

     The total energy is the sum of the following terms:

     one-electron contribution =    -174.76112389 Ry
     hartree contribution      =      88.22503611 Ry
     xc contribution           =     -28.54616021 Ry
     ewald contribution        =     -75.13063452 Ry
     smearing contrib. (-TS)   =      -0.00012781 Ry

     convergence has been achieved in   4 iterations

     Forces acting on atoms (Ry/au):

     atom    1 type  1   force =     0.00000000    0.00000000    0.00000000
     atom    2 type  1   force =     0.00000000    0.00000000    0.00000000

     Total force =     0.000000     Total SCF correction =     0.000001


     entering subroutine stress ...

          total   stress  (Ry/bohr**3)                   (kbar)     P=    0.14
   0.00000068   0.00000000  -0.00000000          0.10      0.00     -0.00
   0.00000000   0.00000068  -0.00000000          0.00      0.10     -0.00
  -0.00000000  -0.00000000   0.00000160         -0.00     -0.00      0.24


     BFGS Geometry Optimization

     number of scf cycles    =   1
     number of bfgs steps    =   0

     enthalpy new            =    -190.2133386966 Ry

     new trust radius        =       0.0002503168 bohr
     new conv_thr            =       0.0000001000 Ry

     new unit-cell volume =    483.10768 a.u.^3 (    71.58917 Ang^3 )

CELL_PARAMETERS (alat=  6.99385000)
   1.000033950   0.000000000  -0.000000000
  -0.500016975   0.866054805   0.000000000
  -0.000000000  -0.000000000   1.630552849

ATOMIC_POSITIONS (crystal)
Na       0.000000000   0.000000000   0.000000000
Na       0.666666000   0.333333000   0.500000000



     Writing output data file na_hcp_-0.1$.save
     NEW-OLD atomic charge density approx. for the potential
     extrapolated charge   18.00225, renormalised to   18.00000

     total cpu time spent up to now is       15.5 secs

     per-process dynamical memory:    23.1 Mb

     Self-consistent Calculation

     iteration #  1     ecut=    40.00 Ry     beta=0.70
     Davidson diagonalization with overlap
     ethr =  1.00E-06,  avg # of iterations =  2.0

     Threshold (ethr) on eigenvalues was too large:
     Diagonalizing with lowered threshold

     Davidson diagonalization with overlap
     ethr =  5.08E-09,  avg # of iterations =  1.0

     total cpu time spent up to now is       15.9 secs

     total energy              =    -190.21300876 Ry
     Harris-Foulkes estimate   =    -190.19562394 Ry
     estimated scf accuracy    <       0.00000092 Ry

     iteration #  2     ecut=    40.00 Ry     beta=0.70
     Davidson diagonalization with overlap
     ethr =  5.10E-09,  avg # of iterations =  3.0

     total cpu time spent up to now is       16.2 secs

     total energy              =    -190.21301044 Ry
     Harris-Foulkes estimate   =    -190.21301112 Ry
     estimated scf accuracy    <       0.00000155 Ry

     iteration #  3     ecut=    40.00 Ry     beta=0.70
     Davidson diagonalization with overlap
     ethr =  5.10E-09,  avg # of iterations =  2.0

     total cpu time spent up to now is       16.4 secs

     total energy              =    -190.21301045 Ry
     Harris-Foulkes estimate   =    -190.21301054 Ry
     estimated scf accuracy    <       0.00000030 Ry

     iteration #  4     ecut=    40.00 Ry     beta=0.70
     Davidson diagonalization with overlap
     ethr =  1.66E-09,  avg # of iterations =  1.0

     total cpu time spent up to now is       16.6 secs

     total energy              =    -190.21301038 Ry
     Harris-Foulkes estimate   =    -190.21301046 Ry
     estimated scf accuracy    <       0.00000011 Ry

     iteration #  5     ecut=    40.00 Ry     beta=0.70
     Davidson diagonalization with overlap
     ethr =  6.35E-10,  avg # of iterations =  2.0

     total cpu time spent up to now is       16.9 secs

     End of self-consistent calculation

     Number of k-points >= 100: set verbosity='high' to print the bands.

     the Fermi energy is     1.7524 ev

!    total energy              =    -190.21301041 Ry
     Harris-Foulkes estimate   =    -190.21301041 Ry
     estimated scf accuracy    <          8.7E-11 Ry

     The total energy is the sum of the following terms:

     one-electron contribution =    -174.76683490 Ry
     hartree contribution      =      88.22763117 Ry
     xc contribution           =     -28.54616928 Ry
     ewald contribution        =     -75.12750960 Ry
     smearing contrib. (-TS)   =      -0.00012780 Ry

     convergence has been achieved in   5 iterations

     Forces acting on atoms (Ry/au):

     atom    1 type  1   force =     0.00000000    0.00000000    0.00000000
     atom    2 type  1   force =     0.00000000    0.00000000    0.00000000

     Total force =     0.000000     Total SCF correction =     0.000000


     entering subroutine stress ...

          total   stress  (Ry/bohr**3)                   (kbar)     P=    0.05
   0.00000001  -0.00000000  -0.00000000          0.00     -0.00     -0.00
  -0.00000000   0.00000001   0.00000000         -0.00      0.00      0.00
  -0.00000000  -0.00000000   0.00000096         -0.00     -0.00      0.14


     number of scf cycles    =   2
     number of bfgs steps    =   1

     enthalpy old            =    -190.2133386966 Ry
     enthalpy new            =    -190.2133388157 Ry

     CASE: enthalpy_new < enthalpy_old

     new trust radius        =       0.0002753500 bohr
     new conv_thr            =       0.0000000010 Ry

     new unit-cell volume =    483.16361 a.u.^3 (    71.59746 Ang^3 )

CELL_PARAMETERS (alat=  6.99385000)
   1.000060517  -0.000000000  -0.000000000
  -0.500030259   0.866077813  -0.000000000
  -0.000000000   0.000000000   1.630654982

ATOMIC_POSITIONS (crystal)
Na       0.000000000   0.000000000   0.000000000
Na       0.666666000   0.333333000   0.500000000



     Writing output data file na_hcp_-0.1$.save
     NEW-OLD atomic charge density approx. for the potential
     extrapolated charge   18.00208, renormalised to   18.00000

     total cpu time spent up to now is       20.5 secs

     per-process dynamical memory:    23.1 Mb

     Self-consistent Calculation

     iteration #  1     ecut=    40.00 Ry     beta=0.70
     Davidson diagonalization with overlap
     ethr =  1.00E-06,  avg # of iterations =  2.0

     Threshold (ethr) on eigenvalues was too large:
     Diagonalizing with lowered threshold

     Davidson diagonalization with overlap
     ethr =  4.44E-09,  avg # of iterations =  1.0

     total cpu time spent up to now is       20.9 secs

     total energy              =    -190.21300900 Ry
     Harris-Foulkes estimate   =    -190.19688734 Ry
     estimated scf accuracy    <       0.00000080 Ry

     iteration #  2     ecut=    40.00 Ry     beta=0.70
     Davidson diagonalization with overlap
     ethr =  4.45E-09,  avg # of iterations =  3.0

     total cpu time spent up to now is       21.2 secs

     total energy              =    -190.21301045 Ry
     Harris-Foulkes estimate   =    -190.21301104 Ry
     estimated scf accuracy    <       0.00000133 Ry

     iteration #  3     ecut=    40.00 Ry     beta=0.70
     Davidson diagonalization with overlap
     ethr =  4.45E-09,  avg # of iterations =  2.0

     total cpu time spent up to now is       21.4 secs

     total energy              =    -190.21301045 Ry
     Harris-Foulkes estimate   =    -190.21301054 Ry
     estimated scf accuracy    <       0.00000026 Ry

     iteration #  4     ecut=    40.00 Ry     beta=0.70
     Davidson diagonalization with overlap
     ethr =  1.42E-09,  avg # of iterations =  1.0

     total cpu time spent up to now is       21.6 secs

     total energy              =    -190.21301045 Ry
     Harris-Foulkes estimate   =    -190.21301047 Ry
     estimated scf accuracy    <       0.00000009 Ry

     iteration #  5     ecut=    40.00 Ry     beta=0.70
     Davidson diagonalization with overlap
     ethr =  4.76E-10,  avg # of iterations =  1.0

     total cpu time spent up to now is       21.8 secs

     total energy              =    -190.21301044 Ry
     Harris-Foulkes estimate   =    -190.21301045 Ry
     estimated scf accuracy    <       0.00000006 Ry

     iteration #  6     ecut=    40.00 Ry     beta=0.70
     Davidson diagonalization with overlap
     ethr =  3.08E-10,  avg # of iterations =  1.0

     total cpu time spent up to now is       22.0 secs

     total energy              =    -190.21301042 Ry
     Harris-Foulkes estimate   =    -190.21301044 Ry
     estimated scf accuracy    <       0.00000002 Ry

     iteration #  7     ecut=    40.00 Ry     beta=0.70
     Davidson diagonalization with overlap
     ethr =  1.33E-10,  avg # of iterations =  2.0

     total cpu time spent up to now is       22.2 secs

     End of self-consistent calculation

     Number of k-points >= 100: set verbosity='high' to print the bands.

     the Fermi energy is     1.7519 ev

!    total energy              =    -190.21301043 Ry
     Harris-Foulkes estimate   =    -190.21301043 Ry
     estimated scf accuracy    <          5.8E-10 Ry

     The total energy is the sum of the following terms:

     one-electron contribution =    -174.77174200 Ry
     hartree contribution      =      88.22957173 Ry
     xc contribution           =     -28.54609945 Ry
     ewald contribution        =     -75.12461293 Ry
     smearing contrib. (-TS)   =      -0.00012778 Ry

     convergence has been achieved in   7 iterations

     Forces acting on atoms (Ry/au):

     atom    1 type  1   force =     0.00000000    0.00000000    0.00000000
     atom    2 type  1   force =     0.00000000    0.00000000   -0.00000000

     Total force =     0.000000     Total SCF correction =     0.000000


     entering subroutine stress ...

          total   stress  (Ry/bohr**3)                   (kbar)     P=   -0.12
  -0.00000111  -0.00000000  -0.00000000         -0.16     -0.00     -0.00
  -0.00000000  -0.00000111   0.00000000         -0.00     -0.16      0.00
  -0.00000000  -0.00000000  -0.00000019         -0.00     -0.00     -0.03


     number of scf cycles    =   3
     number of bfgs steps    =   2

     enthalpy old            =    -190.2133388157 Ry
     enthalpy new            =    -190.2133388751 Ry

     CASE: enthalpy_new < enthalpy_old

     small trust_radius: resetting bfgs history

     new trust radius        =       0.0000542579 bohr
     new conv_thr            =       0.0000000010 Ry

     new unit-cell volume =    483.15923 a.u.^3 (    71.59681 Ang^3 )

CELL_PARAMETERS (alat=  6.99385000)
   1.000049816  -0.000000000  -0.000000000
  -0.500024908   0.866068545  -0.000000000
  -0.000000000   0.000000000   1.630675108

ATOMIC_POSITIONS (crystal)
Na       0.000000000   0.000000000   0.000000000
Na       0.666666000   0.333333000   0.500000000



     Writing output data file na_hcp_-0.1$.save
     NEW-OLD atomic charge density approx. for the potential
     extrapolated charge   17.99984, renormalised to   18.00000

     total cpu time spent up to now is       27.3 secs

     per-process dynamical memory:    23.1 Mb

     Self-consistent Calculation

     iteration #  1     ecut=    40.00 Ry     beta=0.70
     Davidson diagonalization with overlap
     ethr =  1.00E-06,  avg # of iterations =  2.0

     Threshold (ethr) on eigenvalues was too large:
     Diagonalizing with lowered threshold

     Davidson diagonalization with overlap
     ethr =  4.42E-11,  avg # of iterations =  1.1

     total cpu time spent up to now is       27.8 secs

     total energy              =    -190.21301042 Ry
     Harris-Foulkes estimate   =    -190.21427223 Ry
     estimated scf accuracy    <          8.1E-09 Ry

     iteration #  2     ecut=    40.00 Ry     beta=0.70
     Davidson diagonalization with overlap
     ethr =  4.48E-11,  avg # of iterations =  3.0

     total cpu time spent up to now is       28.0 secs

     total energy              =    -190.21301043 Ry
     Harris-Foulkes estimate   =    -190.21301044 Ry
     estimated scf accuracy    <          9.2E-09 Ry

     iteration #  3     ecut=    40.00 Ry     beta=0.70
     Davidson diagonalization with overlap
     ethr =  4.48E-11,  avg # of iterations =  2.0

     total cpu time spent up to now is       28.3 secs

     total energy              =    -190.21301043 Ry
     Harris-Foulkes estimate   =    -190.21301043 Ry
     estimated scf accuracy    <          1.3E-09 Ry

     iteration #  4     ecut=    40.00 Ry     beta=0.70
     Davidson diagonalization with overlap
     ethr =  7.49E-12,  avg # of iterations =  1.0

     total cpu time spent up to now is       28.5 secs

     End of self-consistent calculation

     Number of k-points >= 100: set verbosity='high' to print the bands.

     the Fermi energy is     1.7519 ev

!    total energy              =    -190.21301043 Ry
     Harris-Foulkes estimate   =    -190.21301043 Ry
     estimated scf accuracy    <          7.2E-10 Ry

     The total energy is the sum of the following terms:

     one-electron contribution =    -174.77132110 Ry
     hartree contribution      =      88.22937748 Ry
     xc contribution           =     -28.54609773 Ry
     ewald contribution        =     -75.12484131 Ry
     smearing contrib. (-TS)   =      -0.00012777 Ry

     convergence has been achieved in   4 iterations

     Forces acting on atoms (Ry/au):

     atom    1 type  1   force =     0.00000000    0.00000000    0.00000000
     atom    2 type  1   force =     0.00000000    0.00000000    0.00000000

     Total force =     0.000000     Total SCF correction =     0.000000


     entering subroutine stress ...

          total   stress  (Ry/bohr**3)                   (kbar)     P=   -0.13
  -0.00000119  -0.00000000   0.00000000         -0.18     -0.00      0.00
  -0.00000000  -0.00000119   0.00000000         -0.00     -0.18      0.00
  -0.00000000  -0.00000000  -0.00000030         -0.00     -0.00     -0.04


     number of scf cycles    =   4
     number of bfgs steps    =   3

     enthalpy old            =    -190.2133388751 Ry
     enthalpy new            =    -190.2133388781 Ry

     CASE: enthalpy_new < enthalpy_old


     WARNING: bfgs curvature condition failed, Theta= 0.783
     Message from routine bfgs:
     history already reset at previous step: stopping
     small trust_radius: resetting bfgs history

     new trust radius        =       0.0000561411 bohr
     new conv_thr            =       0.0000000010 Ry

     new unit-cell volume =    483.15145 a.u.^3 (    71.59566 Ang^3 )

CELL_PARAMETERS (alat=  6.99385000)
   1.000037045  -0.000000000  -0.000000000
  -0.500018522   0.866057485  -0.000000000
  -0.000000000   0.000000000   1.630690477

ATOMIC_POSITIONS (crystal)
Na       0.000000000   0.000000000   0.000000000
Na       0.666666000   0.333333000   0.500000000



     Writing output data file na_hcp_-0.1$.save
     NEW-OLD atomic charge density approx. for the potential
     extrapolated charge   17.99971, renormalised to   18.00000

     total cpu time spent up to now is       43.0 secs

     per-process dynamical memory:    23.1 Mb

     Self-consistent Calculation

     iteration #  1     ecut=    40.00 Ry     beta=0.70
     Davidson diagonalization with overlap
     ethr =  1.00E-06,  avg # of iterations =  2.0

     Threshold (ethr) on eigenvalues was too large:
     Diagonalizing with lowered threshold

     Davidson diagonalization with overlap
     ethr =  1.18E-10,  avg # of iterations =  1.1

     total cpu time spent up to now is       43.4 secs

     total energy              =    -190.21301041 Ry
     Harris-Foulkes estimate   =    -190.21525497 Ry
     estimated scf accuracy    <       0.00000002 Ry

     iteration #  2     ecut=    40.00 Ry     beta=0.70
     Davidson diagonalization with overlap
     ethr =  1.19E-10,  avg # of iterations =  3.0

     total cpu time spent up to now is       43.7 secs

     total energy              =    -190.21301044 Ry
     Harris-Foulkes estimate   =    -190.21301045 Ry
     estimated scf accuracy    <       0.00000003 Ry

     iteration #  3     ecut=    40.00 Ry     beta=0.70
     Davidson diagonalization with overlap
     ethr =  1.19E-10,  avg # of iterations =  2.0

     total cpu time spent up to now is       43.9 secs

     total energy              =    -190.21301044 Ry
     Harris-Foulkes estimate   =    -190.21301044 Ry
     estimated scf accuracy    <          4.5E-09 Ry

     iteration #  4     ecut=    40.00 Ry     beta=0.70
     Davidson diagonalization with overlap
     ethr =  2.49E-11,  avg # of iterations =  1.0

     total cpu time spent up to now is       44.1 secs

     total energy              =    -190.21301044 Ry
     Harris-Foulkes estimate   =    -190.21301044 Ry
     estimated scf accuracy    <          1.9E-09 Ry

     iteration #  5     ecut=    40.00 Ry     beta=0.70
     Davidson diagonalization with overlap
     ethr =  1.07E-11,  avg # of iterations =  1.0

     total cpu time spent up to now is       44.3 secs

     End of self-consistent calculation

     Number of k-points >= 100: set verbosity='high' to print the bands.

     the Fermi energy is     1.7520 ev

!    total energy              =    -190.21301044 Ry
     Harris-Foulkes estimate   =    -190.21301044 Ry
     estimated scf accuracy    <          6.9E-10 Ry

     The total energy is the sum of the following terms:

     one-electron contribution =    -174.77061173 Ry
     hartree contribution      =      88.22907779 Ry
     xc contribution           =     -28.54610242 Ry
     ewald contribution        =     -75.12524631 Ry
     smearing contrib. (-TS)   =      -0.00012777 Ry

     convergence has been achieved in   5 iterations

     Forces acting on atoms (Ry/au):

     atom    1 type  1   force =     0.00000000    0.00000000   -0.00000000
     atom    2 type  1   force =     0.00000000    0.00000000    0.00000000

     Total force =     0.000000     Total SCF correction =     0.000000


     entering subroutine stress ...

          total   stress  (Ry/bohr**3)                   (kbar)     P=   -0.13
  -0.00000115  -0.00000000  -0.00000000         -0.17     -0.00     -0.00
  -0.00000000  -0.00000115  -0.00000000         -0.00     -0.17     -0.00
  -0.00000000   0.00000000  -0.00000028         -0.00      0.00     -0.04


     bfgs converged in   5 scf cycles and   4 bfgs steps
     (criteria: energy <  1.0E-04, force <  1.0E-03, cell <  5.0E-02)

     End of BFGS Geometry Optimization

     Final enthalpy =    -190.2133388778 Ry
Begin final coordinates
     new unit-cell volume =    483.15145 a.u.^3 (    71.59566 Ang^3 )

CELL_PARAMETERS (alat=  6.99385000)
   1.000037045  -0.000000000  -0.000000000
  -0.500018522   0.866057485  -0.000000000
  -0.000000000   0.000000000   1.630690477

ATOMIC_POSITIONS (crystal)
Na       0.000000000   0.000000000   0.000000000
Na       0.666666000   0.333333000   0.500000000
End final coordinates



     A final scf calculation at the relaxed structure.
     The G-vectors are recalculated for the final unit cell
     Results may differ from those at the preceding step.
 
     Parallelization info
     --------------------
     sticks:   dense  smooth     PW     G-vecs:    dense   smooth      PW
     Min         133      68     20                 5835     2056     346
     Max         134      69     21                 5844     2068     351
     Sum        1069     547    163                46721    16503    2779
 


     bravais-lattice index     =            4
     lattice parameter (alat)  =       6.9939  a.u.
     unit-cell volume          =     483.1514 (a.u.)^3
     number of atoms/cell      =            2
     number of atomic types    =            1
     number of electrons       =        18.00
     number of Kohn-Sham states=           13
     kinetic-energy cutoff     =      40.0000  Ry
     charge density cutoff     =     320.0000  Ry
     convergence threshold     =      1.0E-09
     mixing beta               =       0.7000
     number of iterations used =            8  plain     mixing
     Exchange-correlation      = SLA  PW   PBE  PBE ( 1  4  3  4 0 0)

     celldm(1)=   6.993850  celldm(2)=   0.000000  celldm(3)=   1.630460
     celldm(4)=   0.000000  celldm(5)=   0.000000  celldm(6)=   0.000000

     crystal axes: (cart. coord. in units of alat)
               a(1) = (   1.000037  -0.000000  -0.000000 )  
               a(2) = (  -0.500019   0.866057  -0.000000 )  
               a(3) = (  -0.000000   0.000000   1.630690 )  

     reciprocal axes: (cart. coord. in units 2 pi/alat)
               b(1) = (  0.999963  0.577329 -0.000000 )  
               b(2) = (  0.000000  1.154658 -0.000000 )  
               b(3) = (  0.000000  0.000000  0.613237 )  


     PseudoPot. # 1 for Na read from file:
     ./Na_pbe_v1.uspp.F.UPF
     MD5 check sum: 76a99c7e9422403d3e93cbc85ab7bccb
     Pseudo is Ultrasoft, Zval =  9.0
     Generated by new atomic code, or converted to UPF format
     Using radial grid of  819 points,  5 beta functions with: 
                l(1) =   0
                l(2) =   0
                l(3) =   1
                l(4) =   1
                l(5) =   2
     Q(r) pseudized with  8 coefficients,  rinner =    1.250   1.250   1.250
                                                       1.250   1.250

     atomic species   valence    mass     pseudopotential
        Na             9.00    22.99000     Na( 1.00)

     12 Sym. Ops. (no inversion) found
          (note: 12 additional sym.ops. were found but ignored
           their fractional translations are incommensurate with FFT grid)


   Cartesian axes

     site n.     atom                  positions (alat units)
         1           Na  tau(   1) = (   0.0000000   0.0000000   0.0000000  )
         2           Na  tau(   2) = (   0.5000180   0.2886855   0.8153452  )

     number of k points=   366  Marzari-Vanderbilt smearing, width (Ry)=  0.0200

     Number of k-points >= 100: set verbosity='high' to print them.

     Dense  grid:    46721 G-vectors     FFT dimensions: (  40,  40,  72)

     Smooth grid:    16503 G-vectors     FFT dimensions: (  30,  30,  45)

     Largest allocated arrays     est. size (Mb)     dimensions
        Kohn-Sham Wavefunctions         0.05 Mb     (     276,   13)
        NL pseudopotentials             0.11 Mb     (     276,   26)
        Each V/rho on FFT grid          0.22 Mb     (   14400)
        Each G-vector array             0.04 Mb     (    5844)
        G-vector shells                 0.01 Mb     (    1763)
     Largest temporary arrays     est. size (Mb)     dimensions
        Auxiliary wavefunctions         0.22 Mb     (     276,   52)
        Each subspace H/S matrix        0.01 Mb     (      26,   26)
        Each <psi_i|beta_j> matrix      0.01 Mb     (      26,   13)
        Arrays for rho mixing           1.76 Mb     (   14400,    8)

     Initial potential from superposition of free atoms

     starting charge   17.98742, renormalised to   18.00000
     Starting wfc are   10 randomized atomic wfcs +    3 random wfc

     Writing output data file na_hcp_-0.1$.save

     total cpu time spent up to now is       52.0 secs

     per-process dynamical memory:    21.7 Mb

     Self-consistent Calculation

     iteration #  1     ecut=    40.00 Ry     beta=0.70
     Davidson diagonalization with overlap
     c_bands:  1 eigenvalues not converged
     c_bands:  1 eigenvalues not converged
     c_bands:  1 eigenvalues not converged
     c_bands:  1 eigenvalues not converged
     c_bands:  1 eigenvalues not converged
     c_bands:  1 eigenvalues not converged
     ethr =  1.00E-06,  avg # of iterations = 13.2

     total cpu time spent up to now is       52.8 secs

     total energy              =    -190.21277935 Ry
     Harris-Foulkes estimate   =    -190.21323062 Ry
     estimated scf accuracy    <       0.00177634 Ry

     iteration #  2     ecut=    40.00 Ry     beta=0.70
     Davidson diagonalization with overlap
     ethr =  9.87E-06,  avg # of iterations =  2.0

     total cpu time spent up to now is       53.1 secs

     total energy              =    -190.21299053 Ry
     Harris-Foulkes estimate   =    -190.21303661 Ry
     estimated scf accuracy    <       0.00019958 Ry

     iteration #  3     ecut=    40.00 Ry     beta=0.70
     Davidson diagonalization with overlap
     ethr =  1.11E-06,  avg # of iterations =  2.0

     total cpu time spent up to now is       53.3 secs

     total energy              =    -190.21301127 Ry
     Harris-Foulkes estimate   =    -190.21301395 Ry
     estimated scf accuracy    <       0.00001273 Ry

     iteration #  4     ecut=    40.00 Ry     beta=0.70
     Davidson diagonalization with overlap
     ethr =  7.07E-08,  avg # of iterations =  1.7

     total cpu time spent up to now is       53.5 secs

     total energy              =    -190.21301249 Ry
     Harris-Foulkes estimate   =    -190.21301239 Ry
     estimated scf accuracy    <       0.00000002 Ry

     iteration #  5     ecut=    40.00 Ry     beta=0.70
     Davidson diagonalization with overlap
     ethr =  1.17E-10,  avg # of iterations =  3.1

     total cpu time spent up to now is       53.8 secs

     total energy              =    -190.21301257 Ry
     Harris-Foulkes estimate   =    -190.21301257 Ry
     estimated scf accuracy    <          4.5E-09 Ry

     iteration #  6     ecut=    40.00 Ry     beta=0.70
     Davidson diagonalization with overlap
     ethr =  2.52E-11,  avg # of iterations =  1.8

     total cpu time spent up to now is       54.1 secs

     End of self-consistent calculation

     Number of k-points >= 100: set verbosity='high' to print the bands.

     the Fermi energy is     1.7520 ev

!    total energy              =    -190.21301257 Ry
     Harris-Foulkes estimate   =    -190.21301257 Ry
     estimated scf accuracy    <          2.8E-11 Ry

     The total energy is the sum of the following terms:

     one-electron contribution =    -174.77079342 Ry
     hartree contribution      =      88.22929818 Ry
     xc contribution           =     -28.54614326 Ry
     ewald contribution        =     -75.12524631 Ry
     smearing contrib. (-TS)   =      -0.00012776 Ry

     convergence has been achieved in   6 iterations

     Forces acting on atoms (Ry/au):

     atom    1 type  1   force =     0.00000000    0.00000000    0.00000000
     atom    2 type  1   force =    -0.00000000   -0.00000000    0.00000000

     Total force =     0.000000     Total SCF correction =     0.000000


     entering subroutine stress ...

          total   stress  (Ry/bohr**3)                   (kbar)     P=    0.04
  -0.00000000   0.00000000  -0.00000000         -0.00      0.00     -0.00
   0.00000000  -0.00000000   0.00000000          0.00     -0.00      0.00
  -0.00000000   0.00000000   0.00000088         -0.00      0.00      0.13


     Writing output data file na_hcp_-0.1$.save
 
     init_run     :      0.41s CPU      0.44s WALL (       2 calls)
     electrons    :      8.90s CPU      9.43s WALL (       6 calls)
     update_pot   :      0.53s CPU      0.58s WALL (       4 calls)
     forces       :      0.36s CPU      0.36s WALL (       6 calls)
     stress       :      0.97s CPU      0.98s WALL (       6 calls)

     Called by init_run:
     wfcinit      :      0.10s CPU      0.11s WALL (       2 calls)
     potinit      :      0.07s CPU      0.08s WALL (       2 calls)

     Called by electrons:
     c_bands      :      6.67s CPU      6.97s WALL (      36 calls)
     sum_band     :      1.54s CPU      1.57s WALL (      36 calls)
     v_of_rho     :      0.28s CPU      0.27s WALL (      37 calls)
     newd         :      0.38s CPU      0.39s WALL (      37 calls)
     mix_rho      :      0.01s CPU      0.02s WALL (      36 calls)

     Called by c_bands:
     init_us_2    :      0.11s CPU      0.09s WALL (    1376 calls)
     cegterg      :      6.03s CPU      6.18s WALL (     576 calls)

     Called by sum_band:
     sum_band:bec :      0.00s CPU      0.01s WALL (     576 calls)
     addusdens    :      0.61s CPU      0.64s WALL (      36 calls)

     Called by *egterg:
     h_psi        :      3.28s CPU      3.26s WALL (    2150 calls)
     s_psi        :      0.08s CPU      0.11s WALL (    2150 calls)
     g_psi        :      0.02s CPU      0.02s WALL (    1542 calls)
     cdiaghg      :      1.98s CPU      2.15s WALL (    1974 calls)

     Called by h_psi:
     add_vuspsi   :      0.12s CPU      0.11s WALL (    2150 calls)

     General routines
     calbec       :      0.28s CPU      0.23s WALL (    3206 calls)
     fft          :      0.19s CPU      0.17s WALL (     640 calls)
     ffts         :      0.00s CPU      0.01s WALL (      73 calls)
     fftw         :      3.05s CPU      3.08s WALL (   46836 calls)
     interpolate  :      0.02s CPU      0.03s WALL (      73 calls)
 
     Parallel routines
     fft_scatter  :      1.16s CPU      1.20s WALL (   47549 calls)
 
     PWSCF        :  0m14.47s CPU     1m13.47s WALL

 
   This run was terminated on:  16:50:15  26Mar2018            

=------------------------------------------------------------------------------=
   JOB DONE.
=------------------------------------------------------------------------------=
Application 30366733 resources: utime ~14024s, stime ~56s, Rss ~38020, inblocks ~1446844, outblocks ~1768430
