
     Program PWSCF v.5.4.0 starts on 26Mar2018 at 16:45:49 

     This program is part of the open-source Quantum ESPRESSO suite
     for quantum simulation of materials; please cite
         "P. Giannozzi et al., J. Phys.:Condens. Matter 21 395502 (2009);
          URL http://www.quantum-espresso.org", 
     in publications or presentations arising from this work. More details at
     http://www.quantum-espresso.org/quote

     Parallel version (MPI & OpenMP), running on     192 processor cores
     Number of MPI processes:               192
     Threads/MPI process:                     1
     K-points division:     npool     =      24
     R & G space division:  proc/nbgrp/npool/nimage =       8
     Waiting for input...
     Reading input from standard input

     Current dimensions of program PWSCF are:
     Max number of different atomic species (ntypx) = 10
     Max number of k-points (npk) =  40000
     Max angular momentum in pseudopotentials (lmaxx) =  3

     Subspace diagonalization in iterative solution of the eigenvalue problem:
     one sub-group per band group will be used
     scalapack distributed-memory algorithm (size of sub-group:  2*  2 procs)

 
     Parallelization info
     --------------------
     sticks:   dense  smooth     PW     G-vecs:    dense   smooth      PW
     Min         133      68     20                 5835     2056     346
     Max         134      69     21                 5844     2068     351
     Sum        1069     547    163                46721    16503    2779
 


     bravais-lattice index     =            4
     lattice parameter (alat)  =       6.9939  a.u.
     unit-cell volume          =     483.0474 (a.u.)^3
     number of atoms/cell      =            2
     number of atomic types    =            1
     number of electrons       =        18.00
     number of Kohn-Sham states=           13
     kinetic-energy cutoff     =      40.0000  Ry
     charge density cutoff     =     320.0000  Ry
     convergence threshold     =      1.0E-07
     mixing beta               =       0.7000
     number of iterations used =            8  plain     mixing
     Exchange-correlation      = SLA  PW   PBE  PBE ( 1  4  3  4 0 0)
     nstep                     =           50


     celldm(1)=   6.993850  celldm(2)=   0.000000  celldm(3)=   1.630460
     celldm(4)=   0.000000  celldm(5)=   0.000000  celldm(6)=   0.000000

     crystal axes: (cart. coord. in units of alat)
               a(1) = (   1.000000   0.000000   0.000000 )  
               a(2) = (  -0.500000   0.866025   0.000000 )  
               a(3) = (   0.000000   0.000000   1.630460 )  

     reciprocal axes: (cart. coord. in units 2 pi/alat)
               b(1) = (  1.000000  0.577350  0.000000 )  
               b(2) = (  0.000000  1.154701  0.000000 )  
               b(3) = (  0.000000  0.000000  0.613324 )  


     PseudoPot. # 1 for Na read from file:
     ./Na_pbe_v1.uspp.F.UPF
     MD5 check sum: 76a99c7e9422403d3e93cbc85ab7bccb
     Pseudo is Ultrasoft, Zval =  9.0
     Generated by new atomic code, or converted to UPF format
     Using radial grid of  819 points,  5 beta functions with: 
                l(1) =   0
                l(2) =   0
                l(3) =   1
                l(4) =   1
                l(5) =   2
     Q(r) pseudized with  8 coefficients,  rinner =    1.250   1.250   1.250
                                                       1.250   1.250

     atomic species   valence    mass     pseudopotential
        Na             9.00    22.99000     Na( 1.00)

     12 Sym. Ops. (no inversion) found
          (note: 12 additional sym.ops. were found but ignored
           their fractional translations are incommensurate with FFT grid)


   Cartesian axes

     site n.     atom                  positions (alat units)
         1           Na  tau(   1) = (   0.0000000   0.0000000   0.0000000  )
         2           Na  tau(   2) = (   0.4999995   0.2886748   0.8152300  )

     number of k points=   366  Marzari-Vanderbilt smearing, width (Ry)=  0.0200

     Number of k-points >= 100: set verbosity='high' to print them.

     Dense  grid:    46721 G-vectors     FFT dimensions: (  40,  40,  72)

     Smooth grid:    16503 G-vectors     FFT dimensions: (  30,  30,  45)

     Largest allocated arrays     est. size (Mb)     dimensions
        Kohn-Sham Wavefunctions         0.05 Mb     (     276,   13)
        NL pseudopotentials             0.11 Mb     (     276,   26)
        Each V/rho on FFT grid          0.22 Mb     (   14400)
        Each G-vector array             0.04 Mb     (    5844)
        G-vector shells                 0.04 Mb     (    5844)
     Largest temporary arrays     est. size (Mb)     dimensions
        Auxiliary wavefunctions         0.22 Mb     (     276,   52)
        Each subspace H/S matrix        0.01 Mb     (      26,   26)
        Each <psi_i|beta_j> matrix      0.01 Mb     (      26,   13)
        Arrays for rho mixing           1.76 Mb     (   14400,    8)

     Initial potential from superposition of free atoms

     starting charge   17.98742, renormalised to   18.00000
     Starting wfc are   10 randomized atomic wfcs +    3 random wfc

     total cpu time spent up to now is        0.4 secs

     per-process dynamical memory:    12.2 Mb

     Self-consistent Calculation

     iteration #  1     ecut=    40.00 Ry     beta=0.70
     Davidson diagonalization with overlap
     ethr =  1.00E-02,  avg # of iterations =  5.8

     Threshold (ethr) on eigenvalues was too large:
     Diagonalizing with lowered threshold

     Davidson diagonalization with overlap
     ethr =  9.43E-06,  avg # of iterations =  6.8

     total cpu time spent up to now is        1.4 secs

     total energy              =    -190.21279650 Ry
     Harris-Foulkes estimate   =    -190.21322628 Ry
     estimated scf accuracy    <       0.00175415 Ry

     iteration #  2     ecut=    40.00 Ry     beta=0.70
     Davidson diagonalization with overlap
     ethr =  9.75E-06,  avg # of iterations =  2.0

     total cpu time spent up to now is        1.6 secs

     total energy              =    -190.21299067 Ry
     Harris-Foulkes estimate   =    -190.21302957 Ry
     estimated scf accuracy    <       0.00018752 Ry

     iteration #  3     ecut=    40.00 Ry     beta=0.70
     Davidson diagonalization with overlap
     ethr =  1.04E-06,  avg # of iterations =  2.0

     total cpu time spent up to now is        1.9 secs

     total energy              =    -190.21300907 Ry
     Harris-Foulkes estimate   =    -190.21301156 Ry
     estimated scf accuracy    <       0.00001179 Ry

     iteration #  4     ecut=    40.00 Ry     beta=0.70
     Davidson diagonalization with overlap
     ethr =  6.55E-08,  avg # of iterations =  2.0

     total cpu time spent up to now is        2.1 secs

     End of self-consistent calculation

     Number of k-points >= 100: set verbosity='high' to print the bands.

     the Fermi energy is     1.7531 ev

!    total energy              =    -190.21301033 Ry
     Harris-Foulkes estimate   =    -190.21301022 Ry
     estimated scf accuracy    <       0.00000002 Ry

     The total energy is the sum of the following terms:

     one-electron contribution =    -174.76112389 Ry
     hartree contribution      =      88.22503611 Ry
     xc contribution           =     -28.54616021 Ry
     ewald contribution        =     -75.13063452 Ry
     smearing contrib. (-TS)   =      -0.00012781 Ry

     convergence has been achieved in   4 iterations

     Forces acting on atoms (Ry/au):

     atom    1 type  1   force =     0.00000000    0.00000000    0.00000000
     atom    2 type  1   force =     0.00000000    0.00000000    0.00000000

     Total force =     0.000000     Total SCF correction =     0.000001


     entering subroutine stress ...

          total   stress  (Ry/bohr**3)                   (kbar)     P=    0.14
   0.00000068   0.00000000   0.00000000          0.10      0.00      0.00
   0.00000000   0.00000068   0.00000000          0.00      0.10      0.00
  -0.00000000   0.00000000   0.00000160         -0.00      0.00      0.24


     BFGS Geometry Optimization

     number of scf cycles    =   1
     number of bfgs steps    =   0

     enthalpy new            =    -190.2139954346 Ry

     new trust radius        =       0.0003997225 bohr
     new conv_thr            =       0.0000001000 Ry

     new unit-cell volume =    483.15694 a.u.^3 (    71.59647 Ang^3 )

CELL_PARAMETERS (alat=  6.99385000)
   1.000067939   0.000000000  -0.000000000
  -0.500033970   0.866084241   0.000000000
   0.000000000   0.000000000   1.630608267

ATOMIC_POSITIONS (crystal)
Na       0.000000000   0.000000000   0.000000000
Na       0.666666000   0.333333000   0.500000000



     Writing output data file na_hcp_-0.3$.save
     NEW-OLD atomic charge density approx. for the potential
     extrapolated charge   18.00408, renormalised to   18.00000

     total cpu time spent up to now is        8.6 secs

     per-process dynamical memory:    23.1 Mb

     Self-consistent Calculation

     iteration #  1     ecut=    40.00 Ry     beta=0.70
     Davidson diagonalization with overlap
     ethr =  1.00E-06,  avg # of iterations =  2.0

     Threshold (ethr) on eigenvalues was too large:
     Diagonalizing with lowered threshold

     Davidson diagonalization with overlap
     ethr =  1.69E-08,  avg # of iterations =  1.0

     total cpu time spent up to now is        9.0 secs

     total energy              =    -190.21300496 Ry
     Harris-Foulkes estimate   =    -190.18142430 Ry
     estimated scf accuracy    <       0.00000304 Ry

     iteration #  2     ecut=    40.00 Ry     beta=0.70
     Davidson diagonalization with overlap
     ethr =  1.69E-08,  avg # of iterations =  3.0

     total cpu time spent up to now is        9.3 secs

     total energy              =    -190.21301052 Ry
     Harris-Foulkes estimate   =    -190.21301276 Ry
     estimated scf accuracy    <       0.00000512 Ry

     iteration #  3     ecut=    40.00 Ry     beta=0.70
     Davidson diagonalization with overlap
     ethr =  1.69E-08,  avg # of iterations =  2.0

     total cpu time spent up to now is        9.5 secs

     total energy              =    -190.21301068 Ry
     Harris-Foulkes estimate   =    -190.21301086 Ry
     estimated scf accuracy    <       0.00000099 Ry

     iteration #  4     ecut=    40.00 Ry     beta=0.70
     Davidson diagonalization with overlap
     ethr =  5.47E-09,  avg # of iterations =  1.0

     total cpu time spent up to now is        9.7 secs

     total energy              =    -190.21301041 Ry
     Harris-Foulkes estimate   =    -190.21301069 Ry
     estimated scf accuracy    <       0.00000061 Ry

     iteration #  5     ecut=    40.00 Ry     beta=0.70
     Davidson diagonalization with overlap
     ethr =  3.40E-09,  avg # of iterations =  1.0

     total cpu time spent up to now is        9.9 secs

     End of self-consistent calculation

     Number of k-points >= 100: set verbosity='high' to print the bands.

     the Fermi energy is     1.7519 ev

!    total energy              =    -190.21301037 Ry
     Harris-Foulkes estimate   =    -190.21301045 Ry
     estimated scf accuracy    <       0.00000010 Ry

     The total energy is the sum of the following terms:

     one-electron contribution =    -174.77332668 Ry
     hartree contribution      =      88.23199285 Ry
     xc contribution           =     -28.54659249 Ry
     ewald contribution        =     -75.12495626 Ry
     smearing contrib. (-TS)   =      -0.00012779 Ry

     convergence has been achieved in   5 iterations

     Forces acting on atoms (Ry/au):

     atom    1 type  1   force =    -0.00000000    0.00000000   -0.00000000
     atom    2 type  1   force =     0.00000000    0.00000000    0.00000000

     Total force =     0.000000     Total SCF correction =     0.000000


     entering subroutine stress ...

          total   stress  (Ry/bohr**3)                   (kbar)     P=    1.84
   0.00001221   0.00000000   0.00000000          1.80      0.00      0.00
   0.00000000   0.00001221  -0.00000000          0.00      1.80     -0.00
   0.00000000  -0.00000000   0.00001309          0.00     -0.00      1.93


     number of scf cycles    =   2
     number of bfgs steps    =   1

     enthalpy old            =    -190.2139954346 Ry
     enthalpy new            =    -190.2139957015 Ry

     CASE: enthalpy_new < enthalpy_old


     WARNING: bfgs curvature condition failed, Theta= 0.169
     new trust radius        =       0.0004397047 bohr
     new conv_thr            =       0.0000000010 Ry

     new unit-cell volume =    483.29497 a.u.^3 (    71.61692 Ang^3 )

CELL_PARAMETERS (alat=  6.99385000)
   1.000160761   0.000000000  -0.000000000
  -0.500080380   0.866164627   0.000000000
   0.000000000   0.000000000   1.630771360

ATOMIC_POSITIONS (crystal)
Na       0.000000000   0.000000000   0.000000000
Na       0.666666000   0.333333000   0.500000000



     Writing output data file na_hcp_-0.3$.save
     NEW-OLD atomic charge density approx. for the potential
     extrapolated charge   18.00514, renormalised to   18.00000

     total cpu time spent up to now is       15.4 secs

     per-process dynamical memory:    23.1 Mb

     Self-consistent Calculation

     iteration #  1     ecut=    40.00 Ry     beta=0.70
     Davidson diagonalization with overlap
     ethr =  1.00E-06,  avg # of iterations =  2.0

     Threshold (ethr) on eigenvalues was too large:
     Diagonalizing with lowered threshold

     Davidson diagonalization with overlap
     ethr =  3.42E-08,  avg # of iterations =  1.0

     total cpu time spent up to now is       15.8 secs

     total energy              =    -190.21300077 Ry
     Harris-Foulkes estimate   =    -190.17322871 Ry
     estimated scf accuracy    <       0.00000615 Ry

     iteration #  2     ecut=    40.00 Ry     beta=0.70
     Davidson diagonalization with overlap
     ethr =  3.42E-08,  avg # of iterations =  3.0

     total cpu time spent up to now is       16.1 secs

     total energy              =    -190.21301044 Ry
     Harris-Foulkes estimate   =    -190.21301438 Ry
     estimated scf accuracy    <       0.00000861 Ry

     iteration #  3     ecut=    40.00 Ry     beta=0.70
     Davidson diagonalization with overlap
     ethr =  3.42E-08,  avg # of iterations =  2.0

     total cpu time spent up to now is       16.3 secs

     total energy              =    -190.21301058 Ry
     Harris-Foulkes estimate   =    -190.21301107 Ry
     estimated scf accuracy    <       0.00000147 Ry

     iteration #  4     ecut=    40.00 Ry     beta=0.70
     Davidson diagonalization with overlap
     ethr =  8.14E-09,  avg # of iterations =  1.0

     total cpu time spent up to now is       16.5 secs

     total energy              =    -190.21301053 Ry
     Harris-Foulkes estimate   =    -190.21301065 Ry
     estimated scf accuracy    <       0.00000049 Ry

     iteration #  5     ecut=    40.00 Ry     beta=0.70
     Davidson diagonalization with overlap
     ethr =  2.75E-09,  avg # of iterations =  1.0

     total cpu time spent up to now is       16.7 secs

     total energy              =    -190.21301051 Ry
     Harris-Foulkes estimate   =    -190.21301054 Ry
     estimated scf accuracy    <       0.00000024 Ry

     iteration #  6     ecut=    40.00 Ry     beta=0.70
     Davidson diagonalization with overlap
     ethr =  1.36E-09,  avg # of iterations =  1.0

     total cpu time spent up to now is       16.9 secs

     total energy              =    -190.21301057 Ry
     Harris-Foulkes estimate   =    -190.21301051 Ry
     estimated scf accuracy    <       0.00000019 Ry

     iteration #  7     ecut=    40.00 Ry     beta=0.70
     Davidson diagonalization with overlap
     ethr =  1.06E-09,  avg # of iterations =  1.0

     total cpu time spent up to now is       17.1 secs

     total energy              =    -190.21301037 Ry
     Harris-Foulkes estimate   =    -190.21301057 Ry
     estimated scf accuracy    <       0.00000031 Ry

     iteration #  8     ecut=    40.00 Ry     beta=0.70
     Davidson diagonalization with overlap
     ethr =  1.06E-09,  avg # of iterations =  2.0

     total cpu time spent up to now is       17.3 secs

     total energy              =    -190.21301043 Ry
     Harris-Foulkes estimate   =    -190.21301043 Ry
     estimated scf accuracy    <          1.3E-09 Ry

     iteration #  9     ecut=    40.00 Ry     beta=0.70
     Davidson diagonalization with overlap
     ethr =  7.48E-12,  avg # of iterations =  2.0

     total cpu time spent up to now is       17.6 secs

     End of self-consistent calculation

     Number of k-points >= 100: set verbosity='high' to print the bands.

     the Fermi energy is     1.7507 ev

!    total energy              =    -190.21301043 Ry
     Harris-Foulkes estimate   =    -190.21301043 Ry
     estimated scf accuracy    <          7.6E-10 Ry

     The total energy is the sum of the following terms:

     one-electron contribution =    -174.78374025 Ry
     hartree contribution      =      88.23470059 Ry
     xc contribution           =     -28.54603872 Ry
     ewald contribution        =     -75.11780425 Ry
     smearing contrib. (-TS)   =      -0.00012779 Ry

     convergence has been achieved in   9 iterations

     Forces acting on atoms (Ry/au):

     atom    1 type  1   force =     0.00000000   -0.00000000    0.00000000
     atom    2 type  1   force =     0.00000000    0.00000000    0.00000000

     Total force =     0.000000     Total SCF correction =     0.000000


     entering subroutine stress ...

          total   stress  (Ry/bohr**3)                   (kbar)     P=   -0.07
  -0.00000077  -0.00000000   0.00000000         -0.11     -0.00      0.00
  -0.00000000  -0.00000077   0.00000000         -0.00     -0.11      0.00
   0.00000000  -0.00000000   0.00000017          0.00     -0.00      0.03


     number of scf cycles    =   3
     number of bfgs steps    =   2

     enthalpy old            =    -190.2139957015 Ry
     enthalpy new            =    -190.2139960382 Ry

     CASE: enthalpy_new < enthalpy_old

     new trust radius        =       0.0001241364 bohr
     new conv_thr            =       0.0000000010 Ry

     new unit-cell volume =    483.31205 a.u.^3 (    71.61946 Ang^3 )

CELL_PARAMETERS (alat=  6.99385000)
   1.000164322  -0.000000000  -0.000000000
  -0.500082161   0.866167711   0.000000000
   0.000000000   0.000000000   1.630817403

ATOMIC_POSITIONS (crystal)
Na      -0.000000000  -0.000000000  -0.000000000
Na       0.666666000   0.333333000   0.500000000



     Writing output data file na_hcp_-0.3$.save
     NEW-OLD atomic charge density approx. for the potential
     extrapolated charge   18.00064, renormalised to   18.00000

     total cpu time spent up to now is       21.6 secs

     per-process dynamical memory:    23.1 Mb

     Self-consistent Calculation

     iteration #  1     ecut=    40.00 Ry     beta=0.70
     Davidson diagonalization with overlap
     ethr =  1.00E-06,  avg # of iterations =  2.0

     Threshold (ethr) on eigenvalues was too large:
     Diagonalizing with lowered threshold

     Davidson diagonalization with overlap
     ethr =  3.69E-10,  avg # of iterations =  1.1

     total cpu time spent up to now is       22.0 secs

     total energy              =    -190.21301031 Ry
     Harris-Foulkes estimate   =    -190.20808599 Ry
     estimated scf accuracy    <       0.00000007 Ry

     iteration #  2     ecut=    40.00 Ry     beta=0.70
     Davidson diagonalization with overlap
     ethr =  3.70E-10,  avg # of iterations =  3.0

     total cpu time spent up to now is       22.3 secs

     total energy              =    -190.21301044 Ry
     Harris-Foulkes estimate   =    -190.21301049 Ry
     estimated scf accuracy    <       0.00000012 Ry

     iteration #  3     ecut=    40.00 Ry     beta=0.70
     Davidson diagonalization with overlap
     ethr =  3.70E-10,  avg # of iterations =  2.0

     total cpu time spent up to now is       22.5 secs

     total energy              =    -190.21301043 Ry
     Harris-Foulkes estimate   =    -190.21301044 Ry
     estimated scf accuracy    <       0.00000002 Ry

     iteration #  4     ecut=    40.00 Ry     beta=0.70
     Davidson diagonalization with overlap
     ethr =  1.36E-10,  avg # of iterations =  1.0

     total cpu time spent up to now is       22.7 secs

     total energy              =    -190.21301044 Ry
     Harris-Foulkes estimate   =    -190.21301044 Ry
     estimated scf accuracy    <          5.8E-09 Ry

     iteration #  5     ecut=    40.00 Ry     beta=0.70
     Davidson diagonalization with overlap
     ethr =  3.23E-11,  avg # of iterations =  1.0

     total cpu time spent up to now is       22.9 secs

     total energy              =    -190.21301043 Ry
     Harris-Foulkes estimate   =    -190.21301044 Ry
     estimated scf accuracy    <          6.7E-09 Ry

     iteration #  6     ecut=    40.00 Ry     beta=0.70
     Davidson diagonalization with overlap
     ethr =  3.23E-11,  avg # of iterations =  1.0

     total cpu time spent up to now is       23.1 secs

     total energy              =    -190.21301043 Ry
     Harris-Foulkes estimate   =    -190.21301043 Ry
     estimated scf accuracy    <          1.7E-09 Ry

     iteration #  7     ecut=    40.00 Ry     beta=0.70
     Davidson diagonalization with overlap
     ethr =  9.44E-12,  avg # of iterations =  2.0

     total cpu time spent up to now is       23.3 secs

     End of self-consistent calculation

     Number of k-points >= 100: set verbosity='high' to print the bands.

     the Fermi energy is     1.7505 ev

!    total energy              =    -190.21301043 Ry
     Harris-Foulkes estimate   =    -190.21301043 Ry
     estimated scf accuracy    <          4.0E-12 Ry

     The total energy is the sum of the following terms:

     one-electron contribution =    -174.78537281 Ry
     hartree contribution      =      88.23545985 Ry
     xc contribution           =     -28.54604908 Ry
     ewald contribution        =     -75.11692062 Ry
     smearing contrib. (-TS)   =      -0.00012778 Ry

     convergence has been achieved in   7 iterations

     Forces acting on atoms (Ry/au):

     atom    1 type  1   force =    -0.00000000    0.00000000    0.00000000
     atom    2 type  1   force =     0.00000000    0.00000000   -0.00000000

     Total force =     0.000000     Total SCF correction =     0.000000


     entering subroutine stress ...

          total   stress  (Ry/bohr**3)                   (kbar)     P=   -0.02
  -0.00000041  -0.00000000  -0.00000000         -0.06     -0.00     -0.00
  -0.00000000  -0.00000041  -0.00000000         -0.00     -0.06     -0.00
  -0.00000000   0.00000000   0.00000051         -0.00      0.00      0.07


     number of scf cycles    =   4
     number of bfgs steps    =   3

     enthalpy old            =    -190.2139960382 Ry
     enthalpy new            =    -190.2139960797 Ry

     CASE: enthalpy_new < enthalpy_old


     WARNING: bfgs curvature condition failed, Theta= 0.684
     uphill step: resetting bfgs history

     new trust radius        =       0.0001365486 bohr
     new conv_thr            =       0.0000000010 Ry

     new unit-cell volume =    483.34630 a.u.^3 (    71.62453 Ang^3 )

CELL_PARAMETERS (alat=  6.99385000)
   1.000184230  -0.000000000  -0.000000000
  -0.500092115   0.866184951   0.000000000
   0.000000000   0.000000000   1.630868049

ATOMIC_POSITIONS (crystal)
Na      -0.000000000  -0.000000000  -0.000000000
Na       0.666666000   0.333333000   0.500000000



     Writing output data file na_hcp_-0.3$.save
     NEW-OLD atomic charge density approx. for the potential
     extrapolated charge   18.00127, renormalised to   18.00000

     total cpu time spent up to now is       26.6 secs

     per-process dynamical memory:    23.1 Mb

     Self-consistent Calculation

     iteration #  1     ecut=    40.00 Ry     beta=0.70
     Davidson diagonalization with overlap
     ethr =  1.00E-06,  avg # of iterations =  2.0

     Threshold (ethr) on eigenvalues was too large:
     Diagonalizing with lowered threshold

     Davidson diagonalization with overlap
     ethr =  1.65E-09,  avg # of iterations =  1.0

     total cpu time spent up to now is       27.0 secs

     total energy              =    -190.21300990 Ry
     Harris-Foulkes estimate   =    -190.20314013 Ry
     estimated scf accuracy    <       0.00000030 Ry

     iteration #  2     ecut=    40.00 Ry     beta=0.70
     Davidson diagonalization with overlap
     ethr =  1.65E-09,  avg # of iterations =  3.0

     total cpu time spent up to now is       27.3 secs

     total energy              =    -190.21301044 Ry
     Harris-Foulkes estimate   =    -190.21301066 Ry
     estimated scf accuracy    <       0.00000050 Ry

     iteration #  3     ecut=    40.00 Ry     beta=0.70
     Davidson diagonalization with overlap
     ethr =  1.65E-09,  avg # of iterations =  2.0

     total cpu time spent up to now is       27.6 secs

     total energy              =    -190.21301044 Ry
     Harris-Foulkes estimate   =    -190.21301048 Ry
     estimated scf accuracy    <       0.00000010 Ry

     iteration #  4     ecut=    40.00 Ry     beta=0.70
     Davidson diagonalization with overlap
     ethr =  5.35E-10,  avg # of iterations =  1.0

     total cpu time spent up to now is       27.7 secs

     total energy              =    -190.21301044 Ry
     Harris-Foulkes estimate   =    -190.21301045 Ry
     estimated scf accuracy    <       0.00000003 Ry

     iteration #  5     ecut=    40.00 Ry     beta=0.70
     Davidson diagonalization with overlap
     ethr =  1.75E-10,  avg # of iterations =  1.0

     total cpu time spent up to now is       27.9 secs

     total energy              =    -190.21301044 Ry
     Harris-Foulkes estimate   =    -190.21301044 Ry
     estimated scf accuracy    <       0.00000002 Ry

     iteration #  6     ecut=    40.00 Ry     beta=0.70
     Davidson diagonalization with overlap
     ethr =  1.37E-10,  avg # of iterations =  1.0

     total cpu time spent up to now is       28.1 secs

     total energy              =    -190.21301043 Ry
     Harris-Foulkes estimate   =    -190.21301044 Ry
     estimated scf accuracy    <       0.00000001 Ry

     iteration #  7     ecut=    40.00 Ry     beta=0.70
     Davidson diagonalization with overlap
     ethr =  6.01E-11,  avg # of iterations =  2.0

     total cpu time spent up to now is       28.3 secs

     End of self-consistent calculation

     Number of k-points >= 100: set verbosity='high' to print the bands.

     the Fermi energy is     1.7502 ev

!    total energy              =    -190.21301043 Ry
     Harris-Foulkes estimate   =    -190.21301043 Ry
     estimated scf accuracy    <          2.5E-12 Ry

     The total energy is the sum of the following terms:

     one-electron contribution =    -174.78848292 Ry
     hartree contribution      =      88.23677738 Ry
     xc contribution           =     -28.54603008 Ry
     ewald contribution        =     -75.11514704 Ry
     smearing contrib. (-TS)   =      -0.00012777 Ry

     convergence has been achieved in   7 iterations

     Forces acting on atoms (Ry/au):

     atom    1 type  1   force =     0.00000000    0.00000000   -0.00000000
     atom    2 type  1   force =     0.00000000    0.00000000    0.00000000

     Total force =     0.000000     Total SCF correction =     0.000000


     entering subroutine stress ...

          total   stress  (Ry/bohr**3)                   (kbar)     P=   -0.03
  -0.00000047  -0.00000000   0.00000000         -0.07     -0.00      0.00
   0.00000000  -0.00000047   0.00000000          0.00     -0.07      0.00
   0.00000000   0.00000000   0.00000043          0.00      0.00      0.06


     number of scf cycles    =   5
     number of bfgs steps    =   4

     enthalpy old            =    -190.2139960797 Ry
     enthalpy new            =    -190.2139961499 Ry

     CASE: enthalpy_new < enthalpy_old


     WARNING: bfgs curvature condition failed, Theta= 0.860
     new trust radius        =       0.0002048238 bohr
     new conv_thr            =       0.0000000010 Ry

     new unit-cell volume =    483.39715 a.u.^3 (    71.63207 Ang^3 )

CELL_PARAMETERS (alat=  6.99385000)
   1.000213538   0.000000000   0.000000000
  -0.500106769   0.866210334  -0.000000000
   0.000000000   0.000000000   1.630944019

ATOMIC_POSITIONS (crystal)
Na      -0.000000000   0.000000000  -0.000000000
Na       0.666666000   0.333333000   0.500000000



     Writing output data file na_hcp_-0.3$.save
     NEW-OLD atomic charge density approx. for the potential
     extrapolated charge   18.00189, renormalised to   18.00000

     total cpu time spent up to now is       50.9 secs

     per-process dynamical memory:    23.1 Mb

     Self-consistent Calculation

     iteration #  1     ecut=    40.00 Ry     beta=0.70
     Davidson diagonalization with overlap
     ethr =  1.00E-06,  avg # of iterations =  2.0

     Threshold (ethr) on eigenvalues was too large:
     Diagonalizing with lowered threshold

     Davidson diagonalization with overlap
     ethr =  3.64E-09,  avg # of iterations =  1.0

     total cpu time spent up to now is       51.3 secs

     total energy              =    -190.21300925 Ry
     Harris-Foulkes estimate   =    -190.19835888 Ry
     estimated scf accuracy    <       0.00000066 Ry

     iteration #  2     ecut=    40.00 Ry     beta=0.70
     Davidson diagonalization with overlap
     ethr =  3.65E-09,  avg # of iterations =  3.0

     total cpu time spent up to now is       51.6 secs

     total energy              =    -190.21301045 Ry
     Harris-Foulkes estimate   =    -190.21301094 Ry
     estimated scf accuracy    <       0.00000110 Ry

     iteration #  3     ecut=    40.00 Ry     beta=0.70
     Davidson diagonalization with overlap
     ethr =  3.65E-09,  avg # of iterations =  2.0

     total cpu time spent up to now is       51.8 secs

     total energy              =    -190.21301045 Ry
     Harris-Foulkes estimate   =    -190.21301053 Ry
     estimated scf accuracy    <       0.00000021 Ry

     iteration #  4     ecut=    40.00 Ry     beta=0.70
     Davidson diagonalization with overlap
     ethr =  1.18E-09,  avg # of iterations =  1.0

     total cpu time spent up to now is       52.0 secs

     total energy              =    -190.21301045 Ry
     Harris-Foulkes estimate   =    -190.21301046 Ry
     estimated scf accuracy    <       0.00000007 Ry

     iteration #  5     ecut=    40.00 Ry     beta=0.70
     Davidson diagonalization with overlap
     ethr =  3.86E-10,  avg # of iterations =  1.0

     total cpu time spent up to now is       52.2 secs

     total energy              =    -190.21301044 Ry
     Harris-Foulkes estimate   =    -190.21301046 Ry
     estimated scf accuracy    <       0.00000005 Ry

     iteration #  6     ecut=    40.00 Ry     beta=0.70
     Davidson diagonalization with overlap
     ethr =  2.97E-10,  avg # of iterations =  1.0

     total cpu time spent up to now is       52.4 secs

     total energy              =    -190.21301043 Ry
     Harris-Foulkes estimate   =    -190.21301044 Ry
     estimated scf accuracy    <       0.00000002 Ry

     iteration #  7     ecut=    40.00 Ry     beta=0.70
     Davidson diagonalization with overlap
     ethr =  1.32E-10,  avg # of iterations =  2.0

     total cpu time spent up to now is       52.6 secs

     End of self-consistent calculation

     Number of k-points >= 100: set verbosity='high' to print the bands.

     the Fermi energy is     1.7498 ev

!    total energy              =    -190.21301043 Ry
     Harris-Foulkes estimate   =    -190.21301043 Ry
     estimated scf accuracy    <          1.7E-12 Ry

     The total energy is the sum of the following terms:

     one-electron contribution =    -174.79310306 Ry
     hartree contribution      =      88.23873759 Ry
     xc contribution           =     -28.54600270 Ry
     ewald contribution        =     -75.11251450 Ry
     smearing contrib. (-TS)   =      -0.00012776 Ry

     convergence has been achieved in   7 iterations

     Forces acting on atoms (Ry/au):

     atom    1 type  1   force =    -0.00000000    0.00000000   -0.00000000
     atom    2 type  1   force =     0.00000000    0.00000000    0.00000000

     Total force =     0.000000     Total SCF correction =     0.000000


     entering subroutine stress ...

          total   stress  (Ry/bohr**3)                   (kbar)     P=   -0.03
  -0.00000053  -0.00000000  -0.00000000         -0.08     -0.00     -0.00
  -0.00000000  -0.00000053   0.00000000         -0.00     -0.08      0.00
  -0.00000000  -0.00000000   0.00000037         -0.00     -0.00      0.05


     number of scf cycles    =   6
     number of bfgs steps    =   5

     enthalpy old            =    -190.2139961499 Ry
     enthalpy new            =    -190.2139962511 Ry

     CASE: enthalpy_new < enthalpy_old

     new trust radius        =       0.0003072376 bohr
     new conv_thr            =       0.0000000010 Ry

     new unit-cell volume =    483.47301 a.u.^3 (    71.64331 Ang^3 )

CELL_PARAMETERS (alat=  6.99385000)
   1.000257072   0.000000000  -0.000000000
  -0.500128536   0.866248035   0.000000000
   0.000000000   0.000000000   1.631057973

ATOMIC_POSITIONS (crystal)
Na       0.000000000   0.000000000  -0.000000000
Na       0.666666000   0.333333000   0.500000000



     Writing output data file na_hcp_-0.3$.save
     NEW-OLD atomic charge density approx. for the potential
     extrapolated charge   18.00282, renormalised to   18.00000

     total cpu time spent up to now is       59.9 secs

     per-process dynamical memory:    23.1 Mb

     Self-consistent Calculation

     iteration #  1     ecut=    40.00 Ry     beta=0.70
     Davidson diagonalization with overlap
     ethr =  1.00E-06,  avg # of iterations =  2.0

     Threshold (ethr) on eigenvalues was too large:
     Diagonalizing with lowered threshold

     Davidson diagonalization with overlap
     ethr =  8.11E-09,  avg # of iterations =  1.0

     total cpu time spent up to now is       60.3 secs

     total energy              =    -190.21300780 Ry
     Harris-Foulkes estimate   =    -190.19115324 Ry
     estimated scf accuracy    <       0.00000146 Ry

     iteration #  2     ecut=    40.00 Ry     beta=0.70
     Davidson diagonalization with overlap
     ethr =  8.13E-09,  avg # of iterations =  3.0

     total cpu time spent up to now is       60.6 secs

     total energy              =    -190.21301047 Ry
     Harris-Foulkes estimate   =    -190.21301155 Ry
     estimated scf accuracy    <       0.00000245 Ry

     iteration #  3     ecut=    40.00 Ry     beta=0.70
     Davidson diagonalization with overlap
     ethr =  8.13E-09,  avg # of iterations =  2.0

     total cpu time spent up to now is       60.9 secs

     total energy              =    -190.21301047 Ry
     Harris-Foulkes estimate   =    -190.21301063 Ry
     estimated scf accuracy    <       0.00000047 Ry

     iteration #  4     ecut=    40.00 Ry     beta=0.70
     Davidson diagonalization with overlap
     ethr =  2.62E-09,  avg # of iterations =  1.0

     total cpu time spent up to now is       61.0 secs

     total energy              =    -190.21301047 Ry
     Harris-Foulkes estimate   =    -190.21301049 Ry
     estimated scf accuracy    <       0.00000015 Ry

     iteration #  5     ecut=    40.00 Ry     beta=0.70
     Davidson diagonalization with overlap
     ethr =  8.60E-10,  avg # of iterations =  1.0

     total cpu time spent up to now is       61.2 secs

     total energy              =    -190.21301044 Ry
     Harris-Foulkes estimate   =    -190.21301047 Ry
     estimated scf accuracy    <       0.00000012 Ry

     iteration #  6     ecut=    40.00 Ry     beta=0.70
     Davidson diagonalization with overlap
     ethr =  6.53E-10,  avg # of iterations =  1.0

     total cpu time spent up to now is       61.4 secs

     total energy              =    -190.21301041 Ry
     Harris-Foulkes estimate   =    -190.21301044 Ry
     estimated scf accuracy    <       0.00000005 Ry

     iteration #  7     ecut=    40.00 Ry     beta=0.70
     Davidson diagonalization with overlap
     ethr =  2.92E-10,  avg # of iterations =  2.0

     total cpu time spent up to now is       61.7 secs

     End of self-consistent calculation

     Number of k-points >= 100: set verbosity='high' to print the bands.

     the Fermi energy is     1.7491 ev

!    total energy              =    -190.21301042 Ry
     Harris-Foulkes estimate   =    -190.21301042 Ry
     estimated scf accuracy    <          5.5E-12 Ry

     The total energy is the sum of the following terms:

     one-electron contribution =    -174.79998512 Ry
     hartree contribution      =      88.24164966 Ry
     xc contribution           =     -28.54595966 Ry
     ewald contribution        =     -75.10858756 Ry
     smearing contrib. (-TS)   =      -0.00012775 Ry

     convergence has been achieved in   7 iterations

     Forces acting on atoms (Ry/au):

     atom    1 type  1   force =     0.00000000   -0.00000000    0.00000000
     atom    2 type  1   force =     0.00000000    0.00000000    0.00000000

     Total force =     0.000000     Total SCF correction =     0.000000


     entering subroutine stress ...

          total   stress  (Ry/bohr**3)                   (kbar)     P=   -0.06
  -0.00000067  -0.00000000   0.00000000         -0.10     -0.00      0.00
  -0.00000000  -0.00000067   0.00000000         -0.00     -0.10      0.00
  -0.00000000   0.00000000   0.00000021         -0.00      0.00      0.03


     number of scf cycles    =   7
     number of bfgs steps    =   6

     enthalpy old            =    -190.2139962511 Ry
     enthalpy new            =    -190.2139963952 Ry

     CASE: enthalpy_new < enthalpy_old

     new trust radius        =       0.0004608603 bohr
     new conv_thr            =       0.0000000010 Ry

     new unit-cell volume =    483.58525 a.u.^3 (    71.65994 Ang^3 )

CELL_PARAMETERS (alat=  6.99385000)
   1.000320763   0.000000000  -0.000000000
  -0.500160381   0.866303193   0.000000000
   0.000000000   0.000000000   1.631228905

ATOMIC_POSITIONS (crystal)
Na       0.000000000   0.000000000  -0.000000000
Na       0.666666000   0.333333000   0.500000000



     Writing output data file na_hcp_-0.3$.save
     NEW-OLD atomic charge density approx. for the potential
     extrapolated charge   18.00418, renormalised to   18.00000

     total cpu time spent up to now is       65.0 secs

     per-process dynamical memory:    23.1 Mb

     Self-consistent Calculation

     iteration #  1     ecut=    40.00 Ry     beta=0.70
     Davidson diagonalization with overlap
     ethr =  1.00E-06,  avg # of iterations =  2.0

     Threshold (ethr) on eigenvalues was too large:
     Diagonalizing with lowered threshold

     Davidson diagonalization with overlap
     ethr =  1.77E-08,  avg # of iterations =  1.0

     total cpu time spent up to now is       65.4 secs

     total energy              =    -190.21300466 Ry
     Harris-Foulkes estimate   =    -190.18067400 Ry
     estimated scf accuracy    <       0.00000320 Ry

     iteration #  2     ecut=    40.00 Ry     beta=0.70
     Davidson diagonalization with overlap
     ethr =  1.78E-08,  avg # of iterations =  3.0

     total cpu time spent up to now is       65.7 secs

     total energy              =    -190.21301050 Ry
     Harris-Foulkes estimate   =    -190.21301285 Ry
     estimated scf accuracy    <       0.00000537 Ry

     iteration #  3     ecut=    40.00 Ry     beta=0.70
     Davidson diagonalization with overlap
     ethr =  1.78E-08,  avg # of iterations =  2.0

     total cpu time spent up to now is       65.9 secs

     total energy              =    -190.21301049 Ry
     Harris-Foulkes estimate   =    -190.21301085 Ry
     estimated scf accuracy    <       0.00000103 Ry

     iteration #  4     ecut=    40.00 Ry     beta=0.70
     Davidson diagonalization with overlap
     ethr =  5.74E-09,  avg # of iterations =  1.0

     total cpu time spent up to now is       66.1 secs

     total energy              =    -190.21301050 Ry
     Harris-Foulkes estimate   =    -190.21301054 Ry
     estimated scf accuracy    <       0.00000034 Ry

     iteration #  5     ecut=    40.00 Ry     beta=0.70
     Davidson diagonalization with overlap
     ethr =  1.88E-09,  avg # of iterations =  1.0

     total cpu time spent up to now is       66.3 secs

     total energy              =    -190.21301043 Ry
     Harris-Foulkes estimate   =    -190.21301051 Ry
     estimated scf accuracy    <       0.00000026 Ry

     iteration #  6     ecut=    40.00 Ry     beta=0.70
     Davidson diagonalization with overlap
     ethr =  1.43E-09,  avg # of iterations =  1.0

     total cpu time spent up to now is       66.5 secs

     total energy              =    -190.21301036 Ry
     Harris-Foulkes estimate   =    -190.21301044 Ry
     estimated scf accuracy    <       0.00000012 Ry

     iteration #  7     ecut=    40.00 Ry     beta=0.70
     Davidson diagonalization with overlap
     ethr =  6.40E-10,  avg # of iterations =  2.0

     total cpu time spent up to now is       66.8 secs

     End of self-consistent calculation

     Number of k-points >= 100: set verbosity='high' to print the bands.

     the Fermi energy is     1.7481 ev

!    total energy              =    -190.21301039 Ry
     Harris-Foulkes estimate   =    -190.21301039 Ry
     estimated scf accuracy    <          1.2E-11 Ry

     The total energy is the sum of the following terms:

     one-electron contribution =    -174.81020533 Ry
     hartree contribution      =      88.24600622 Ry
     xc contribution           =     -28.54590497 Ry
     ewald contribution        =     -75.10277858 Ry
     smearing contrib. (-TS)   =      -0.00012773 Ry

     convergence has been achieved in   7 iterations

     Forces acting on atoms (Ry/au):

     atom    1 type  1   force =    -0.00000000    0.00000000   -0.00000000
     atom    2 type  1   force =     0.00000000    0.00000000    0.00000000

     Total force =     0.000000     Total SCF correction =     0.000000


     entering subroutine stress ...

          total   stress  (Ry/bohr**3)                   (kbar)     P=   -0.05
  -0.00000062  -0.00000000   0.00000000         -0.09     -0.00      0.00
  -0.00000000  -0.00000062   0.00000000         -0.00     -0.09      0.00
   0.00000000  -0.00000000   0.00000022          0.00     -0.00      0.03


     number of scf cycles    =   8
     number of bfgs steps    =   7

     enthalpy old            =    -190.2139963952 Ry
     enthalpy new            =    -190.2139965933 Ry

     CASE: enthalpy_new < enthalpy_old


     WARNING: bfgs curvature condition failed, Theta= 0.701
     uphill step: resetting bfgs history

     new trust radius        =       0.0002482971 bohr
     new conv_thr            =       0.0000000010 Ry

     new unit-cell volume =    483.64678 a.u.^3 (    71.66906 Ang^3 )

CELL_PARAMETERS (alat=  6.99385000)
   1.000356157   0.000000000  -0.000000000
  -0.500178078   0.866333845  -0.000000000
   0.000000000   0.000000000   1.631320996

ATOMIC_POSITIONS (crystal)
Na       0.000000000   0.000000000  -0.000000000
Na       0.666666000   0.333333000   0.500000000



     Writing output data file na_hcp_-0.3$.save
     NEW-OLD atomic charge density approx. for the potential
     extrapolated charge   18.00229, renormalised to   18.00000

     total cpu time spent up to now is       70.1 secs

     per-process dynamical memory:    23.1 Mb

     Self-consistent Calculation

     iteration #  1     ecut=    40.00 Ry     beta=0.70
     Davidson diagonalization with overlap
     ethr =  1.00E-06,  avg # of iterations =  2.0

     Threshold (ethr) on eigenvalues was too large:
     Diagonalizing with lowered threshold

     Davidson diagonalization with overlap
     ethr =  5.37E-09,  avg # of iterations =  1.0

     total cpu time spent up to now is       70.4 secs

     total energy              =    -190.21300864 Ry
     Harris-Foulkes estimate   =    -190.19528785 Ry
     estimated scf accuracy    <       0.00000097 Ry

     iteration #  2     ecut=    40.00 Ry     beta=0.70
     Davidson diagonalization with overlap
     ethr =  5.38E-09,  avg # of iterations =  3.0

     total cpu time spent up to now is       70.7 secs

     total energy              =    -190.21301040 Ry
     Harris-Foulkes estimate   =    -190.21301111 Ry
     estimated scf accuracy    <       0.00000162 Ry

     iteration #  3     ecut=    40.00 Ry     beta=0.70
     Davidson diagonalization with overlap
     ethr =  5.38E-09,  avg # of iterations =  2.0

     total cpu time spent up to now is       71.0 secs

     total energy              =    -190.21301040 Ry
     Harris-Foulkes estimate   =    -190.21301050 Ry
     estimated scf accuracy    <       0.00000031 Ry

     iteration #  4     ecut=    40.00 Ry     beta=0.70
     Davidson diagonalization with overlap
     ethr =  1.72E-09,  avg # of iterations =  1.0

     total cpu time spent up to now is       71.2 secs

     total energy              =    -190.21301040 Ry
     Harris-Foulkes estimate   =    -190.21301041 Ry
     estimated scf accuracy    <       0.00000010 Ry

     iteration #  5     ecut=    40.00 Ry     beta=0.70
     Davidson diagonalization with overlap
     ethr =  5.61E-10,  avg # of iterations =  1.0

     total cpu time spent up to now is       71.3 secs

     total energy              =    -190.21301038 Ry
     Harris-Foulkes estimate   =    -190.21301040 Ry
     estimated scf accuracy    <       0.00000007 Ry

     iteration #  6     ecut=    40.00 Ry     beta=0.70
     Davidson diagonalization with overlap
     ethr =  3.92E-10,  avg # of iterations =  1.0

     total cpu time spent up to now is       71.5 secs

     total energy              =    -190.21301036 Ry
     Harris-Foulkes estimate   =    -190.21301038 Ry
     estimated scf accuracy    <       0.00000003 Ry

     iteration #  7     ecut=    40.00 Ry     beta=0.70
     Davidson diagonalization with overlap
     ethr =  1.77E-10,  avg # of iterations =  2.0

     total cpu time spent up to now is       71.8 secs

     End of self-consistent calculation

     Number of k-points >= 100: set verbosity='high' to print the bands.

     the Fermi energy is     1.7476 ev

!    total energy              =    -190.21301036 Ry
     Harris-Foulkes estimate   =    -190.21301036 Ry
     estimated scf accuracy    <          1.7E-10 Ry

     The total energy is the sum of the following terms:

     one-electron contribution =    -174.81568881 Ry
     hartree contribution      =      88.24825016 Ry
     xc contribution           =     -28.54584881 Ry
     ewald contribution        =     -75.09959518 Ry
     smearing contrib. (-TS)   =      -0.00012772 Ry

     convergence has been achieved in   7 iterations

     Forces acting on atoms (Ry/au):

     atom    1 type  1   force =    -0.00000000    0.00000000   -0.00000000
     atom    2 type  1   force =     0.00000000    0.00000000    0.00000000

     Total force =     0.000000     Total SCF correction =     0.000000


     entering subroutine stress ...

          total   stress  (Ry/bohr**3)                   (kbar)     P=   -0.16
  -0.00000133  -0.00000000  -0.00000000         -0.20     -0.00     -0.00
  -0.00000000  -0.00000133   0.00000000         -0.00     -0.20      0.00
  -0.00000000   0.00000000  -0.00000052         -0.00      0.00     -0.08


     number of scf cycles    =   9
     number of bfgs steps    =   8

     enthalpy old            =    -190.2139965933 Ry
     enthalpy new            =    -190.2139966937 Ry

     CASE: enthalpy_new < enthalpy_old

     new trust radius        =       0.0002731287 bohr
     new conv_thr            =       0.0000000010 Ry

     new unit-cell volume =    483.70507 a.u.^3 (    71.67770 Ang^3 )

CELL_PARAMETERS (alat=  6.99385000)
   1.000385381  -0.000000000  -0.000000000
  -0.500192690   0.866359153  -0.000000000
   0.000000000   0.000000000   1.631422297

ATOMIC_POSITIONS (crystal)
Na       0.000000000   0.000000000  -0.000000000
Na       0.666666000   0.333333000   0.500000000



     Writing output data file na_hcp_-0.3$.save
     NEW-OLD atomic charge density approx. for the potential
     extrapolated charge   18.00217, renormalised to   18.00000

     total cpu time spent up to now is       77.0 secs

     per-process dynamical memory:    23.1 Mb

     Self-consistent Calculation

     iteration #  1     ecut=    40.00 Ry     beta=0.70
     Davidson diagonalization with overlap
     ethr =  1.00E-06,  avg # of iterations =  2.0

     Threshold (ethr) on eigenvalues was too large:
     Diagonalizing with lowered threshold

     Davidson diagonalization with overlap
     ethr =  4.66E-09,  avg # of iterations =  1.0

     total cpu time spent up to now is       77.4 secs

     total energy              =    -190.21300881 Ry
     Harris-Foulkes estimate   =    -190.19622015 Ry
     estimated scf accuracy    <       0.00000084 Ry

     iteration #  2     ecut=    40.00 Ry     beta=0.70
     Davidson diagonalization with overlap
     ethr =  4.68E-09,  avg # of iterations =  3.0

     total cpu time spent up to now is       77.7 secs

     total energy              =    -190.21301037 Ry
     Harris-Foulkes estimate   =    -190.21301100 Ry
     estimated scf accuracy    <       0.00000144 Ry

     iteration #  3     ecut=    40.00 Ry     beta=0.70
     Davidson diagonalization with overlap
     ethr =  4.68E-09,  avg # of iterations =  2.0

     total cpu time spent up to now is       77.9 secs

     total energy              =    -190.21301037 Ry
     Harris-Foulkes estimate   =    -190.21301046 Ry
     estimated scf accuracy    <       0.00000028 Ry

     iteration #  4     ecut=    40.00 Ry     beta=0.70
     Davidson diagonalization with overlap
     ethr =  1.55E-09,  avg # of iterations =  1.0

     total cpu time spent up to now is       78.1 secs

     total energy              =    -190.21301038 Ry
     Harris-Foulkes estimate   =    -190.21301038 Ry
     estimated scf accuracy    <       0.00000009 Ry

     iteration #  5     ecut=    40.00 Ry     beta=0.70
     Davidson diagonalization with overlap
     ethr =  4.96E-10,  avg # of iterations =  1.0

     total cpu time spent up to now is       78.3 secs

     total energy              =    -190.21301035 Ry
     Harris-Foulkes estimate   =    -190.21301038 Ry
     estimated scf accuracy    <       0.00000009 Ry

     iteration #  6     ecut=    40.00 Ry     beta=0.70
     Davidson diagonalization with overlap
     ethr =  4.89E-10,  avg # of iterations =  1.0

     total cpu time spent up to now is       78.5 secs

     total energy              =    -190.21301033 Ry
     Harris-Foulkes estimate   =    -190.21301035 Ry
     estimated scf accuracy    <       0.00000003 Ry

     iteration #  7     ecut=    40.00 Ry     beta=0.70
     Davidson diagonalization with overlap
     ethr =  1.79E-10,  avg # of iterations =  2.0

     total cpu time spent up to now is       78.7 secs

     End of self-consistent calculation

     Number of k-points >= 100: set verbosity='high' to print the bands.

     the Fermi energy is     1.7470 ev

!    total energy              =    -190.21301034 Ry
     Harris-Foulkes estimate   =    -190.21301034 Ry
     estimated scf accuracy    <          7.0E-10 Ry

     The total energy is the sum of the following terms:

     one-electron contribution =    -174.82122008 Ry
     hartree contribution      =      88.25078955 Ry
     xc contribution           =     -28.54587181 Ry
     ewald contribution        =     -75.09658028 Ry
     smearing contrib. (-TS)   =      -0.00012771 Ry

     convergence has been achieved in   7 iterations

     Forces acting on atoms (Ry/au):

     atom    1 type  1   force =    -0.00000000   -0.00000000    0.00000000
     atom    2 type  1   force =     0.00000000    0.00000000    0.00000000

     Total force =     0.000000     Total SCF correction =     0.000000


     entering subroutine stress ...

          total   stress  (Ry/bohr**3)                   (kbar)     P=    0.06
   0.00000017   0.00000000  -0.00000000          0.02      0.00     -0.00
   0.00000000   0.00000017   0.00000000          0.00      0.02      0.00
  -0.00000000   0.00000000   0.00000094         -0.00      0.00      0.14


     number of scf cycles    =  10
     number of bfgs steps    =   9

     enthalpy old            =    -190.2139966937 Ry
     enthalpy new            =    -190.2139967866 Ry

     CASE: enthalpy_new < enthalpy_old


     WARNING: bfgs curvature condition failed, Theta= 0.263
     new trust radius        =       0.0004096923 bohr
     new conv_thr            =       0.0000000010 Ry

     new unit-cell volume =    483.79889 a.u.^3 (    71.69160 Ang^3 )

CELL_PARAMETERS (alat=  6.99385000)
   1.000435807  -0.000000000  -0.000000000
  -0.500217903   0.866402823  -0.000000000
  -0.000000000   0.000000000   1.631574248

ATOMIC_POSITIONS (crystal)
Na       0.000000000   0.000000000  -0.000000000
Na       0.666666000   0.333333000   0.500000000



     Writing output data file na_hcp_-0.3$.save
     NEW-OLD atomic charge density approx. for the potential
     extrapolated charge   18.00349, renormalised to   18.00000

     total cpu time spent up to now is       84.4 secs

     per-process dynamical memory:    23.1 Mb

     Self-consistent Calculation

     iteration #  1     ecut=    40.00 Ry     beta=0.70
     Davidson diagonalization with overlap
     ethr =  1.00E-06,  avg # of iterations =  2.0

     Threshold (ethr) on eigenvalues was too large:
     Diagonalizing with lowered threshold

     Davidson diagonalization with overlap
     ethr =  1.28E-08,  avg # of iterations =  1.0

     total cpu time spent up to now is       84.8 secs

     total energy              =    -190.21300623 Ry
     Harris-Foulkes estimate   =    -190.18599022 Ry
     estimated scf accuracy    <       0.00000231 Ry

     iteration #  2     ecut=    40.00 Ry     beta=0.70
     Davidson diagonalization with overlap
     ethr =  1.28E-08,  avg # of iterations =  3.0

     total cpu time spent up to now is       85.1 secs

     total energy              =    -190.21301035 Ry
     Harris-Foulkes estimate   =    -190.21301202 Ry
     estimated scf accuracy    <       0.00000377 Ry

     iteration #  3     ecut=    40.00 Ry     beta=0.70
     Davidson diagonalization with overlap
     ethr =  1.28E-08,  avg # of iterations =  2.0

     total cpu time spent up to now is       85.4 secs

     total energy              =    -190.21301036 Ry
     Harris-Foulkes estimate   =    -190.21301060 Ry
     estimated scf accuracy    <       0.00000071 Ry

     iteration #  4     ecut=    40.00 Ry     beta=0.70
     Davidson diagonalization with overlap
     ethr =  3.97E-09,  avg # of iterations =  1.0

     total cpu time spent up to now is       85.5 secs

     total energy              =    -190.21301034 Ry
     Harris-Foulkes estimate   =    -190.21301039 Ry
     estimated scf accuracy    <       0.00000024 Ry

     iteration #  5     ecut=    40.00 Ry     beta=0.70
     Davidson diagonalization with overlap
     ethr =  1.35E-09,  avg # of iterations =  1.0

     total cpu time spent up to now is       85.7 secs

     total energy              =    -190.21301031 Ry
     Harris-Foulkes estimate   =    -190.21301034 Ry
     estimated scf accuracy    <       0.00000013 Ry

     iteration #  6     ecut=    40.00 Ry     beta=0.70
     Davidson diagonalization with overlap
     ethr =  7.24E-10,  avg # of iterations =  1.0

     total cpu time spent up to now is       85.9 secs

     total energy              =    -190.21301027 Ry
     Harris-Foulkes estimate   =    -190.21301031 Ry
     estimated scf accuracy    <       0.00000006 Ry

     iteration #  7     ecut=    40.00 Ry     beta=0.70
     Davidson diagonalization with overlap
     ethr =  3.40E-10,  avg # of iterations =  2.0

     total cpu time spent up to now is       86.2 secs

     End of self-consistent calculation

     Number of k-points >= 100: set verbosity='high' to print the bands.

     the Fermi energy is     1.7462 ev

!    total energy              =    -190.21301028 Ry
     Harris-Foulkes estimate   =    -190.21301028 Ry
     estimated scf accuracy    <          2.8E-10 Ry

     The total energy is the sum of the following terms:

     one-electron contribution =    -174.82946453 Ry
     hartree contribution      =      88.25407024 Ry
     xc contribution           =     -28.54576012 Ry
     ewald contribution        =     -75.09172818 Ry
     smearing contrib. (-TS)   =      -0.00012769 Ry

     convergence has been achieved in   7 iterations

     Forces acting on atoms (Ry/au):

     atom    1 type  1   force =     0.00000000    0.00000000   -0.00000000
     atom    2 type  1   force =     0.00000000    0.00000000    0.00000000

     Total force =     0.000000     Total SCF correction =     0.000000


     entering subroutine stress ...

          total   stress  (Ry/bohr**3)                   (kbar)     P=   -0.21
  -0.00000168  -0.00000000  -0.00000000         -0.25     -0.00     -0.00
  -0.00000000  -0.00000168   0.00000000         -0.00     -0.25      0.00
  -0.00000000   0.00000000  -0.00000094         -0.00      0.00     -0.14


     number of scf cycles    =  11
     number of bfgs steps    =  10

     enthalpy old            =    -190.2139967866 Ry
     enthalpy new            =    -190.2139969233 Ry

     CASE: enthalpy_new < enthalpy_old

     new trust radius        =       0.0002152505 bohr
     new conv_thr            =       0.0000000010 Ry

     new unit-cell volume =    483.83503 a.u.^3 (    71.69695 Ang^3 )

CELL_PARAMETERS (alat=  6.99385000)
   1.000448694  -0.000000000  -0.000000000
  -0.500224347   0.866413984  -0.000000000
   0.000000000   0.000000000   1.631654082

ATOMIC_POSITIONS (crystal)
Na       0.000000000   0.000000000  -0.000000000
Na       0.666666000   0.333333000   0.500000000



     Writing output data file na_hcp_-0.3$.save
     NEW-OLD atomic charge density approx. for the potential
     extrapolated charge   18.00134, renormalised to   18.00000

     total cpu time spent up to now is       90.5 secs

     per-process dynamical memory:    23.1 Mb

     Self-consistent Calculation

     iteration #  1     ecut=    40.00 Ry     beta=0.70
     Davidson diagonalization with overlap
     ethr =  1.00E-06,  avg # of iterations =  2.0

     Threshold (ethr) on eigenvalues was too large:
     Diagonalizing with lowered threshold

     Davidson diagonalization with overlap
     ethr =  1.74E-09,  avg # of iterations =  1.0

     total cpu time spent up to now is       90.9 secs

     total energy              =    -190.21300969 Ry
     Harris-Foulkes estimate   =    -190.20260360 Ry
     estimated scf accuracy    <       0.00000031 Ry

     iteration #  2     ecut=    40.00 Ry     beta=0.70
     Davidson diagonalization with overlap
     ethr =  1.75E-09,  avg # of iterations =  3.0

     total cpu time spent up to now is       91.2 secs

     total energy              =    -190.21301028 Ry
     Harris-Foulkes estimate   =    -190.21301051 Ry
     estimated scf accuracy    <       0.00000055 Ry

     iteration #  3     ecut=    40.00 Ry     beta=0.70
     Davidson diagonalization with overlap
     ethr =  1.75E-09,  avg # of iterations =  2.0

     total cpu time spent up to now is       91.5 secs

     total energy              =    -190.21301027 Ry
     Harris-Foulkes estimate   =    -190.21301031 Ry
     estimated scf accuracy    <       0.00000011 Ry

     iteration #  4     ecut=    40.00 Ry     beta=0.70
     Davidson diagonalization with overlap
     ethr =  5.99E-10,  avg # of iterations =  1.0

     total cpu time spent up to now is       91.7 secs

     total energy              =    -190.21301028 Ry
     Harris-Foulkes estimate   =    -190.21301028 Ry
     estimated scf accuracy    <       0.00000003 Ry

     iteration #  5     ecut=    40.00 Ry     beta=0.70
     Davidson diagonalization with overlap
     ethr =  1.81E-10,  avg # of iterations =  1.0

     total cpu time spent up to now is       91.8 secs

     total energy              =    -190.21301027 Ry
     Harris-Foulkes estimate   =    -190.21301028 Ry
     estimated scf accuracy    <       0.00000004 Ry

     iteration #  6     ecut=    40.00 Ry     beta=0.70
     Davidson diagonalization with overlap
     ethr =  1.81E-10,  avg # of iterations =  1.0

     total cpu time spent up to now is       92.0 secs

     total energy              =    -190.21301026 Ry
     Harris-Foulkes estimate   =    -190.21301027 Ry
     estimated scf accuracy    <       0.00000001 Ry

     iteration #  7     ecut=    40.00 Ry     beta=0.70
     Davidson diagonalization with overlap
     ethr =  7.11E-11,  avg # of iterations =  2.0

     total cpu time spent up to now is       92.3 secs

     End of self-consistent calculation

     Number of k-points >= 100: set verbosity='high' to print the bands.

     the Fermi energy is     1.7459 ev

!    total energy              =    -190.21301026 Ry
     Harris-Foulkes estimate   =    -190.21301026 Ry
     estimated scf accuracy    <          2.0E-10 Ry

     The total energy is the sum of the following terms:

     one-electron contribution =    -174.83292927 Ry
     hartree contribution      =      88.25569073 Ry
     xc contribution           =     -28.54578326 Ry
     ewald contribution        =     -75.08986080 Ry
     smearing contrib. (-TS)   =      -0.00012767 Ry

     convergence has been achieved in   7 iterations

     Forces acting on atoms (Ry/au):

     atom    1 type  1   force =     0.00000000    0.00000000    0.00000000
     atom    2 type  1   force =     0.00000000    0.00000000    0.00000000

     Total force =     0.000000     Total SCF correction =     0.000000


     entering subroutine stress ...

          total   stress  (Ry/bohr**3)                   (kbar)     P=   -0.03
  -0.00000046  -0.00000000  -0.00000000         -0.07     -0.00     -0.00
  -0.00000000  -0.00000046  -0.00000000         -0.00     -0.07     -0.00
   0.00000000  -0.00000000   0.00000023          0.00     -0.00      0.03


     number of scf cycles    =  12
     number of bfgs steps    =  11

     enthalpy old            =    -190.2139969233 Ry
     enthalpy new            =    -190.2139969768 Ry

     CASE: enthalpy_new < enthalpy_old


     WARNING: bfgs curvature condition failed, Theta= 0.334
     new trust radius        =       0.0002367728 bohr
     new conv_thr            =       0.0000000010 Ry

     new unit-cell volume =    483.88099 a.u.^3 (    71.70376 Ang^3 )

CELL_PARAMETERS (alat=  6.99385000)
   1.000469290  -0.000000000  -0.000000000
  -0.500234645   0.866431821  -0.000000000
   0.000000000   0.000000000   1.631741900

ATOMIC_POSITIONS (crystal)
Na       0.000000000   0.000000000  -0.000000000
Na       0.666666000   0.333333000   0.500000000



     Writing output data file na_hcp_-0.3$.save
     NEW-OLD atomic charge density approx. for the potential
     extrapolated charge   18.00171, renormalised to   18.00000

     total cpu time spent up to now is      100.2 secs

     per-process dynamical memory:    23.1 Mb

     Self-consistent Calculation

     iteration #  1     ecut=    40.00 Ry     beta=0.70
     Davidson diagonalization with overlap
     ethr =  1.00E-06,  avg # of iterations =  2.0

     Threshold (ethr) on eigenvalues was too large:
     Diagonalizing with lowered threshold

     Davidson diagonalization with overlap
     ethr =  3.06E-09,  avg # of iterations =  1.0

     total cpu time spent up to now is      100.6 secs

     total energy              =    -190.21300926 Ry
     Harris-Foulkes estimate   =    -190.19977498 Ry
     estimated scf accuracy    <       0.00000055 Ry

     iteration #  2     ecut=    40.00 Ry     beta=0.70
     Davidson diagonalization with overlap
     ethr =  3.08E-09,  avg # of iterations =  3.0

     total cpu time spent up to now is      100.9 secs

     total energy              =    -190.21301025 Ry
     Harris-Foulkes estimate   =    -190.21301065 Ry
     estimated scf accuracy    <       0.00000090 Ry

     iteration #  3     ecut=    40.00 Ry     beta=0.70
     Davidson diagonalization with overlap
     ethr =  3.08E-09,  avg # of iterations =  2.0

     total cpu time spent up to now is      101.1 secs

     total energy              =    -190.21301025 Ry
     Harris-Foulkes estimate   =    -190.21301031 Ry
     estimated scf accuracy    <       0.00000017 Ry

     iteration #  4     ecut=    40.00 Ry     beta=0.70
     Davidson diagonalization with overlap
     ethr =  9.49E-10,  avg # of iterations =  1.0

     total cpu time spent up to now is      101.3 secs

     total energy              =    -190.21301024 Ry
     Harris-Foulkes estimate   =    -190.21301026 Ry
     estimated scf accuracy    <       0.00000006 Ry

     iteration #  5     ecut=    40.00 Ry     beta=0.70
     Davidson diagonalization with overlap
     ethr =  3.21E-10,  avg # of iterations =  1.0

     total cpu time spent up to now is      101.5 secs

     total energy              =    -190.21301024 Ry
     Harris-Foulkes estimate   =    -190.21301025 Ry
     estimated scf accuracy    <       0.00000003 Ry

     iteration #  6     ecut=    40.00 Ry     beta=0.70
     Davidson diagonalization with overlap
     ethr =  1.67E-10,  avg # of iterations =  1.0

     total cpu time spent up to now is      101.7 secs

     total energy              =    -190.21301023 Ry
     Harris-Foulkes estimate   =    -190.21301024 Ry
     estimated scf accuracy    <       0.00000001 Ry

     iteration #  7     ecut=    40.00 Ry     beta=0.70
     Davidson diagonalization with overlap
     ethr =  7.42E-11,  avg # of iterations =  2.0

     total cpu time spent up to now is      101.9 secs

     End of self-consistent calculation

     Number of k-points >= 100: set verbosity='high' to print the bands.

     the Fermi energy is     1.7455 ev

!    total energy              =    -190.21301023 Ry
     Harris-Foulkes estimate   =    -190.21301023 Ry
     estimated scf accuracy    <          1.5E-12 Ry

     The total energy is the sum of the following terms:

     one-electron contribution =    -174.83700275 Ry
     hartree contribution      =      88.25734242 Ry
     xc contribution           =     -28.54573707 Ry
     ewald contribution        =     -75.08748517 Ry
     smearing contrib. (-TS)   =      -0.00012766 Ry

     convergence has been achieved in   7 iterations

     Forces acting on atoms (Ry/au):

     atom    1 type  1   force =     0.00000000    0.00000000    0.00000000
     atom    2 type  1   force =     0.00000000    0.00000000    0.00000000

     Total force =     0.000000     Total SCF correction =     0.000000


     entering subroutine stress ...

          total   stress  (Ry/bohr**3)                   (kbar)     P=   -0.13
  -0.00000114  -0.00000000  -0.00000000         -0.17     -0.00     -0.00
  -0.00000000  -0.00000114  -0.00000000         -0.00     -0.17     -0.00
   0.00000000   0.00000000  -0.00000048          0.00      0.00     -0.07


     number of scf cycles    =  13
     number of bfgs steps    =  12

     enthalpy old            =    -190.2139969768 Ry
     enthalpy new            =    -190.2139970389 Ry

     CASE: enthalpy_new < enthalpy_old

     new trust radius        =       0.0003551569 bohr
     new conv_thr            =       0.0000000010 Ry

     new unit-cell volume =    483.94259 a.u.^3 (    71.71289 Ang^3 )

CELL_PARAMETERS (alat=  6.99385000)
   1.000492581  -0.000000000  -0.000000000
  -0.500246290   0.866451991   0.000000000
   0.000000000   0.000000000   1.631873626

ATOMIC_POSITIONS (crystal)
Na       0.000000000   0.000000000  -0.000000000
Na       0.666666000   0.333333000   0.500000000



     Writing output data file na_hcp_-0.3$.save
     NEW-OLD atomic charge density approx. for the potential
     extrapolated charge   18.00229, renormalised to   18.00000

     total cpu time spent up to now is      104.8 secs

     per-process dynamical memory:    23.1 Mb

     Self-consistent Calculation

     iteration #  1     ecut=    40.00 Ry     beta=0.70
     Davidson diagonalization with overlap
     ethr =  1.00E-06,  avg # of iterations =  2.0

     Threshold (ethr) on eigenvalues was too large:
     Diagonalizing with lowered threshold

     Davidson diagonalization with overlap
     ethr =  5.30E-09,  avg # of iterations =  1.0

     total cpu time spent up to now is      105.2 secs

     total energy              =    -190.21300847 Ry
     Harris-Foulkes estimate   =    -190.19527575 Ry
     estimated scf accuracy    <       0.00000096 Ry

     iteration #  2     ecut=    40.00 Ry     beta=0.70
     Davidson diagonalization with overlap
     ethr =  5.33E-09,  avg # of iterations =  3.0

     total cpu time spent up to now is      105.5 secs

     total energy              =    -190.21301022 Ry
     Harris-Foulkes estimate   =    -190.21301092 Ry
     estimated scf accuracy    <       0.00000161 Ry

     iteration #  3     ecut=    40.00 Ry     beta=0.70
     Davidson diagonalization with overlap
     ethr =  5.33E-09,  avg # of iterations =  2.0

     total cpu time spent up to now is      105.7 secs

     total energy              =    -190.21301022 Ry
     Harris-Foulkes estimate   =    -190.21301033 Ry
     estimated scf accuracy    <       0.00000031 Ry

     iteration #  4     ecut=    40.00 Ry     beta=0.70
     Davidson diagonalization with overlap
     ethr =  1.72E-09,  avg # of iterations =  1.0

     total cpu time spent up to now is      105.9 secs

     total energy              =    -190.21301022 Ry
     Harris-Foulkes estimate   =    -190.21301023 Ry
     estimated scf accuracy    <       0.00000010 Ry

     iteration #  5     ecut=    40.00 Ry     beta=0.70
     Davidson diagonalization with overlap
     ethr =  5.60E-10,  avg # of iterations =  1.0

     total cpu time spent up to now is      106.1 secs

     total energy              =    -190.21301020 Ry
     Harris-Foulkes estimate   =    -190.21301022 Ry
     estimated scf accuracy    <       0.00000008 Ry

     iteration #  6     ecut=    40.00 Ry     beta=0.70
     Davidson diagonalization with overlap
     ethr =  4.21E-10,  avg # of iterations =  1.0

     total cpu time spent up to now is      106.3 secs

     total energy              =    -190.21301018 Ry
     Harris-Foulkes estimate   =    -190.21301020 Ry
     estimated scf accuracy    <       0.00000003 Ry

     iteration #  7     ecut=    40.00 Ry     beta=0.70
     Davidson diagonalization with overlap
     ethr =  1.73E-10,  avg # of iterations =  2.0

     total cpu time spent up to now is      106.5 secs

     End of self-consistent calculation

     Number of k-points >= 100: set verbosity='high' to print the bands.

     the Fermi energy is     1.7449 ev

!    total energy              =    -190.21301019 Ry
     Harris-Foulkes estimate   =    -190.21301019 Ry
     estimated scf accuracy    <          1.5E-10 Ry

     The total energy is the sum of the following terms:

     one-electron contribution =    -174.84251401 Ry
     hartree contribution      =      88.25962179 Ry
     xc contribution           =     -28.54568746 Ry
     ewald contribution        =     -75.08430288 Ry
     smearing contrib. (-TS)   =      -0.00012763 Ry

     convergence has been achieved in   7 iterations

     Forces acting on atoms (Ry/au):

     atom    1 type  1   force =     0.00000000    0.00000000    0.00000000
     atom    2 type  1   force =     0.00000000    0.00000000    0.00000000

     Total force =     0.000000     Total SCF correction =     0.000000


     entering subroutine stress ...

          total   stress  (Ry/bohr**3)                   (kbar)     P=   -0.21
  -0.00000165  -0.00000000   0.00000000         -0.24     -0.00      0.00
  -0.00000000  -0.00000165   0.00000000         -0.00     -0.24      0.00
  -0.00000000   0.00000000  -0.00000105         -0.00      0.00     -0.15


     number of scf cycles    =  14
     number of bfgs steps    =  13

     enthalpy old            =    -190.2139970389 Ry
     enthalpy new            =    -190.2139971192 Ry

     CASE: enthalpy_new < enthalpy_old

     new trust radius        =       0.0005327263 bohr
     new conv_thr            =       0.0000000010 Ry

     new unit-cell volume =    484.02677 a.u.^3 (    71.72537 Ang^3 )

CELL_PARAMETERS (alat=  6.99385000)
   1.000519023  -0.000000000  -0.000000000
  -0.500259512   0.866474891   0.000000000
   0.000000000   0.000000000   1.632071216

ATOMIC_POSITIONS (crystal)
Na       0.000000000   0.000000000  -0.000000000
Na       0.666666000   0.333333000   0.500000000



     Writing output data file na_hcp_-0.3$.save
     NEW-OLD atomic charge density approx. for the potential
     extrapolated charge   18.00313, renormalised to   18.00000

     total cpu time spent up to now is      110.7 secs

     per-process dynamical memory:    23.1 Mb

     Self-consistent Calculation

     iteration #  1     ecut=    40.00 Ry     beta=0.70
     Davidson diagonalization with overlap
     ethr =  1.00E-06,  avg # of iterations =  2.0

     Threshold (ethr) on eigenvalues was too large:
     Diagonalizing with lowered threshold

     Davidson diagonalization with overlap
     ethr =  9.75E-09,  avg # of iterations =  1.0

     total cpu time spent up to now is      111.1 secs

     total energy              =    -190.21300694 Ry
     Harris-Foulkes estimate   =    -190.18877513 Ry
     estimated scf accuracy    <       0.00000176 Ry

     iteration #  2     ecut=    40.00 Ry     beta=0.70
     Davidson diagonalization with overlap
     ethr =  9.80E-09,  avg # of iterations =  3.0

     total cpu time spent up to now is      111.4 secs

     total energy              =    -190.21301018 Ry
     Harris-Foulkes estimate   =    -190.21301149 Ry
     estimated scf accuracy    <       0.00000299 Ry

     iteration #  3     ecut=    40.00 Ry     beta=0.70
     Davidson diagonalization with overlap
     ethr =  9.80E-09,  avg # of iterations =  2.0

     total cpu time spent up to now is      111.6 secs

     total energy              =    -190.21301017 Ry
     Harris-Foulkes estimate   =    -190.21301038 Ry
     estimated scf accuracy    <       0.00000058 Ry

     iteration #  4     ecut=    40.00 Ry     beta=0.70
     Davidson diagonalization with overlap
     ethr =  3.21E-09,  avg # of iterations =  1.0

     total cpu time spent up to now is      111.8 secs

     total energy              =    -190.21301019 Ry
     Harris-Foulkes estimate   =    -190.21301020 Ry
     estimated scf accuracy    <       0.00000018 Ry

     iteration #  5     ecut=    40.00 Ry     beta=0.70
     Davidson diagonalization with overlap
     ethr =  1.02E-09,  avg # of iterations =  1.0

     total cpu time spent up to now is      112.0 secs

     total energy              =    -190.21301014 Ry
     Harris-Foulkes estimate   =    -190.21301019 Ry
     estimated scf accuracy    <       0.00000016 Ry

     iteration #  6     ecut=    40.00 Ry     beta=0.70
     Davidson diagonalization with overlap
     ethr =  9.09E-10,  avg # of iterations =  1.0

     total cpu time spent up to now is      112.2 secs

     total energy              =    -190.21301010 Ry
     Harris-Foulkes estimate   =    -190.21301014 Ry
     estimated scf accuracy    <       0.00000006 Ry

     iteration #  7     ecut=    40.00 Ry     beta=0.70
     Davidson diagonalization with overlap
     ethr =  3.18E-10,  avg # of iterations =  2.0

     total cpu time spent up to now is      112.5 secs

     End of self-consistent calculation

     Number of k-points >= 100: set verbosity='high' to print the bands.

     the Fermi energy is     1.7442 ev

!    total energy              =    -190.21301012 Ry
     Harris-Foulkes estimate   =    -190.21301012 Ry
     estimated scf accuracy    <          1.3E-11 Ry

     The total energy is the sum of the following terms:

     one-electron contribution =    -174.85019242 Ry
     hartree contribution      =      88.26291857 Ry
     xc contribution           =     -28.54565338 Ry
     ewald contribution        =     -75.07995530 Ry
     smearing contrib. (-TS)   =      -0.00012759 Ry

     convergence has been achieved in   7 iterations

     Forces acting on atoms (Ry/au):

     atom    1 type  1   force =    -0.00000000   -0.00000000    0.00000000
     atom    2 type  1   force =     0.00000000    0.00000000    0.00000000

     Total force =     0.000000     Total SCF correction =     0.000000


     entering subroutine stress ...

          total   stress  (Ry/bohr**3)                   (kbar)     P=   -0.18
  -0.00000140  -0.00000000   0.00000000         -0.21     -0.00      0.00
  -0.00000000  -0.00000140   0.00000000         -0.00     -0.21      0.00
  -0.00000000   0.00000000  -0.00000088         -0.00      0.00     -0.13


     number of scf cycles    =  15
     number of bfgs steps    =  14

     enthalpy old            =    -190.2139971192 Ry
     enthalpy new            =    -190.2139972212 Ry

     CASE: enthalpy_new < enthalpy_old


     WARNING: bfgs curvature condition failed, Theta= 0.642
     uphill step: resetting bfgs history

     new trust radius        =       0.0001272324 bohr
     new conv_thr            =       0.0000000010 Ry

     new unit-cell volume =    484.05633 a.u.^3 (    71.72975 Ang^3 )

CELL_PARAMETERS (alat=  6.99385000)
   1.000535117  -0.000000000  -0.000000000
  -0.500267559   0.866488829   0.000000000
   0.000000000   0.000000000   1.632118408

ATOMIC_POSITIONS (crystal)
Na       0.000000000   0.000000000  -0.000000000
Na       0.666666000   0.333333000   0.500000000



     Writing output data file na_hcp_-0.3$.save
     NEW-OLD atomic charge density approx. for the potential
     extrapolated charge   18.00110, renormalised to   18.00000

     total cpu time spent up to now is      135.0 secs

     per-process dynamical memory:    23.1 Mb

     Self-consistent Calculation

     iteration #  1     ecut=    40.00 Ry     beta=0.70
     Davidson diagonalization with overlap
     ethr =  1.00E-06,  avg # of iterations =  2.0

     Threshold (ethr) on eigenvalues was too large:
     Diagonalizing with lowered threshold

     Davidson diagonalization with overlap
     ethr =  1.21E-09,  avg # of iterations =  1.0

     total cpu time spent up to now is      135.4 secs

     total energy              =    -190.21300969 Ry
     Harris-Foulkes estimate   =    -190.20449820 Ry
     estimated scf accuracy    <       0.00000022 Ry

     iteration #  2     ecut=    40.00 Ry     beta=0.70
     Davidson diagonalization with overlap
     ethr =  1.22E-09,  avg # of iterations =  3.0

     total cpu time spent up to now is      135.7 secs

     total energy              =    -190.21301009 Ry
     Harris-Foulkes estimate   =    -190.21301026 Ry
     estimated scf accuracy    <       0.00000037 Ry

     iteration #  3     ecut=    40.00 Ry     beta=0.70
     Davidson diagonalization with overlap
     ethr =  1.22E-09,  avg # of iterations =  2.0

     total cpu time spent up to now is      135.9 secs

     total energy              =    -190.21301009 Ry
     Harris-Foulkes estimate   =    -190.21301012 Ry
     estimated scf accuracy    <       0.00000007 Ry

     iteration #  4     ecut=    40.00 Ry     beta=0.70
     Davidson diagonalization with overlap
     ethr =  3.98E-10,  avg # of iterations =  1.0

     total cpu time spent up to now is      136.1 secs

     total energy              =    -190.21301010 Ry
     Harris-Foulkes estimate   =    -190.21301010 Ry
     estimated scf accuracy    <       0.00000002 Ry

     iteration #  5     ecut=    40.00 Ry     beta=0.70
     Davidson diagonalization with overlap
[...]

     iteration #  1     ecut=    40.00 Ry     beta=0.70
     Davidson diagonalization with overlap
     ethr =  1.00E-06,  avg # of iterations =  2.0

     Threshold (ethr) on eigenvalues was too large:
     Diagonalizing with lowered threshold

     Davidson diagonalization with overlap
     ethr =  1.19E-09,  avg # of iterations =  1.0

     total cpu time spent up to now is      160.1 secs

     total energy              =    -190.21300959 Ry
     Harris-Foulkes estimate   =    -190.20484234 Ry
     estimated scf accuracy    <       0.00000021 Ry

     iteration #  2     ecut=    40.00 Ry     beta=0.70
     Davidson diagonalization with overlap
     ethr =  1.19E-09,  avg # of iterations =  3.0

     total cpu time spent up to now is      160.4 secs

     total energy              =    -190.21300996 Ry
     Harris-Foulkes estimate   =    -190.21301012 Ry
     estimated scf accuracy    <       0.00000035 Ry

     iteration #  3     ecut=    40.00 Ry     beta=0.70
     Davidson diagonalization with overlap
     ethr =  1.19E-09,  avg # of iterations =  2.0

     total cpu time spent up to now is      160.6 secs

     total energy              =    -190.21300997 Ry
     Harris-Foulkes estimate   =    -190.21300999 Ry
     estimated scf accuracy    <       0.00000006 Ry

     iteration #  4     ecut=    40.00 Ry     beta=0.70
     Davidson diagonalization with overlap
     ethr =  3.60E-10,  avg # of iterations =  1.0

     total cpu time spent up to now is      160.8 secs

     total energy              =    -190.21300996 Ry
     Harris-Foulkes estimate   =    -190.21300997 Ry
     estimated scf accuracy    <       0.00000002 Ry

     iteration #  5     ecut=    40.00 Ry     beta=0.70
     Davidson diagonalization with overlap
     ethr =  1.24E-10,  avg # of iterations =  1.0

     total cpu time spent up to now is      161.0 secs

     total energy              =    -190.21300996 Ry
     Harris-Foulkes estimate   =    -190.21300996 Ry
     estimated scf accuracy    <       0.00000001 Ry

     iteration #  6     ecut=    40.00 Ry     beta=0.70
     Davidson diagonalization with overlap
     ethr =  5.61E-11,  avg # of iterations =  1.0

     total cpu time spent up to now is      161.1 secs

     total energy              =    -190.21300996 Ry
     Harris-Foulkes estimate   =    -190.21300996 Ry
     estimated scf accuracy    <          4.3E-09 Ry

     iteration #  7     ecut=    40.00 Ry     beta=0.70
     Davidson diagonalization with overlap
     ethr =  2.40E-11,  avg # of iterations =  2.0

     total cpu time spent up to now is      161.4 secs

     End of self-consistent calculation

     Number of k-points >= 100: set verbosity='high' to print the bands.

     the Fermi energy is     1.7429 ev

!    total energy              =    -190.21300996 Ry
     Harris-Foulkes estimate   =    -190.21300996 Ry
     estimated scf accuracy    <          3.5E-10 Ry

     The total energy is the sum of the following terms:

     one-electron contribution =    -174.86314547 Ry
     hartree contribution      =      88.26851846 Ry
     xc contribution           =     -28.54560691 Ry
     ewald contribution        =     -75.07264849 Ry
     smearing contrib. (-TS)   =      -0.00012756 Ry

     convergence has been achieved in   7 iterations

     Forces acting on atoms (Ry/au):

     atom    1 type  1   force =     0.00000000    0.00000000    0.00000000
     atom    2 type  1   force =     0.00000000    0.00000000    0.00000000

     Total force =     0.000000     Total SCF correction =     0.000000


     entering subroutine stress ...

          total   stress  (Ry/bohr**3)                   (kbar)     P=   -0.08
  -0.00000069  -0.00000000   0.00000000         -0.10     -0.00      0.00
  -0.00000000  -0.00000069   0.00000000         -0.00     -0.10      0.00
  -0.00000000   0.00000000  -0.00000027         -0.00      0.00     -0.04


     number of scf cycles    =  20
     number of bfgs steps    =  19

     enthalpy old            =    -190.2139973279 Ry
     enthalpy new            =    -190.2139973520 Ry

     CASE: enthalpy_new < enthalpy_old


     WARNING: bfgs curvature condition failed, Theta= 0.690
     uphill step: resetting bfgs history

     new trust radius        =       0.0001947798 bohr
     new conv_thr            =       0.0000000010 Ry

     new unit-cell volume =    484.22222 a.u.^3 (    71.75433 Ang^3 )

CELL_PARAMETERS (alat=  6.99385000)
   1.000626744  -0.000000000  -0.000000000
  -0.500313372   0.866568180   0.000000000
   0.000000000   0.000000000   1.632378735

ATOMIC_POSITIONS (crystal)
Na       0.000000000   0.000000000  -0.000000000
Na       0.666666000   0.333333000   0.500000000



     Writing output data file na_hcp_-0.3$.save
     NEW-OLD atomic charge density approx. for the potential
     extrapolated charge   18.00201, renormalised to   18.00000

     total cpu time spent up to now is      164.7 secs

     per-process dynamical memory:    23.1 Mb

     Self-consistent Calculation

     iteration #  1     ecut=    40.00 Ry     beta=0.70
     Davidson diagonalization with overlap
     ethr =  1.00E-06,  avg # of iterations =  2.0

     Threshold (ethr) on eigenvalues was too large:
     Diagonalizing with lowered threshold

     Davidson diagonalization with overlap
     ethr =  4.27E-09,  avg # of iterations =  1.0

     total cpu time spent up to now is      165.1 secs

     total energy              =    -190.21300854 Ry
     Harris-Foulkes estimate   =    -190.19745934 Ry
     estimated scf accuracy    <       0.00000077 Ry

     iteration #  2     ecut=    40.00 Ry     beta=0.70
     Davidson diagonalization with overlap
     ethr =  4.28E-09,  avg # of iterations =  3.0

     total cpu time spent up to now is      165.4 secs

     total energy              =    -190.21300991 Ry
     Harris-Foulkes estimate   =    -190.21301046 Ry
     estimated scf accuracy    <       0.00000125 Ry

     iteration #  3     ecut=    40.00 Ry     beta=0.70
     Davidson diagonalization with overlap
     ethr =  4.28E-09,  avg # of iterations =  2.0

     total cpu time spent up to now is      165.6 secs

     total energy              =    -190.21300991 Ry
     Harris-Foulkes estimate   =    -190.21301000 Ry
     estimated scf accuracy    <       0.00000024 Ry

     iteration #  4     ecut=    40.00 Ry     beta=0.70
     Davidson diagonalization with overlap
     ethr =  1.31E-09,  avg # of iterations =  1.0

     total cpu time spent up to now is      165.8 secs

     total energy              =    -190.21300991 Ry
     Harris-Foulkes estimate   =    -190.21300992 Ry
     estimated scf accuracy    <       0.00000008 Ry

     iteration #  5     ecut=    40.00 Ry     beta=0.70
     Davidson diagonalization with overlap
     ethr =  4.43E-10,  avg # of iterations =  1.0

     total cpu time spent up to now is      166.0 secs

     total energy              =    -190.21300990 Ry
     Harris-Foulkes estimate   =    -190.21300991 Ry
     estimated scf accuracy    <       0.00000004 Ry

     iteration #  6     ecut=    40.00 Ry     beta=0.70
     Davidson diagonalization with overlap
     ethr =  2.20E-10,  avg # of iterations =  1.0

     total cpu time spent up to now is      166.3 secs

     total energy              =    -190.21300988 Ry
     Harris-Foulkes estimate   =    -190.21300990 Ry
     estimated scf accuracy    <       0.00000002 Ry

     iteration #  7     ecut=    40.00 Ry     beta=0.70
     Davidson diagonalization with overlap
     ethr =  1.04E-10,  avg # of iterations =  2.0

     total cpu time spent up to now is      166.5 secs

     End of self-consistent calculation

     Number of k-points >= 100: set verbosity='high' to print the bands.

     the Fermi energy is     1.7424 ev

!    total energy              =    -190.21300989 Ry
     Harris-Foulkes estimate   =    -190.21300989 Ry
     estimated scf accuracy    <          4.5E-10 Ry

     The total energy is the sum of the following terms:

     one-electron contribution =    -174.86779568 Ry
     hartree contribution      =      88.27029153 Ry
     xc contribution           =     -28.54552152 Ry
     ewald contribution        =     -75.06985666 Ry
     smearing contrib. (-TS)   =      -0.00012755 Ry

     convergence has been achieved in   7 iterations

     Forces acting on atoms (Ry/au):

     atom    1 type  1   force =    -0.00000000   -0.00000000    0.00000000
     atom    2 type  1   force =     0.00000000    0.00000000   -0.00000000

     Total force =     0.000000     Total SCF correction =     0.000000


     entering subroutine stress ...

          total   stress  (Ry/bohr**3)                   (kbar)     P=   -0.32
  -0.00000234  -0.00000000  -0.00000000         -0.34     -0.00     -0.00
  -0.00000000  -0.00000234   0.00000000         -0.00     -0.34      0.00
  -0.00000000   0.00000000  -0.00000192         -0.00      0.00     -0.28


     bfgs converged in  21 scf cycles and  20 bfgs steps
     (criteria: energy <  1.0E-04, force <  1.0E-03, cell <  5.0E-02)

     End of BFGS Geometry Optimization

     Final enthalpy =    -190.2139973920 Ry
Begin final coordinates
     new unit-cell volume =    484.22222 a.u.^3 (    71.75433 Ang^3 )

CELL_PARAMETERS (alat=  6.99385000)
   1.000626744  -0.000000000  -0.000000000
  -0.500313372   0.866568180   0.000000000
   0.000000000   0.000000000   1.632378735

ATOMIC_POSITIONS (crystal)
Na       0.000000000   0.000000000  -0.000000000
Na       0.666666000   0.333333000   0.500000000
End final coordinates



     A final scf calculation at the relaxed structure.
     The G-vectors are recalculated for the final unit cell
     Results may differ from those at the preceding step.
 
     Parallelization info
     --------------------
     sticks:   dense  smooth     PW     G-vecs:    dense   smooth      PW
     Min         133      68     20                 5837     2054     346
     Max         134      69     21                 5846     2072     351
     Sum        1069     547    163                46733    16515    2779
 


     bravais-lattice index     =            4
     lattice parameter (alat)  =       6.9939  a.u.
     unit-cell volume          =     484.2222 (a.u.)^3
     number of atoms/cell      =            2
     number of atomic types    =            1
     number of electrons       =        18.00
     number of Kohn-Sham states=           13
     kinetic-energy cutoff     =      40.0000  Ry
     charge density cutoff     =     320.0000  Ry
     convergence threshold     =      1.0E-09
     mixing beta               =       0.7000
     number of iterations used =            8  plain     mixing
     Exchange-correlation      = SLA  PW   PBE  PBE ( 1  4  3  4 0 0)

     celldm(1)=   6.993850  celldm(2)=   0.000000  celldm(3)=   1.630460
     celldm(4)=   0.000000  celldm(5)=   0.000000  celldm(6)=   0.000000

     crystal axes: (cart. coord. in units of alat)
               a(1) = (   1.000627  -0.000000  -0.000000 )  
               a(2) = (  -0.500313   0.866568   0.000000 )  
               a(3) = (   0.000000   0.000000   1.632379 )  

     reciprocal axes: (cart. coord. in units 2 pi/alat)
               b(1) = (  0.999374  0.576989 -0.000000 )  
               b(2) = (  0.000000  1.153977 -0.000000 )  
               b(3) = (  0.000000 -0.000000  0.612603 )  


     PseudoPot. # 1 for Na read from file:
     ./Na_pbe_v1.uspp.F.UPF
     MD5 check sum: 76a99c7e9422403d3e93cbc85ab7bccb
     Pseudo is Ultrasoft, Zval =  9.0
     Generated by new atomic code, or converted to UPF format
     Using radial grid of  819 points,  5 beta functions with: 
                l(1) =   0
                l(2) =   0
                l(3) =   1
                l(4) =   1
                l(5) =   2
     Q(r) pseudized with  8 coefficients,  rinner =    1.250   1.250   1.250
                                                       1.250   1.250

     atomic species   valence    mass     pseudopotential
        Na             9.00    22.99000     Na( 1.00)

     12 Sym. Ops. (no inversion) found
          (note: 12 additional sym.ops. were found but ignored
           their fractional translations are incommensurate with FFT grid)


   Cartesian axes

     site n.     atom                  positions (alat units)
         1           Na  tau(   1) = (   0.0000000   0.0000000   0.0000000  )
         2           Na  tau(   2) = (   0.5003129   0.2888558   0.8161894  )

     number of k points=   366  Marzari-Vanderbilt smearing, width (Ry)=  0.0200

     Number of k-points >= 100: set verbosity='high' to print them.

     Dense  grid:    46733 G-vectors     FFT dimensions: (  40,  40,  72)

     Smooth grid:    16515 G-vectors     FFT dimensions: (  30,  30,  45)

     Largest allocated arrays     est. size (Mb)     dimensions
        Kohn-Sham Wavefunctions         0.06 Mb     (     280,   13)
        NL pseudopotentials             0.11 Mb     (     280,   26)
        Each V/rho on FFT grid          0.22 Mb     (   14400)
        Each G-vector array             0.04 Mb     (    5844)
        G-vector shells                 0.01 Mb     (    1748)
     Largest temporary arrays     est. size (Mb)     dimensions
        Auxiliary wavefunctions         0.22 Mb     (     280,   52)
        Each subspace H/S matrix        0.01 Mb     (      26,   26)
        Each <psi_i|beta_j> matrix      0.01 Mb     (      26,   13)
        Arrays for rho mixing           1.76 Mb     (   14400,    8)

     Initial potential from superposition of free atoms

     starting charge   17.98742, renormalised to   18.00000
     Starting wfc are   10 randomized atomic wfcs +    3 random wfc

     Writing output data file na_hcp_-0.3$.save

     total cpu time spent up to now is      172.0 secs

     per-process dynamical memory:    21.7 Mb

     Self-consistent Calculation

     iteration #  1     ecut=    40.00 Ry     beta=0.70
     Davidson diagonalization with overlap
     c_bands:  1 eigenvalues not converged
     c_bands:  1 eigenvalues not converged
     c_bands:  1 eigenvalues not converged
     c_bands:  1 eigenvalues not converged
     c_bands:  1 eigenvalues not converged
     c_bands:  1 eigenvalues not converged
     c_bands:  1 eigenvalues not converged
     ethr =  1.00E-06,  avg # of iterations = 13.2

     total cpu time spent up to now is      172.9 secs

     total energy              =    -190.21280098 Ry
     Harris-Foulkes estimate   =    -190.21325718 Ry
     estimated scf accuracy    <       0.00177471 Ry

     iteration #  2     ecut=    40.00 Ry     beta=0.70
     Davidson diagonalization with overlap
     ethr =  9.86E-06,  avg # of iterations =  2.0

     total cpu time spent up to now is      173.1 secs

     total energy              =    -190.21301135 Ry
     Harris-Foulkes estimate   =    -190.21305764 Ry
     estimated scf accuracy    <       0.00019933 Ry

     iteration #  3     ecut=    40.00 Ry     beta=0.70
     Davidson diagonalization with overlap
     ethr =  1.11E-06,  avg # of iterations =  2.0

     total cpu time spent up to now is      173.4 secs

     total energy              =    -190.21303203 Ry
     Harris-Foulkes estimate   =    -190.21303474 Ry
     estimated scf accuracy    <       0.00001272 Ry

     iteration #  4     ecut=    40.00 Ry     beta=0.70
     Davidson diagonalization with overlap
     ethr =  7.07E-08,  avg # of iterations =  1.7

     total cpu time spent up to now is      173.6 secs

     total energy              =    -190.21303325 Ry
     Harris-Foulkes estimate   =    -190.21303315 Ry
     estimated scf accuracy    <       0.00000002 Ry

     iteration #  5     ecut=    40.00 Ry     beta=0.70
     Davidson diagonalization with overlap
     ethr =  1.17E-10,  avg # of iterations =  3.1

     total cpu time spent up to now is      173.9 secs

     total energy              =    -190.21303333 Ry
     Harris-Foulkes estimate   =    -190.21303332 Ry
     estimated scf accuracy    <          4.5E-09 Ry

     iteration #  6     ecut=    40.00 Ry     beta=0.70
     Davidson diagonalization with overlap
     ethr =  2.49E-11,  avg # of iterations =  1.8

     total cpu time spent up to now is      174.1 secs

     End of self-consistent calculation

     Number of k-points >= 100: set verbosity='high' to print the bands.

     the Fermi energy is     1.7424 ev

!    total energy              =    -190.21303333 Ry
     Harris-Foulkes estimate   =    -190.21303333 Ry
     estimated scf accuracy    <          2.6E-11 Ry

     The total energy is the sum of the following terms:

     one-electron contribution =    -174.86797290 Ry
     hartree contribution      =      88.27048653 Ry
     xc contribution           =     -28.54556275 Ry
     ewald contribution        =     -75.06985666 Ry
     smearing contrib. (-TS)   =      -0.00012755 Ry

     convergence has been achieved in   6 iterations

     Forces acting on atoms (Ry/au):

     atom    1 type  1   force =    -0.00000000   -0.00000000    0.00000000
     atom    2 type  1   force =     0.00000000    0.00000000    0.00000000

     Total force =     0.000000     Total SCF correction =     0.000000


     entering subroutine stress ...

          total   stress  (Ry/bohr**3)                   (kbar)     P=   -0.15
  -0.00000116  -0.00000000  -0.00000000         -0.17     -0.00     -0.00
  -0.00000000  -0.00000116  -0.00000000         -0.00     -0.17     -0.00
  -0.00000000   0.00000000  -0.00000065         -0.00      0.00     -0.10


     Writing output data file na_hcp_-0.3$.save
 
     init_run     :      0.42s CPU      0.44s WALL (       2 calls)
     electrons    :     36.73s CPU     38.88s WALL (      22 calls)
     update_pot   :      2.63s CPU      3.10s WALL (      20 calls)
     forces       :      1.38s CPU      1.39s WALL (      22 calls)
     stress       :      3.72s CPU      3.73s WALL (      22 calls)

     Called by init_run:
     wfcinit      :      0.10s CPU      0.11s WALL (       2 calls)
     potinit      :      0.07s CPU      0.08s WALL (       2 calls)

     Called by electrons:
     c_bands      :     26.17s CPU     27.51s WALL (     171 calls)
     sum_band     :      7.30s CPU      7.43s WALL (     171 calls)
     v_of_rho     :      1.24s CPU      1.25s WALL (     172 calls)
     newd         :      1.73s CPU      1.78s WALL (     172 calls)
     mix_rho      :      0.10s CPU      0.11s WALL (     171 calls)

     Called by c_bands:
     init_us_2    :      0.36s CPU      0.41s WALL (    6208 calls)
     cegterg      :     23.84s CPU     24.29s WALL (    2736 calls)

     Called by sum_band:
     sum_band:bec :      0.04s CPU      0.03s WALL (    2736 calls)
     addusdens    :      3.06s CPU      3.03s WALL (     171 calls)

     Called by *egterg:
     h_psi        :     13.73s CPU     14.03s WALL (    7782 calls)
     s_psi        :      0.43s CPU      0.45s WALL (    7782 calls)
     g_psi        :      0.06s CPU      0.09s WALL (    5014 calls)
     cdiaghg      :      6.88s CPU      6.95s WALL (    7094 calls)

     Called by h_psi:
     add_vuspsi   :      0.40s CPU      0.47s WALL (    7782 calls)

     General routines
     calbec       :      0.90s CPU      0.96s WALL (   12278 calls)
     fft          :      0.76s CPU      0.74s WALL (    2944 calls)
     ffts         :      0.04s CPU      0.03s WALL (     343 calls)
     fftw         :     13.30s CPU     13.54s WALL (  205976 calls)
     interpolate  :      0.16s CPU      0.13s WALL (     343 calls)
 
     Parallel routines
     fft_scatter  :      5.05s CPU      5.26s WALL (  209263 calls)
 
     PWSCF        :  0m52.88s CPU     3m 4.69s WALL

 
   This run was terminated on:  16:48:54  26Mar2018            

=------------------------------------------------------------------------------=
   JOB DONE.
=------------------------------------------------------------------------------=
Application 30366671 resources: utime ~35196s, stime ~140s, Rss ~42628, inblocks ~1460396, outblocks ~1886109
