
     Program Q2R v.6.1 (svn rev. 13369) starts on  8Mar2018 at 11:45:24 

     This program is part of the open-source Quantum ESPRESSO suite
     for quantum simulation of materials; please cite
         "P. Giannozzi et al., J. Phys.:Condens. Matter 21 395502 (2009);
          URL http://www.quantum-espresso.org", 
     in publications or presentations arising from this work. More details at
     http://www.quantum-espresso.org/quote

     Parallel version (MPI), running on     1 processors

     reading grid info from file na.9r.dyn0    
  reading force constants from file na.9r.dyn1
  Dielectric Tensor not found
  nqs=            1
 q=   0.00000000  0.00000000  0.00000000
  reading force constants from file na.9r.dyn2
  nqs=            6
 q=   0.33444876  0.33444876 -0.52561334
 q=   0.33444876 -0.52561334  0.33444876
 q=  -0.52561334  0.33444876  0.33444876
 q=   0.52561334 -0.33444876 -0.33444876
 q=  -0.33444876 -0.33444876  0.52561334
 q=  -0.33444876  0.52561334 -0.33444876
  reading force constants from file na.9r.dyn3
  nqs=            3
 q=  -0.66889752 -0.66889752  1.05122668
 q=   1.05122668 -0.66889752 -0.66889752
 q=  -0.66889752  1.05122668 -0.66889752
  reading force constants from file na.9r.dyn4
  nqs=            6
 q=   0.66889752 -0.19116458 -0.19116458
 q=  -0.19116458 -0.19116458  0.66889752
 q=  -0.19116458  0.66889752 -0.19116458
 q=   0.19116458  0.19116458 -0.66889752
 q=   0.19116458 -0.66889752  0.19116458
 q=  -0.66889752  0.19116458  0.19116458
  reading force constants from file na.9r.dyn5
  nqs=           12
 q=  -0.33444876 -1.19451086  1.38567544
 q=   1.19451086  0.33444876 -1.38567544
 q=  -1.38567544  1.19451086  0.33444876
 q=   0.33444876 -1.38567544  1.19451086
 q=  -1.19451086  1.38567544 -0.33444876
 q=   1.38567544 -0.33444876 -1.19451086
 q=   0.33444876  1.19451086 -1.38567544
 q=  -1.19451086 -0.33444876  1.38567544
 q=   1.38567544 -1.19451086 -0.33444876
 q=  -0.33444876  1.38567544 -1.19451086
 q=   1.19451086 -1.38567544  0.33444876
 q=  -1.38567544  0.33444876  1.19451086
  reading force constants from file na.9r.dyn6
  nqs=            6
 q=   0.00000000 -0.86006210  0.86006210
 q=  -0.86006210  0.86006210  0.00000000
 q=   0.86006210  0.00000000 -0.86006210
 q=   0.86006210 -0.86006210  0.00000000
 q=  -0.86006210  0.00000000  0.86006210
 q=   0.00000000  0.86006210 -0.86006210
  reading force constants from file na.9r.dyn7
  nqs=            3
 q=  -1.33779505  0.38232915  0.38232915
 q=   0.38232915  0.38232915 -1.33779505
 q=   0.38232915 -1.33779505  0.38232915
  reading force constants from file na.9r.dyn8
  nqs=            2
 q=   0.14328419  0.14328419  0.14328419
 q=  -0.14328419 -0.14328419 -0.14328419
  reading force constants from file na.9r.dyn9
  nqs=            6
 q=  -0.86006210 -0.86006210  1.72012420
 q=  -0.86006210  1.72012420 -0.86006210
 q=   1.72012420 -0.86006210 -0.86006210
 q=  -1.72012420  0.86006210  0.86006210
 q=   0.86006210  0.86006210 -1.72012420
 q=   0.86006210 -1.72012420  0.86006210
  reading force constants from file na.9r.dyn10
  nqs=            6
 q=  -0.52561334 -0.52561334  1.19451086
 q=  -0.52561334  1.19451086 -0.52561334
 q=   1.19451086 -0.52561334 -0.52561334
 q=  -1.19451086  0.52561334  0.52561334
 q=   0.52561334  0.52561334 -1.19451086
 q=   0.52561334 -1.19451086  0.52561334
  reading force constants from file na.9r.dyn11
  nqs=            6
 q=  -1.86340839  0.71677791  0.71677791
 q=   0.71677791  0.71677791 -1.86340839
 q=   0.71677791 -1.86340839  0.71677791
 q=  -0.71677791 -0.71677791  1.86340839
 q=  -0.71677791  1.86340839 -0.71677791
 q=   1.86340839 -0.71677791 -0.71677791
  reading force constants from file na.9r.dyn12
  nqs=            6
 q=  -1.52895962  1.05122668  0.19116458
 q=   1.05122668  0.19116458 -1.52895962
 q=   0.19116458 -1.52895962  1.05122668
 q=   0.19116458  1.05122668 -1.52895962
 q=   1.05122668 -1.52895962  0.19116458
 q=  -1.52895962  0.19116458  1.05122668
  reading force constants from file na.9r.dyn13
  nqs=            1
 q=  -0.28656837 -0.28656837 -0.28656837

      q-space grid ok, #points =   64

      fft-check success (sum of imaginary terms < 10^-12)

     Q2R          :     0.04s CPU         0.09s WALL


   This run was terminated on:  11:45:24   8Mar2018            

=------------------------------------------------------------------------------=
   JOB DONE.
=------------------------------------------------------------------------------=
