
     Program PWSCF v.6.1 (svn rev. 13369) starts on 14Feb2018 at 12:32:35 

     This program is part of the open-source Quantum ESPRESSO suite
     for quantum simulation of materials; please cite
         "P. Giannozzi et al., J. Phys.:Condens. Matter 21 395502 (2009);
          URL http://www.quantum-espresso.org", 
     in publications or presentations arising from this work. More details at
     http://www.quantum-espresso.org/quote

     Parallel version (MPI), running on    48 processors
     R & G space division:  proc/nbgrp/npool/nimage =      48
     Waiting for input...
     Reading input from standard input

     Current dimensions of program PWSCF are:
     Max number of different atomic species (ntypx) = 10
     Max number of k-points (npk) =  80000
     Max angular momentum in pseudopotentials (lmaxx) =  3

     Subspace diagonalization in iterative solution of the eigenvalue problem:
     a serial algorithm will be used


     Parallelization info
     --------------------
     sticks:   dense  smooth     PW     G-vecs:    dense   smooth      PW
     Min          63      32     10                 1453      515      98
     Max          64      33     11                 1456      516     101
     Sum        3057    1539    517                69817    24741    4773



     bravais-lattice index     =            0
     lattice parameter (alat)  =      17.0000  a.u.
     unit-cell volume          =     724.2840 (a.u.)^3
     number of atoms/cell      =            3
     number of atomic types    =            1
     number of electrons       =        27.00
     number of Kohn-Sham states=           18
     kinetic-energy cutoff     =      40.0000  Ry
     charge density cutoff     =     320.0000  Ry
     convergence threshold     =      1.0E-10
     mixing beta               =       0.7000
     number of iterations used =            8  plain     mixing
     Exchange-correlation      = SLA  PW   PBE  PBE ( 1  4  3  4 0 0)

     celldm(1)=  17.000000  celldm(2)=   0.000000  celldm(3)=   0.000000
     celldm(4)=   0.000000  celldm(5)=   0.000000  celldm(6)=   0.000000

     crystal axes: (cart. coord. in units of alat)
               a(1) = (   0.387810   0.678487   0.678487 )  
               a(2) = (   0.678487   0.387810   0.678487 )  
               a(3) = (   0.678487   0.678487   0.387810 )  

     reciprocal axes: (cart. coord. in units 2 pi/alat)
               b(1) = ( -2.102453  1.337795  1.337795 )  
               b(2) = (  1.337795 -2.102453  1.337795 )  
               b(3) = (  1.337795  1.337795 -2.102453 )  


     PseudoPot. # 1 for Na read from file:
     /home/s1333534/quantum_espresso/qe-6.1/pseudo/Na_pbe_v1.uspp.F.UPF
     MD5 check sum: 76a99c7e9422403d3e93cbc85ab7bccb
     Pseudo is Ultrasoft, Zval =  9.0
     Generated by new atomic code, or converted to UPF format
     Using radial grid of  819 points,  5 beta functions with: 
                l(1) =   0
                l(2) =   0
                l(3) =   1
                l(4) =   1
                l(5) =   2
     Q(r) pseudized with  8 coefficients,  rinner =    1.250   1.250   1.250
                                                       1.250   1.250

     atomic species   valence    mass     pseudopotential
        Na             9.00    22.99000     Na( 1.00)

     12 Sym. Ops., with inversion, found



   Cartesian axes

     site n.     atom                  positions (alat units)
         1           Na  tau(   1) = (   1.2601225   1.2601225   1.2601225  )
         2           Na  tau(   2) = (   0.4846618   0.4846618   0.4846618  )
         3           Na  tau(   3) = (   0.8723922   0.8723922   0.8723922  )

     number of k points=   770  Marzari-Vanderbilt smearing, width (Ry)=  0.0200

     Number of k-points >= 100: set verbosity='high' to print them.

     Dense  grid:    69817 G-vectors     FFT dimensions: ( 108, 108, 108)

     Smooth grid:    24741 G-vectors     FFT dimensions: (  72,  72,  72)

     Estimated max dynamical RAM per process >      16.88MB

     Estimated total allocated dynamical RAM >     810.16MB

     Initial potential from superposition of free atoms

     starting charge   26.98113, renormalised to   27.00000
     Starting wfc are   15 randomized atomic wfcs +    3 random wfc

     total cpu time spent up to now is       25.7 secs

     per-process dynamical memory:    26.4 Mb

     Self-consistent Calculation

     iteration #  1     ecut=    40.00 Ry     beta=0.70
     Davidson diagonalization with overlap
     ethr =  1.00E-02,  avg # of iterations =  5.7

     Threshold (ethr) on eigenvalues was too large:
     Diagonalizing with lowered threshold

     Davidson diagonalization with overlap
     c_bands:  1 eigenvalues not converged
     c_bands:  1 eigenvalues not converged
     ethr =  9.27E-06,  avg # of iterations =  7.6

     total cpu time spent up to now is      231.6 secs

     total energy              =    -285.31921207 Ry
     Harris-Foulkes estimate   =    -285.31986094 Ry
     estimated scf accuracy    <       0.00262652 Ry

     iteration #  2     ecut=    40.00 Ry     beta=0.70
     Davidson diagonalization with overlap
     ethr =  9.73E-06,  avg # of iterations =  2.0

     total cpu time spent up to now is      311.2 secs

     total energy              =    -285.31948998 Ry
     Harris-Foulkes estimate   =    -285.31954583 Ry
     estimated scf accuracy    <       0.00027576 Ry

     iteration #  3     ecut=    40.00 Ry     beta=0.70
     Davidson diagonalization with overlap
     ethr =  1.02E-06,  avg # of iterations =  2.0

     total cpu time spent up to now is      393.0 secs

     total energy              =    -285.31951686 Ry
     Harris-Foulkes estimate   =    -285.31952064 Ry
     estimated scf accuracy    <       0.00001718 Ry

     iteration #  4     ecut=    40.00 Ry     beta=0.70
     Davidson diagonalization with overlap
     ethr =  6.36E-08,  avg # of iterations =  2.0

     total cpu time spent up to now is      465.3 secs

     total energy              =    -285.31951855 Ry
     Harris-Foulkes estimate   =    -285.31951885 Ry
     estimated scf accuracy    <       0.00000111 Ry

     iteration #  5     ecut=    40.00 Ry     beta=0.70
     Davidson diagonalization with overlap
     ethr =  4.11E-09,  avg # of iterations =  2.1

     total cpu time spent up to now is      539.4 secs

     total energy              =    -285.31951887 Ry
     Harris-Foulkes estimate   =    -285.31951890 Ry
     estimated scf accuracy    <       0.00000019 Ry

     iteration #  6     ecut=    40.00 Ry     beta=0.70
     Davidson diagonalization with overlap
     ethr =  7.18E-10,  avg # of iterations =  1.5

     total cpu time spent up to now is      604.4 secs

     total energy              =    -285.31951889 Ry
     Harris-Foulkes estimate   =    -285.31951889 Ry
     estimated scf accuracy    <          4.0E-10 Ry

     iteration #  7     ecut=    40.00 Ry     beta=0.70
     Davidson diagonalization with overlap
     ethr =  1.50E-12,  avg # of iterations =  3.3

     total cpu time spent up to now is      692.6 secs

     End of self-consistent calculation

     Number of k-points >= 100: set verbosity='high' to print the bands.

     the Fermi energy is     1.7558 ev

!    total energy              =    -285.31951889 Ry
     Harris-Foulkes estimate   =    -285.31951889 Ry
     estimated scf accuracy    <          2.9E-11 Ry

     The total energy is the sum of the following terms:

     one-electron contribution =    -262.11221474 Ry
     hartree contribution      =     132.32471170 Ry
     xc contribution           =     -42.81942696 Ry
     ewald contribution        =    -112.71245820 Ry
     smearing contrib. (-TS)   =      -0.00013069 Ry

     convergence has been achieved in   7 iterations


     Computing stress (Cartesian axis) and pressure

          total   stress  (Ry/bohr**3)                   (kbar)     P=    0.06
   0.00000040   0.00000007   0.00000007          0.06      0.01      0.01
   0.00000007   0.00000040   0.00000007          0.01      0.06      0.01
   0.00000007   0.00000007   0.00000040          0.01      0.01      0.06


     Writing output data file na.9r.save

     init_run     :     24.90s CPU     25.41s WALL (       1 calls)
     electrons    :    656.30s CPU    667.03s WALL (       1 calls)
     stress       :      2.90s CPU      2.94s WALL (       1 calls)

     Called by init_run:
     wfcinit      :     24.47s CPU     24.91s WALL (       1 calls)
     potinit      :      0.16s CPU      0.17s WALL (       1 calls)

     Called by electrons:
     c_bands      :    559.14s CPU    568.22s WALL (       8 calls)
     sum_band     :     96.38s CPU     97.98s WALL (       8 calls)
     v_of_rho     :      0.56s CPU      0.57s WALL (       8 calls)
     newd         :      0.13s CPU      0.13s WALL (       8 calls)
     mix_rho      :      0.04s CPU      0.04s WALL (       8 calls)

     Called by c_bands:
     init_us_2    :      1.83s CPU      1.91s WALL (   13860 calls)
     cegterg      :    554.87s CPU    563.74s WALL (    6160 calls)

     Called by sum_band:
     sum_band:bec :      0.29s CPU      0.29s WALL (    6160 calls)
     addusdens    :      0.13s CPU      0.14s WALL (       8 calls)

     Called by *egterg:
     h_psi        :    492.60s CPU    500.59s WALL (   27216 calls)
     s_psi        :      1.87s CPU      1.93s WALL (   27216 calls)
     g_psi        :      0.26s CPU      0.27s WALL (   20286 calls)
     cdiaghg      :     52.81s CPU     53.28s WALL (   25676 calls)

     Called by h_psi:
     h_psi:pot    :    492.19s CPU    500.16s WALL (   27216 calls)
     h_psi:calbec :     11.68s CPU     11.96s WALL (   27216 calls)
     vloc_psi     :    478.04s CPU    485.68s WALL (   27216 calls)
     add_vuspsi   :      2.18s CPU      2.23s WALL (   27216 calls)

     General routines
     calbec       :     16.04s CPU     16.40s WALL (   34146 calls)
     fft          :      0.46s CPU      0.47s WALL (     133 calls)
     ffts         :      0.02s CPU      0.03s WALL (      16 calls)
     fftw         :    501.97s CPU    510.04s WALL (  700656 calls)
     interpolate  :      0.08s CPU      0.09s WALL (      16 calls)
     davcio       :      0.01s CPU      0.69s WALL (     770 calls)

     Parallel routines
     fft_scatter  :    213.32s CPU    217.15s WALL (  700805 calls)

     PWSCF        : 11m27.84s CPU    11m40.07s WALL


   This run was terminated on:  12:44:15  14Feb2018            

=------------------------------------------------------------------------------=
   JOB DONE.
=------------------------------------------------------------------------------=
