
     Program PHONON v.6.1 (svn rev. 13369) starts on 24Feb2018 at 22: 7:31 

     This program is part of the open-source Quantum ESPRESSO suite
     for quantum simulation of materials; please cite
         "P. Giannozzi et al., J. Phys.:Condens. Matter 21 395502 (2009);
          URL http://www.quantum-espresso.org", 
     in publications or presentations arising from this work. More details at
     http://www.quantum-espresso.org/quote

     Parallel version (MPI), running on    64 processors
     K-points division:     npool     =       4
     R & G space division:  proc/nbgrp/npool/nimage =      16

     Reading data from directory:
     ./na.9r.save

   Info: using nr1, nr2, nr3 values from input

   Info: using nr1, nr2, nr3 values from input

     IMPORTANT: XC functional enforced from input :
     Exchange-correlation      = SLA  PW   PBE  PBE ( 1  4  3  4 0 0)
     Any further DFT definition will be discarded
     Please, verify this is what you really want


     Parallelization info
     --------------------
     sticks:   dense  smooth     PW     G-vecs:    dense   smooth      PW
     Min         191      96     32                 4363     1546     298
     Max         192      97     33                 4364     1547     299
     Sum        3057    1539    517                69817    24741    4773



     Dynamical matrices for ( 4, 4, 4)  uniform grid of q-points
     (  13q-points):
       N         xq(1)         xq(2)         xq(3) 
       1   0.000000000   0.000000000   0.000000000
       2   0.334448762   0.334448762  -0.525613338
       3  -0.668897523  -0.668897523   1.051226676
       4   0.668897523  -0.191164576  -0.191164576
       5  -0.334448762  -1.194510861   1.385675437
       6   0.000000000  -0.860062100   0.860062100
       7  -1.337795047   0.382329152   0.382329152
       8   0.143284186   0.143284186   0.143284186
       9  -0.860062100  -0.860062100   1.720124199
      10  -0.525613338  -0.525613338   1.194510861
      11  -1.863408385   0.716777914   0.716777914
      12  -1.528959623   1.051226676   0.191164576
      13  -0.286568371  -0.286568371  -0.286568371

     Calculation of q =   -0.2865684  -0.2865684  -0.2865684

   Info: using nr1, nr2, nr3 values from input

   Info: using nr1, nr2, nr3 values from input

     Parallelization info
     --------------------
     sticks:   dense  smooth     PW     G-vecs:    dense   smooth      PW
     Min         191      96     32                 4363     1546     300
     Max         192      97     33                 4364     1547     301
     Sum        3057    1539    517                69817    24741    4803



     bravais-lattice index     =            0
     lattice parameter (alat)  =      17.0000  a.u.
     unit-cell volume          =     724.2840 (a.u.)^3
     number of atoms/cell      =            3
     number of atomic types    =            1
     number of electrons       =        27.00
     number of Kohn-Sham states=           18
     kinetic-energy cutoff     =      40.0000  Ry
     charge density cutoff     =     320.0000  Ry
     Exchange-correlation      = SLA  PW   PBE  PBE ( 1  4  3  4 0 0)

     celldm(1)=  17.000000  celldm(2)=   0.000000  celldm(3)=   0.000000
     celldm(4)=   0.000000  celldm(5)=   0.000000  celldm(6)=   0.000000

     crystal axes: (cart. coord. in units of alat)
               a(1) = (   0.387810   0.678487   0.678487 )  
               a(2) = (   0.678487   0.387810   0.678487 )  
               a(3) = (   0.678487   0.678487   0.387810 )  

     reciprocal axes: (cart. coord. in units 2 pi/alat)
               b(1) = ( -2.102453  1.337795  1.337795 )  
               b(2) = (  1.337795 -2.102453  1.337795 )  
               b(3) = (  1.337795  1.337795 -2.102453 )  


     PseudoPot. # 1 for Na read from file:
     /home/s1333534/quantum_espresso/qe-6.1/pseudo/Na_pbe_v1.uspp.F.UPF
     MD5 check sum: 76a99c7e9422403d3e93cbc85ab7bccb
     Pseudo is Ultrasoft, Zval =  9.0
     Generated by new atomic code, or converted to UPF format
     Using radial grid of  819 points,  5 beta functions with: 
                l(1) =   0
                l(2) =   0
                l(3) =   1
                l(4) =   1
                l(5) =   2
     Q(r) pseudized with  8 coefficients,  rinner =    1.250   1.250   1.250
                                                       1.250   1.250

     atomic species   valence    mass     pseudopotential
        Na             9.00    22.99000     Na( 1.00)

     12 Sym. Ops., with inversion, found



   Cartesian axes

     site n.     atom                  positions (alat units)
         1           Na  tau(   1) = (   1.2601225   1.2601225   1.2601225  )
         2           Na  tau(   2) = (   0.4846618   0.4846618   0.4846618  )
         3           Na  tau(   3) = (   0.8723922   0.8723922   0.8723922  )

     number of k points=  1540  Marzari-Vanderbilt smearing, width (Ry)=  0.0200

     Number of k-points >= 100: set verbosity='high' to print them.

     Dense  grid:    69817 G-vectors     FFT dimensions: ( 108, 108, 108)

     Smooth grid:    24741 G-vectors     FFT dimensions: (  72,  72,  72)

     Estimated max dynamical RAM per process >       6.34MB

     Estimated total allocated dynamical RAM >     405.68MB

     The potential is recalculated from file :
     ./_ph0/na.9r.save/charge-density.dat

     Starting wfc are   15 atomic +    3 random wfc

     Band Structure Calculation
     Davidson diagonalization with overlap

     ethr =  3.70E-11,  avg # of iterations = 25.4

     total cpu time spent up to now is      341.3 secs

     End of band structure calculation

     Number of k-points >= 100: set verbosity='high' to print the bands.

     the Fermi energy is     1.7558 ev

     Writing output data file na.9r.save

                                                                                

     bravais-lattice index     =            0
     lattice parameter (alat)  =      17.0000  a.u.
     unit-cell volume          =     724.2840 (a.u.)^3
     number of atoms/cell      =            3
     number of atomic types    =            1
     kinetic-energy cut-off    =      40.0000  Ry
     charge density cut-off    =     320.0000  Ry
     convergence threshold     =      1.0E-16
     beta                      =       0.7000
     number of iterations used =            4
     Exchange-correlation      = SLA  PW   PBE  PBE ( 1  4  3  4 0 0)


     celldm(1)=   17.00000  celldm(2)=    0.00000  celldm(3)=    0.00000
     celldm(4)=    0.00000  celldm(5)=    0.00000  celldm(6)=    0.00000

     crystal axes: (cart. coord. in units of alat)
               a(1) = (  0.3878  0.6785  0.6785 )  
               a(2) = (  0.6785  0.3878  0.6785 )  
               a(3) = (  0.6785  0.6785  0.3878 )  

     reciprocal axes: (cart. coord. in units 2 pi/alat)
               b(1) = ( -2.1025  1.3378  1.3378 )  
               b(2) = (  1.3378 -2.1025  1.3378 )  
               b(3) = (  1.3378  1.3378 -2.1025 )  


     Atoms inside the unit cell: 

     Cartesian axes

     site n.  atom      mass           positions (alat units)
        1     Na  22.9900   tau(    1) = (    1.26012    1.26012    1.26012  )
        2     Na  22.9900   tau(    2) = (    0.48466    0.48466    0.48466  )
        3     Na  22.9900   tau(    3) = (    0.87239    0.87239    0.87239  )

     Computing dynamical matrix for 
                    q = (  -0.2865684  -0.2865684  -0.2865684 )

     13 Sym.Ops. (with q -> -q+G )


     G cutoff = 2342.5458  (   4364 G-vectors)     FFT grid: (108,108,108)
     G cutoff = 1171.2729  (   1547 G-vectors)  smooth grid: ( 72, 72, 72)

     number of k points=  1540  Marzari-Vanderbilt smearing, width (Ry)=  0.0200

     PseudoPot. # 1 for Na read from file:
     /home/s1333534/quantum_espresso/qe-6.1/pseudo/Na_pbe_v1.uspp.F.UPF
     MD5 check sum: 76a99c7e9422403d3e93cbc85ab7bccb
     Pseudo is Ultrasoft, Zval =  9.0
     Generated by new atomic code, or converted to UPF format
     Using radial grid of  819 points,  5 beta functions with: 
                l(1) =   0
                l(2) =   0
                l(3) =   1
                l(4) =   1
                l(5) =   2
     Q(r) pseudized with  8 coefficients,  rinner =    1.250   1.250   1.250
                                                       1.250   1.250

     Mode symmetry, D_3d (-3m)  point group:


     Atomic displacements:
     There are   6 irreducible representations

     Representation     1      1 modes -A_1g L_1  To be done

     Representation     2      1 modes -A_1g L_1  To be done

     Representation     3      2 modes -E_g  L_3  To be done

     Representation     4      2 modes -E_g  L_3  To be done

     Representation     5      1 modes -A_2u L_2'  To be done

     Representation     6      2 modes -E_u  L_3'  To be done



     Alpha used in Ewald sum =   2.8000
     PHONON       :  6m44.70s CPU     6m49.46s WALL



     Representation #  1 mode #   1

     Self-consistent Calculation

      iter #   1 total cpu time :   491.4 secs   av.it.:   5.8
      thresh= 1.000E-02 alpha_mix =  0.700 |ddv_scf|^2 =  2.026E-04

      iter #   2 total cpu time :   591.3 secs   av.it.:   8.2
      thresh= 1.423E-03 alpha_mix =  0.700 |ddv_scf|^2 =  3.180E-02

      iter #   3 total cpu time :   673.8 secs   av.it.:   6.1
      thresh= 1.000E-02 alpha_mix =  0.700 |ddv_scf|^2 =  6.809E-07

      iter #   4 total cpu time :   781.9 secs   av.it.:   9.0
      thresh= 8.252E-05 alpha_mix =  0.700 |ddv_scf|^2 =  1.637E-07

      iter #   5 total cpu time :   886.1 secs   av.it.:   8.6
      thresh= 4.047E-05 alpha_mix =  0.700 |ddv_scf|^2 =  1.066E-10

      iter #   6 total cpu time :  1000.4 secs   av.it.:   9.8
      thresh= 1.033E-06 alpha_mix =  0.700 |ddv_scf|^2 =  7.059E-12

      iter #   7 total cpu time :  1105.4 secs   av.it.:   8.8
      thresh= 2.657E-07 alpha_mix =  0.700 |ddv_scf|^2 =  6.110E-14

      iter #   8 total cpu time :  1222.0 secs   av.it.:  10.0
      thresh= 2.472E-08 alpha_mix =  0.700 |ddv_scf|^2 =  1.662E-15

      iter #   9 total cpu time :  1344.6 secs   av.it.:  10.5
      thresh= 4.077E-09 alpha_mix =  0.700 |ddv_scf|^2 =  1.131E-15

      iter #  10 total cpu time :  1453.9 secs   av.it.:   9.2
      thresh= 3.363E-09 alpha_mix =  0.700 |ddv_scf|^2 =  5.810E-16

      iter #  11 total cpu time :  1551.9 secs   av.it.:   7.9
      thresh= 2.410E-09 alpha_mix =  0.700 |ddv_scf|^2 =  7.936E-19

     End of self-consistent calculation

     Convergence has been achieved 


     Representation #  2 mode #   2

     Self-consistent Calculation

      iter #   1 total cpu time :  1634.5 secs   av.it.:   5.8
      thresh= 1.000E-02 alpha_mix =  0.700 |ddv_scf|^2 =  4.032E-04

      iter #   2 total cpu time :  1735.2 secs   av.it.:   8.1
      thresh= 2.008E-03 alpha_mix =  0.700 |ddv_scf|^2 =  6.361E-02

      iter #   3 total cpu time :  1820.5 secs   av.it.:   6.5
      thresh= 1.000E-02 alpha_mix =  0.700 |ddv_scf|^2 =  3.349E-07

      iter #   4 total cpu time :  1929.7 secs   av.it.:   9.1
      thresh= 5.787E-05 alpha_mix =  0.700 |ddv_scf|^2 =  1.471E-07

      iter #   5 total cpu time :  2032.8 secs   av.it.:   8.6
      thresh= 3.836E-05 alpha_mix =  0.700 |ddv_scf|^2 =  1.412E-10

      iter #   6 total cpu time :  2146.7 secs   av.it.:   9.7
      thresh= 1.188E-06 alpha_mix =  0.700 |ddv_scf|^2 =  1.535E-11

      iter #   7 total cpu time :  2254.1 secs   av.it.:   8.8
      thresh= 3.918E-07 alpha_mix =  0.700 |ddv_scf|^2 =  1.498E-13

      iter #   8 total cpu time :  2370.7 secs   av.it.:  10.0
      thresh= 3.870E-08 alpha_mix =  0.700 |ddv_scf|^2 =  1.955E-14

      iter #   9 total cpu time :  2482.9 secs   av.it.:   9.5
      thresh= 1.398E-08 alpha_mix =  0.700 |ddv_scf|^2 =  6.208E-15

      iter #  10 total cpu time :  2590.0 secs   av.it.:   8.9
      thresh= 7.879E-09 alpha_mix =  0.700 |ddv_scf|^2 =  6.252E-16

      iter #  11 total cpu time :  2693.6 secs   av.it.:   8.4
      thresh= 2.500E-09 alpha_mix =  0.700 |ddv_scf|^2 =  3.337E-18

     End of self-consistent calculation

     Convergence has been achieved 


     Representation #  3 modes #   3  4

     Self-consistent Calculation

      iter #   1 total cpu time :  2841.5 secs   av.it.:   5.2
      thresh= 1.000E-02 alpha_mix =  0.700 |ddv_scf|^2 =  5.405E-08

      iter #   2 total cpu time :  3071.6 secs   av.it.:  10.0
      thresh= 2.325E-05 alpha_mix =  0.700 |ddv_scf|^2 =  9.521E-10

      iter #   3 total cpu time :  3312.7 secs   av.it.:  10.5
      thresh= 3.086E-06 alpha_mix =  0.700 |ddv_scf|^2 =  2.698E-11

      iter #   4 total cpu time :  3539.7 secs   av.it.:   9.8
      thresh= 5.194E-07 alpha_mix =  0.700 |ddv_scf|^2 =  9.165E-14

      iter #   5 total cpu time :  3776.0 secs   av.it.:  10.3
      thresh= 3.027E-08 alpha_mix =  0.700 |ddv_scf|^2 =  2.654E-16

      iter #   6 total cpu time :  4006.4 secs   av.it.:  10.0
      thresh= 1.629E-09 alpha_mix =  0.700 |ddv_scf|^2 =  6.299E-18

     End of self-consistent calculation

     Convergence has been achieved 


     Representation #  4 modes #   5  6

     Self-consistent Calculation

      iter #   1 total cpu time :  4160.0 secs   av.it.:   5.1
      thresh= 1.000E-02 alpha_mix =  0.700 |ddv_scf|^2 =  5.325E-08

      iter #   2 total cpu time :  4406.9 secs   av.it.:  10.2
      thresh= 2.308E-05 alpha_mix =  0.700 |ddv_scf|^2 =  9.557E-10

      iter #   3 total cpu time :  4660.1 secs   av.it.:  10.7
      thresh= 3.091E-06 alpha_mix =  0.700 |ddv_scf|^2 =  2.457E-11

      iter #   4 total cpu time :  4896.7 secs   av.it.:  10.1
      thresh= 4.957E-07 alpha_mix =  0.700 |ddv_scf|^2 =  8.428E-14

      iter #   5 total cpu time :  5144.4 secs   av.it.:  10.6
      thresh= 2.903E-08 alpha_mix =  0.700 |ddv_scf|^2 =  2.727E-16

      iter #   6 total cpu time :  5380.9 secs   av.it.:  10.1
      thresh= 1.651E-09 alpha_mix =  0.700 |ddv_scf|^2 =  5.716E-18

     End of self-consistent calculation

     Convergence has been achieved 


     Representation #  5 mode #   7

     Self-consistent Calculation

      iter #   1 total cpu time :  5466.4 secs   av.it.:   5.7
      thresh= 1.000E-02 alpha_mix =  0.700 |ddv_scf|^2 =  6.031E-04

      iter #   2 total cpu time :  5567.1 secs   av.it.:   8.0
      thresh= 2.456E-03 alpha_mix =  0.700 |ddv_scf|^2 =  9.523E-02

      iter #   3 total cpu time :  5655.4 secs   av.it.:   6.7
      thresh= 1.000E-02 alpha_mix =  0.700 |ddv_scf|^2 =  3.685E-09

      iter #   4 total cpu time :  5776.8 secs   av.it.:  10.3
      thresh= 6.071E-06 alpha_mix =  0.700 |ddv_scf|^2 =  8.562E-10

      iter #   5 total cpu time :  5887.8 secs   av.it.:   9.2
      thresh= 2.926E-06 alpha_mix =  0.700 |ddv_scf|^2 =  7.282E-11

      iter #   6 total cpu time :  5997.6 secs   av.it.:   9.1
      thresh= 8.533E-07 alpha_mix =  0.700 |ddv_scf|^2 =  6.806E-13

      iter #   7 total cpu time :  6120.0 secs   av.it.:  10.4
      thresh= 8.250E-08 alpha_mix =  0.700 |ddv_scf|^2 =  9.775E-14

      iter #   8 total cpu time :  6224.8 secs   av.it.:   8.6
      thresh= 3.126E-08 alpha_mix =  0.700 |ddv_scf|^2 =  2.942E-15

      iter #   9 total cpu time :  6341.2 secs   av.it.:   9.8
      thresh= 5.424E-09 alpha_mix =  0.700 |ddv_scf|^2 =  2.923E-16

      iter #  10 total cpu time :  6446.1 secs   av.it.:   8.6
      thresh= 1.710E-09 alpha_mix =  0.700 |ddv_scf|^2 =  8.251E-17

     End of self-consistent calculation

     Convergence has been achieved 


     Representation #  6 modes #   8  9

     Self-consistent Calculation

      iter #   1 total cpu time :  6597.4 secs   av.it.:   5.1
      thresh= 1.000E-02 alpha_mix =  0.700 |ddv_scf|^2 =  5.244E-08

      iter #   2 total cpu time :  6834.0 secs   av.it.:  10.1
      thresh= 2.290E-05 alpha_mix =  0.700 |ddv_scf|^2 =  9.598E-10

      iter #   3 total cpu time :  7078.7 secs   av.it.:  10.6
      thresh= 3.098E-06 alpha_mix =  0.700 |ddv_scf|^2 =  2.216E-11

      iter #   4 total cpu time :  7310.2 secs   av.it.:   9.9
      thresh= 4.707E-07 alpha_mix =  0.700 |ddv_scf|^2 =  7.474E-14

      iter #   5 total cpu time :  7552.2 secs   av.it.:  10.5
      thresh= 2.734E-08 alpha_mix =  0.700 |ddv_scf|^2 =  1.615E-16

      iter #   6 total cpu time :  7782.4 secs   av.it.:   9.9
      thresh= 1.271E-09 alpha_mix =  0.700 |ddv_scf|^2 =  4.339E-18

     End of self-consistent calculation

     Convergence has been achieved 

     Number of q in the star =    1
     List of q in the star:
          1  -0.286568371  -0.286568371  -0.286568371

     Diagonalizing the dynamical matrix

     q = (   -0.286568371  -0.286568371  -0.286568371 ) 

 **************************************************************************
     freq (    1) =       0.720592 [THz] =      24.036372 [cm-1]
     freq (    2) =       0.720592 [THz] =      24.036372 [cm-1]
     freq (    3) =       0.748305 [THz] =      24.960769 [cm-1]
     freq (    4) =       0.748305 [THz] =      24.960769 [cm-1]
     freq (    5) =       1.697388 [THz] =      56.618763 [cm-1]
     freq (    6) =       1.697388 [THz] =      56.618763 [cm-1]
     freq (    7) =       2.137319 [THz] =      71.293293 [cm-1]
     freq (    8) =       2.142801 [THz] =      71.476163 [cm-1]
     freq (    9) =       4.092221 [THz] =     136.501815 [cm-1]
 **************************************************************************

     Mode symmetry, D_3d (-3m)  point group:

     freq (  1 -  2) =         24.0  [cm-1]   --> E_g  L_3           
     freq (  3 -  4) =         25.0  [cm-1]   --> E_u  L_3'          
     freq (  5 -  6) =         56.6  [cm-1]   --> E_g  L_3           
     freq (  7 -  7) =         71.3  [cm-1]   --> A_1g L_1           
     freq (  8 -  8) =         71.5  [cm-1]   --> A_2u L_2'          
     freq (  9 -  9) =        136.5  [cm-1]   --> A_1g L_1           

     init_run     :      0.80s CPU      0.83s WALL (       1 calls)
     electrons    :    336.96s CPU    340.43s WALL (       1 calls)

     Called by init_run:
     wfcinit      :      0.00s CPU      0.00s WALL (       1 calls)
     potinit      :      0.36s CPU      0.38s WALL (       1 calls)

     Called by electrons:
     c_bands      :    336.95s CPU    340.41s WALL (       1 calls)
     v_of_rho     :      0.32s CPU      0.35s WALL (       2 calls)
     newd         :      0.09s CPU      0.10s WALL (       2 calls)

     Called by c_bands:
     init_us_2    :      3.41s CPU      3.77s WALL (   11966 calls)
     cegterg      :    268.17s CPU    270.96s WALL (     669 calls)

     Called by sum_band:

     Called by *egterg:
     h_psi        :   5893.62s CPU   5966.91s WALL (  232714 calls)
     s_psi        :     55.27s CPU     59.66s WALL (  468216 calls)
     g_psi        :      0.22s CPU      0.23s WALL (    9281 calls)
     cdiaghg      :     25.12s CPU     25.42s WALL (    9667 calls)

     Called by h_psi:
     h_psi:pot    :   5889.21s CPU   5962.10s WALL (  232714 calls)
     h_psi:calbec :     70.05s CPU     75.33s WALL (  232714 calls)
     vloc_psi     :   5785.82s CPU   5850.95s WALL (  232714 calls)
     add_vuspsi   :     30.77s CPU     33.24s WALL (  232714 calls)

     General routines
     calbec       :    128.40s CPU    137.66s WALL (  492727 calls)
     fft          :      9.05s CPU      9.62s WALL (    1067 calls)
     ffts         :      3.59s CPU      3.95s WALL (    1947 calls)
     fftw         :   5999.65s CPU   6068.28s WALL ( 4520067 calls)
     interpolate  :      1.39s CPU      1.51s WALL (     147 calls)
     davcio       :      5.41s CPU     42.16s WALL (   60743 calls)

     Parallel routines
     fft_scatter  :   1376.04s CPU   1409.76s WALL ( 4523081 calls)

     PHONON       :     2h 7m CPU        2h 9m WALL

     INITIALIZATION: 
     phq_setup    :      0.45s CPU      0.45s WALL (       1 calls)
     phq_init     :     53.84s CPU     54.59s WALL (       1 calls)

     phq_init     :     53.84s CPU     54.59s WALL (       1 calls)
     init_vloc    :      0.26s CPU      0.26s WALL (       2 calls)
     init_us_1    :      0.28s CPU      0.31s WALL (       2 calls)
     newd         :      0.09s CPU      0.10s WALL (       2 calls)
     dvanqq       :      0.48s CPU      0.48s WALL (       1 calls)
     drho         :     51.65s CPU     52.37s WALL (       1 calls)

     DYNAMICAL MATRIX:
     dynmat0      :      1.19s CPU      1.20s WALL (       1 calls)
     phqscf       :   7227.69s CPU   7374.03s WALL (       1 calls)
     dynmatrix    :      0.03s CPU      0.03s WALL (       1 calls)

     phqscf       :   7227.69s CPU   7374.03s WALL (       1 calls)
     solve_linter :   7224.09s CPU   7369.96s WALL (       6 calls)
     drhodv       :      3.56s CPU      3.66s WALL (       6 calls)

     dynmat0      :      1.19s CPU      1.20s WALL (       1 calls)
     dynmat_us    :      1.18s CPU      1.19s WALL (       1 calls)
     d2ionq       :      0.01s CPU      0.01s WALL (       1 calls)

     dynmat_us    :      1.18s CPU      1.19s WALL (       1 calls)
     addusdynmat  :      0.00s CPU      0.00s WALL (       1 calls)

     phqscf       :   7227.69s CPU   7374.03s WALL (       1 calls)
     solve_linter :   7224.09s CPU   7369.96s WALL (       6 calls)

     solve_linter :   7224.09s CPU   7369.96s WALL (       6 calls)
     dvqpsi_us    :     99.91s CPU    100.93s WALL (    1737 calls)
     ortho        :     16.62s CPU     17.81s WALL (   13124 calls)
     cgsolve      :   5833.27s CPU   5917.62s WALL (   13124 calls)
     incdrhoscf   :    554.03s CPU    562.36s WALL (   13124 calls)
     addusddens   :      3.50s CPU      3.58s WALL (      56 calls)
     vpsifft      :    466.08s CPU    472.03s WALL (   11387 calls)
     dv_of_drho   :      9.23s CPU     10.22s WALL (      68 calls)
     mix_pot      :      1.69s CPU      6.32s WALL (      50 calls)
     psymdvscf    :    194.08s CPU    197.83s WALL (      50 calls)
     newdq        :      3.86s CPU      3.90s WALL (      50 calls)
     adddvscf     :      7.30s CPU      7.42s WALL (   11387 calls)
     drhodvus     :      0.14s CPU      0.23s WALL (       6 calls)

     dvqpsi_us    :     99.91s CPU    100.93s WALL (    1737 calls)
     dvqpsi_us_on :      6.80s CPU      6.84s WALL (    1737 calls)

     cgsolve      :   5833.27s CPU   5917.62s WALL (   13124 calls)
     ch_psi       :   5798.58s CPU   5880.67s WALL (  222378 calls)

     ch_psi       :   5798.58s CPU   5880.67s WALL (  222378 calls)
     h_psi        :   5893.62s CPU   5966.91s WALL (  232714 calls)
     last         :    124.56s CPU    132.92s WALL (  222378 calls)

     h_psi        :   5893.62s CPU   5966.91s WALL (  232714 calls)
     add_vuspsi   :     30.77s CPU     33.24s WALL (  232714 calls)

     incdrhoscf   :    554.03s CPU    562.36s WALL (   13124 calls)
     addusdbec    :      8.10s CPU      8.18s WALL (   14861 calls)

     drhodvus     :      0.14s CPU      0.23s WALL (       6 calls)

      General routines
     calbec       :    128.40s CPU    137.66s WALL (  492727 calls)
     fft          :      9.05s CPU      9.62s WALL (    1067 calls)
     ffts         :      3.59s CPU      3.95s WALL (    1947 calls)
     fftw         :   5999.65s CPU   6068.28s WALL ( 4520067 calls)
     davcio       :      5.41s CPU     42.16s WALL (   60743 calls)
     write_rec    :      0.32s CPU      3.38s WALL (      56 calls)


     PHONON       :     2h 7m CPU        2h 9m WALL


   This run was terminated on:   0:17:15  25Feb2018            

=------------------------------------------------------------------------------=
   JOB DONE.
=------------------------------------------------------------------------------=
