
     Program PWSCF v.6.1 (svn rev. 13369) starts on 21Dec2017 at 11:50:15 

     This program is part of the open-source Quantum ESPRESSO suite
     for quantum simulation of materials; please cite
         "P. Giannozzi et al., J. Phys.:Condens. Matter 21 395502 (2009);
          URL http://www.quantum-espresso.org", 
     in publications or presentations arising from this work. More details at
     http://www.quantum-espresso.org/quote

     Parallel version (MPI), running on     4 processors
     R & G space division:  proc/nbgrp/npool/nimage =       4
     Waiting for input...
     Reading input from standard input

     Current dimensions of program PWSCF are:
     Max number of different atomic species (ntypx) = 10
     Max number of k-points (npk) =  40000
     Max angular momentum in pseudopotentials (lmaxx) =  3

     Subspace diagonalization in iterative solution of the eigenvalue problem:
     a serial algorithm will be used


     Parallelization info
     --------------------
     sticks:   dense  smooth     PW     G-vecs:    dense   smooth      PW
     Min         217     109     34                 4073     1443     263
     Max         218     110     35                 4074     1444     265
     Sum         871     437    137                16295     5775    1055



     bravais-lattice index     =            3
     lattice parameter (alat)  =       6.9546  a.u.
     unit-cell volume          =     168.1818 (a.u.)^3
     number of atoms/cell      =            1
     number of atomic types    =            1
     number of electrons       =         9.00
     number of Kohn-Sham states=            9
     kinetic-energy cutoff     =      40.0000  Ry
     charge density cutoff     =     320.0000  Ry
     convergence threshold     =      1.0E-08
     mixing beta               =       0.7000
     number of iterations used =            8  plain     mixing
     Exchange-correlation      = SLA  PW   PBE  PBE ( 1  4  3  4 0 0)

     celldm(1)=   6.954561  celldm(2)=   0.000000  celldm(3)=   0.000000
     celldm(4)=   0.000000  celldm(5)=   0.000000  celldm(6)=   0.000000

     crystal axes: (cart. coord. in units of alat)
               a(1) = (   0.500000   0.500000   0.500000 )  
               a(2) = (  -0.500000   0.500000   0.500000 )  
               a(3) = (  -0.500000  -0.500000   0.500000 )  

     reciprocal axes: (cart. coord. in units 2 pi/alat)
               b(1) = (  1.000000  0.000000  1.000000 )  
               b(2) = ( -1.000000  1.000000  0.000000 )  
               b(3) = (  0.000000 -1.000000  1.000000 )  


     PseudoPot. # 1 for Na read from file:
     /home/s1333534/quantum_espresso/qe-6.1/pseudo/Na_pbe_v1.uspp.F.UPF
     MD5 check sum: 76a99c7e9422403d3e93cbc85ab7bccb
     Pseudo is Ultrasoft, Zval =  9.0
     Generated by new atomic code, or converted to UPF format
     Using radial grid of  819 points,  5 beta functions with: 
                l(1) =   0
                l(2) =   0
                l(3) =   1
                l(4) =   1
                l(5) =   2
     Q(r) pseudized with  8 coefficients,  rinner =    1.250   1.250   1.250
                                                       1.250   1.250

     atomic species   valence    mass     pseudopotential
        Na             9.00    22.99000     Na( 1.00)

     48 Sym. Ops., with inversion, found



   Cartesian axes

     site n.     atom                  positions (alat units)
         1           Na  tau(   1) = (   0.0000000   0.0000000   0.0000000  )

     number of k points=   100  Marzari-Vanderbilt smearing, width (Ry)=  0.0200

     Number of k-points >= 100: set verbosity='high' to print them.

     Dense  grid:    16295 G-vectors     FFT dimensions: (  36,  36,  36)

     Smooth grid:     5775 G-vectors     FFT dimensions: (  25,  25,  25)

     Estimated max dynamical RAM per process >       5.17MB

     Estimated total allocated dynamical RAM >      20.68MB

     Initial potential from superposition of free atoms

     starting charge    8.99371, renormalised to    9.00000
     Starting wfc are    5 randomized atomic wfcs +    4 random wfc

     total cpu time spent up to now is        0.4 secs

     per-process dynamical memory:     9.9 Mb

     Self-consistent Calculation

     iteration #  1     ecut=    40.00 Ry     beta=0.70
     Davidson diagonalization with overlap
     ethr =  1.00E-02,  avg # of iterations =  5.6

     Threshold (ethr) on eigenvalues was too large:
     Diagonalizing with lowered threshold

     Davidson diagonalization with overlap
     ethr =  1.46E-05,  avg # of iterations =  3.5

     total cpu time spent up to now is        1.6 secs

     total energy              =     -95.09351748 Ry
     Harris-Foulkes estimate   =     -95.09397074 Ry
     estimated scf accuracy    <       0.00131088 Ry

     iteration #  2     ecut=    40.00 Ry     beta=0.70
     Davidson diagonalization with overlap
     ethr =  1.46E-05,  avg # of iterations =  2.0

     total cpu time spent up to now is        2.0 secs

     total energy              =     -95.09369317 Ry
     Harris-Foulkes estimate   =     -95.09373074 Ry
     estimated scf accuracy    <       0.00014941 Ry

     iteration #  3     ecut=    40.00 Ry     beta=0.70
     Davidson diagonalization with overlap
     ethr =  1.66E-06,  avg # of iterations =  2.3

     total cpu time spent up to now is        2.4 secs

     total energy              =     -95.09371122 Ry
     Harris-Foulkes estimate   =     -95.09371234 Ry
     estimated scf accuracy    <       0.00000885 Ry

     iteration #  4     ecut=    40.00 Ry     beta=0.70
     Davidson diagonalization with overlap
     ethr =  9.83E-08,  avg # of iterations =  1.0

     total cpu time spent up to now is        2.8 secs

     total energy              =     -95.09371200 Ry
     Harris-Foulkes estimate   =     -95.09371194 Ry
     estimated scf accuracy    <       0.00000001 Ry

     iteration #  5     ecut=    40.00 Ry     beta=0.70
     Davidson diagonalization with overlap
     ethr =  1.29E-10,  avg # of iterations =  3.0

     total cpu time spent up to now is        3.2 secs

     End of self-consistent calculation

     Number of k-points >= 100: set verbosity='high' to print the bands.

     the Fermi energy is     3.6857 ev

!    total energy              =     -95.09371203 Ry
     Harris-Foulkes estimate   =     -95.09371203 Ry
     estimated scf accuracy    <          1.6E-09 Ry

     The total energy is the sum of the following terms:

     one-electron contribution =     -78.97248285 Ry
     hartree contribution      =      40.59179965 Ry
     xc contribution           =     -14.32669928 Ry
     ewald contribution        =     -42.38627290 Ry
     smearing contrib. (-TS)   =      -0.00005666 Ry

     convergence has been achieved in   5 iterations


     Computing stress (Cartesian axis) and pressure

          total   stress  (Ry/bohr**3)                   (kbar)     P=   59.67
   0.00040560   0.00000000   0.00000000         59.67      0.00      0.00
   0.00000000   0.00040560   0.00000000          0.00     59.67      0.00
   0.00000000   0.00000000   0.00040560          0.00      0.00     59.67


     Writing output data file na.bcc.save

     init_run     :      0.27s CPU      0.36s WALL (       1 calls)
     electrons    :      2.69s CPU      2.79s WALL (       1 calls)
     stress       :      0.20s CPU      0.20s WALL (       1 calls)

     Called by init_run:
     wfcinit      :      0.12s CPU      0.15s WALL (       1 calls)
     potinit      :      0.02s CPU      0.03s WALL (       1 calls)

     Called by electrons:
     c_bands      :      2.15s CPU      2.23s WALL (       6 calls)
     sum_band     :      0.44s CPU      0.45s WALL (       6 calls)
     v_of_rho     :      0.06s CPU      0.06s WALL (       6 calls)
     newd         :      0.06s CPU      0.08s WALL (       6 calls)
     mix_rho      :      0.00s CPU      0.01s WALL (       6 calls)

     Called by c_bands:
     init_us_2    :      0.12s CPU      0.11s WALL (    1400 calls)
     cegterg      :      2.04s CPU      2.12s WALL (     600 calls)

     Called by sum_band:
     sum_band:bec :      0.00s CPU      0.00s WALL (     600 calls)
     addusdens    :      0.07s CPU      0.07s WALL (       6 calls)

     Called by *egterg:
     h_psi        :      1.58s CPU      1.64s WALL (    2429 calls)
     s_psi        :      0.03s CPU      0.02s WALL (    2429 calls)
     g_psi        :      0.01s CPU      0.01s WALL (    1729 calls)
     cdiaghg      :      0.34s CPU      0.37s WALL (    2229 calls)

     Called by h_psi:
     h_psi:pot    :      1.57s CPU      1.63s WALL (    2429 calls)
     h_psi:calbec :      0.04s CPU      0.04s WALL (    2429 calls)
     vloc_psi     :      1.50s CPU      1.55s WALL (    2429 calls)
     add_vuspsi   :      0.02s CPU      0.03s WALL (    2429 calls)

     General routines
     calbec       :      0.06s CPU      0.07s WALL (    3129 calls)
     fft          :      0.02s CPU      0.06s WALL (     101 calls)
     ffts         :      0.00s CPU      0.00s WALL (      12 calls)
     fftw         :      1.59s CPU      1.56s WALL (   35216 calls)
     interpolate  :      0.00s CPU      0.00s WALL (      12 calls)
     davcio       :      0.00s CPU      0.00s WALL (     100 calls)

     Parallel routines
     fft_scatter  :      0.32s CPU      0.36s WALL (   35329 calls)

     PWSCF        :     3.31s CPU         3.55s WALL


   This run was terminated on:  11:50:18  21Dec2017            

=------------------------------------------------------------------------------=
   JOB DONE.
=------------------------------------------------------------------------------=
