
     Program PHONON v.6.1 (svn rev. 13369) starts on  1Feb2018 at  3:41: 4 

     This program is part of the open-source Quantum ESPRESSO suite
     for quantum simulation of materials; please cite
         "P. Giannozzi et al., J. Phys.:Condens. Matter 21 395502 (2009);
          URL http://www.quantum-espresso.org", 
     in publications or presentations arising from this work. More details at
     http://www.quantum-espresso.org/quote

     Parallel version (MPI), running on    64 processors
     K-points division:     npool     =       4
     R & G space division:  proc/nbgrp/npool/nimage =      16

     Reading data from directory:
     ./na.bcc.save

   Info: using nr1, nr2, nr3 values from input

   Info: using nr1, nr2, nr3 values from input

     IMPORTANT: XC functional enforced from input :
     Exchange-correlation      = SLA  PW   PBE  PBE ( 1  4  3  4 0 0)
     Any further DFT definition will be discarded
     Please, verify this is what you really want


     Parallelization info
     --------------------
     sticks:   dense  smooth     PW     G-vecs:    dense   smooth      PW
     Min          71      35     10                 1553      547      91
     Max          72      36     11                 1556      550      95
     Sum        1151     571    173                24883     8781    1505



     Dynamical matrices for ( 6, 6, 6)  uniform grid of q-points
     (  16q-points):
       N         xq(1)         xq(2)         xq(3) 
       1   0.000000000   0.000000000   0.000000000
       2   0.000000000  -0.166666667   0.166666667
       3   0.000000000  -0.333333333   0.333333333
       4   0.000000000   0.500000000  -0.500000000
       5  -0.166666667  -0.166666667   0.333333333
       6  -0.166666667   0.666666667  -0.500000000
       7  -0.333333333   0.666666667  -0.333333333
       8   0.000000000   0.000000000   0.333333333
       9   0.000000000  -0.166666667   0.500000000
      10   0.000000000   0.666666667  -0.333333333
      11  -0.166666667   0.833333333  -0.333333333
      12   0.666666667  -0.666666667   0.333333333
      13   0.500000000  -0.500000000   0.333333333
      14   0.000000000   0.000000000   0.666666667
      15   0.000000000   0.833333333  -0.166666667
      16   0.000000000   0.000000000  -1.000000000

     Calculation of q =    0.0000000   0.0000000   0.0000000

                                                                                

     bravais-lattice index     =            3
     lattice parameter (alat)  =       8.0100  a.u.
     unit-cell volume          =     256.9612 (a.u.)^3
     number of atoms/cell      =            1
     number of atomic types    =            1
     kinetic-energy cut-off    =      40.0000  Ry
     charge density cut-off    =     320.0000  Ry
     convergence threshold     =      1.0E-16
     beta                      =       0.7000
     number of iterations used =            4
     Exchange-correlation      = SLA  PW   PBE  PBE ( 1  4  3  4 0 0)


     celldm(1)=    8.01000  celldm(2)=    0.00000  celldm(3)=    0.00000
     celldm(4)=    0.00000  celldm(5)=    0.00000  celldm(6)=    0.00000

     crystal axes: (cart. coord. in units of alat)
               a(1) = (  0.5000  0.5000  0.5000 )  
               a(2) = ( -0.5000  0.5000  0.5000 )  
               a(3) = ( -0.5000 -0.5000  0.5000 )  

     reciprocal axes: (cart. coord. in units 2 pi/alat)
               b(1) = (  1.0000  0.0000  1.0000 )  
               b(2) = ( -1.0000  1.0000  0.0000 )  
               b(3) = (  0.0000 -1.0000  1.0000 )  


     Atoms inside the unit cell: 

     Cartesian axes

     site n.  atom      mass           positions (alat units)
        1     Na  22.9900   tau(    1) = (    0.00000    0.00000    0.00000  )

     Computing dynamical matrix for 
                    q = (   0.0000000   0.0000000   0.0000000 )

     49 Sym.Ops. (with q -> -q+G )


     G cutoff =  520.0622  (   1556 G-vectors)     FFT grid: ( 40, 40, 40)
     G cutoff =  260.0311  (    550 G-vectors)  smooth grid: ( 27, 27, 27)

     number of k points=   250  Marzari-Vanderbilt smearing, width (Ry)=  0.0200

     PseudoPot. # 1 for Na read from file:
     /home/s1333534/quantum_espresso/qe-6.1/pseudo/Na_pbe_v1.uspp.F.UPF
     MD5 check sum: 76a99c7e9422403d3e93cbc85ab7bccb
     Pseudo is Ultrasoft, Zval =  9.0
     Generated by new atomic code, or converted to UPF format
     Using radial grid of  819 points,  5 beta functions with: 
                l(1) =   0
                l(2) =   0
                l(3) =   1
                l(4) =   1
                l(5) =   2
     Q(r) pseudized with  8 coefficients,  rinner =    1.250   1.250   1.250
                                                       1.250   1.250

     Mode symmetry, O_h (m-3m)  point group:


     Atomic displacements:
     There are   1 irreducible representations

     Representation     1      3 modes -T_1u G_15  G_4-  To be done



     Alpha used in Ewald sum =   2.8000
     PHONON       :     3.12s CPU         3.34s WALL



     Representation #  1 modes #   1  2  3

     Self-consistent Calculation

     Pert. #  1: Fermi energy shift (Ry) =    -2.2295E-25     2.5077E-37
     Pert. #  2: Fermi energy shift (Ry) =    -4.3082E-27    -1.0188E-37
     Pert. #  3: Fermi energy shift (Ry) =     5.0622E-26     4.0750E-37

      iter #   1 total cpu time :     7.3 secs   av.it.:   5.4
      thresh= 1.000E-02 alpha_mix =  0.700 |ddv_scf|^2 =  9.660E-07

     Pert. #  1: Fermi energy shift (Ry) =     1.2709E-25     1.5918E-39
     Pert. #  2: Fermi energy shift (Ry) =     1.7233E-26     1.0408E-39
     Pert. #  3: Fermi energy shift (Ry) =    -3.3389E-26     2.4489E-40

      iter #   2 total cpu time :    11.8 secs   av.it.:   8.5
      thresh= 9.828E-05 alpha_mix =  0.700 |ddv_scf|^2 =  1.816E-08

     Pert. #  1: Fermi energy shift (Ry) =     8.6165E-27    -5.5101E-40
     Pert. #  2: Fermi energy shift (Ry) =     2.0464E-26     1.3163E-39
     Pert. #  3: Fermi energy shift (Ry) =    -4.9545E-26    -3.0612E-40

      iter #   3 total cpu time :    16.4 secs   av.it.:   8.6
      thresh= 1.348E-05 alpha_mix =  0.700 |ddv_scf|^2 =  4.020E-10

     Pert. #  1: Fermi energy shift (Ry) =     0.0000E+00     4.5918E-41
     Pert. #  2: Fermi energy shift (Ry) =    -2.1541E-27    -2.6785E-41
     Pert. #  3: Fermi energy shift (Ry) =     7.1086E-26    -1.1097E-40

      iter #   4 total cpu time :    20.9 secs   av.it.:   8.0
      thresh= 2.005E-06 alpha_mix =  0.700 |ddv_scf|^2 =  1.353E-12

     Pert. #  1: Fermi energy shift (Ry) =     8.6165E-27    -1.1479E-41
     Pert. #  2: Fermi energy shift (Ry) =    -3.4466E-26    -4.7831E-41
     Pert. #  3: Fermi energy shift (Ry) =     5.1699E-26    -1.9132E-42

      iter #   5 total cpu time :    25.6 secs   av.it.:   8.5
      thresh= 1.163E-07 alpha_mix =  0.700 |ddv_scf|^2 =  2.870E-15

     Pert. #  1: Fermi energy shift (Ry) =    -2.8004E-26     5.7397E-42
     Pert. #  2: Fermi energy shift (Ry) =     2.9081E-26    -1.9132E-42
     Pert. #  3: Fermi energy shift (Ry) =    -9.6935E-27     1.9132E-42

      iter #   6 total cpu time :    30.0 secs   av.it.:   8.0
      thresh= 5.357E-09 alpha_mix =  0.700 |ddv_scf|^2 =  8.021E-17

     End of self-consistent calculation

     Convergence has been achieved 

     Number of q in the star =    1
     List of q in the star:
          1   0.000000000   0.000000000   0.000000000

     Diagonalizing the dynamical matrix

     q = (    0.000000000   0.000000000   0.000000000 ) 

 **************************************************************************
     freq (    1) =      -0.322127 [THz] =     -10.744986 [cm-1]
     freq (    2) =      -0.322127 [THz] =     -10.744986 [cm-1]
     freq (    3) =      -0.322127 [THz] =     -10.744986 [cm-1]
 **************************************************************************

     Mode symmetry, O_h (m-3m)  point group:

     freq (  1 -  3) =        -10.7  [cm-1]   --> T_1u G_15  G_4- I  

     Calculation of q =    0.0000000  -0.1666667   0.1666667

   Info: using nr1, nr2, nr3 values from input

   Info: using nr1, nr2, nr3 values from input

     Parallelization info
     --------------------
     sticks:   dense  smooth     PW     G-vecs:    dense   smooth      PW
     Min          71      35     11                 1553      547      99
     Max          72      36     12                 1556      550     101
     Sum        1151     571    181                24883     8781    1601



     bravais-lattice index     =            3
     lattice parameter (alat)  =       8.0100  a.u.
     unit-cell volume          =     256.9612 (a.u.)^3
     number of atoms/cell      =            1
     number of atomic types    =            1
     number of electrons       =         9.00
     number of Kohn-Sham states=            9
     kinetic-energy cutoff     =      40.0000  Ry
     charge density cutoff     =     320.0000  Ry
     Exchange-correlation      = SLA  PW   PBE  PBE ( 1  4  3  4 0 0)

     celldm(1)=   8.010000  celldm(2)=   0.000000  celldm(3)=   0.000000
     celldm(4)=   0.000000  celldm(5)=   0.000000  celldm(6)=   0.000000

     crystal axes: (cart. coord. in units of alat)
               a(1) = (   0.500000   0.500000   0.500000 )  
               a(2) = (  -0.500000   0.500000   0.500000 )  
               a(3) = (  -0.500000  -0.500000   0.500000 )  

     reciprocal axes: (cart. coord. in units 2 pi/alat)
               b(1) = (  1.000000  0.000000  1.000000 )  
               b(2) = ( -1.000000  1.000000  0.000000 )  
               b(3) = (  0.000000 -1.000000  1.000000 )  


     PseudoPot. # 1 for Na read from file:
     /home/s1333534/quantum_espresso/qe-6.1/pseudo/Na_pbe_v1.uspp.F.UPF
     MD5 check sum: 76a99c7e9422403d3e93cbc85ab7bccb
     Pseudo is Ultrasoft, Zval =  9.0
     Generated by new atomic code, or converted to UPF format
     Using radial grid of  819 points,  5 beta functions with: 
                l(1) =   0
                l(2) =   0
                l(3) =   1
                l(4) =   1
                l(5) =   2
     Q(r) pseudized with  8 coefficients,  rinner =    1.250   1.250   1.250
                                                       1.250   1.250

     atomic species   valence    mass     pseudopotential
        Na             9.00    22.99000     Na( 1.00)

     48 Sym. Ops., with inversion, found



   Cartesian axes

     site n.     atom                  positions (alat units)
         1           Na  tau(   1) = (   0.0000000   0.0000000   0.0000000  )

     number of k points=  4400  Marzari-Vanderbilt smearing, width (Ry)=  0.0200

     Number of k-points >= 100: set verbosity='high' to print them.

     Dense  grid:    24883 G-vectors     FFT dimensions: (  40,  40,  40)

     Smooth grid:     8781 G-vectors     FFT dimensions: (  27,  27,  27)

     Estimated max dynamical RAM per process >       0.85MB

     Estimated total allocated dynamical RAM >      54.67MB

     The potential is recalculated from file :
     ./_ph0/na.bcc.save/charge-density.dat

     Starting wfc are    5 atomic +    4 random wfc

     Band Structure Calculation
     Davidson diagonalization with overlap

     ethr =  1.11E-10,  avg # of iterations = 21.8

     total cpu time spent up to now is       73.2 secs

     End of band structure calculation

     Number of k-points >= 100: set verbosity='high' to print the bands.

     the Fermi energy is     1.4967 ev

     Writing output data file na.bcc.save

                                                                                

     bravais-lattice index     =            3
     lattice parameter (alat)  =       8.0100  a.u.
     unit-cell volume          =     256.9612 (a.u.)^3
     number of atoms/cell      =            1
     number of atomic types    =            1
     kinetic-energy cut-off    =      40.0000  Ry
     charge density cut-off    =     320.0000  Ry
     convergence threshold     =      1.0E-16
     beta                      =       0.7000
     number of iterations used =            4
     Exchange-correlation      = SLA  PW   PBE  PBE ( 1  4  3  4 0 0)


     celldm(1)=    8.01000  celldm(2)=    0.00000  celldm(3)=    0.00000
     celldm(4)=    0.00000  celldm(5)=    0.00000  celldm(6)=    0.00000

     crystal axes: (cart. coord. in units of alat)
               a(1) = (  0.5000  0.5000  0.5000 )  
               a(2) = ( -0.5000  0.5000  0.5000 )  
               a(3) = ( -0.5000 -0.5000  0.5000 )  

     reciprocal axes: (cart. coord. in units 2 pi/alat)
               b(1) = (  1.0000  0.0000  1.0000 )  
               b(2) = ( -1.0000  1.0000  0.0000 )  
               b(3) = (  0.0000 -1.0000  1.0000 )  


     Atoms inside the unit cell: 

     Cartesian axes

     site n.  atom      mass           positions (alat units)
        1     Na  22.9900   tau(    1) = (    0.00000    0.00000    0.00000  )

     Computing dynamical matrix for 
                    q = (   0.0000000  -0.1666667   0.1666667 )

      4 Sym.Ops. (no q -> -q+G )


     G cutoff =  520.0622  (   1556 G-vectors)     FFT grid: ( 40, 40, 40)
     G cutoff =  260.0311  (    550 G-vectors)  smooth grid: ( 27, 27, 27)

     number of k points=  4400  Marzari-Vanderbilt smearing, width (Ry)=  0.0200

     PseudoPot. # 1 for Na read from file:
     /home/s1333534/quantum_espresso/qe-6.1/pseudo/Na_pbe_v1.uspp.F.UPF
     MD5 check sum: 76a99c7e9422403d3e93cbc85ab7bccb
     Pseudo is Ultrasoft, Zval =  9.0
     Generated by new atomic code, or converted to UPF format
     Using radial grid of  819 points,  5 beta functions with: 
                l(1) =   0
                l(2) =   0
                l(3) =   1
                l(4) =   1
                l(5) =   2
     Q(r) pseudized with  8 coefficients,  rinner =    1.250   1.250   1.250
                                                       1.250   1.250

     Mode symmetry, C_2v (mm2)  point group:


     Atomic displacements:
     There are   3 irreducible representations

     Representation     1      1 modes -A_1  D_1  S_1  To be done

     Representation     2      1 modes -B_1  D_3  S_3  To be done

     Representation     3      1 modes -B_2  D_4  S_4  To be done



     Alpha used in Ewald sum =   2.8000
     PHONON       :  1m53.35s CPU     1m59.66s WALL



     Representation #  1 mode #   1

     Self-consistent Calculation

      iter #   1 total cpu time :   128.2 secs   av.it.:   5.7
      thresh= 1.000E-02 alpha_mix =  0.700 |ddv_scf|^2 =  2.208E-02

      iter #   2 total cpu time :   136.3 secs   av.it.:   6.3
      thresh= 1.000E-02 alpha_mix =  0.700 |ddv_scf|^2 =  3.316E+00

      iter #   3 total cpu time :   144.5 secs   av.it.:   6.3
      thresh= 1.000E-02 alpha_mix =  0.700 |ddv_scf|^2 =  2.247E-07

      iter #   4 total cpu time :   154.7 secs   av.it.:   8.2
      thresh= 4.740E-05 alpha_mix =  0.700 |ddv_scf|^2 =  4.417E-08

      iter #   5 total cpu time :   163.9 secs   av.it.:   7.5
      thresh= 2.102E-05 alpha_mix =  0.700 |ddv_scf|^2 =  2.970E-09

      iter #   6 total cpu time :   173.0 secs   av.it.:   7.6
      thresh= 5.450E-06 alpha_mix =  0.700 |ddv_scf|^2 =  1.525E-08

      iter #   7 total cpu time :   179.0 secs   av.it.:   4.2
      thresh= 1.235E-05 alpha_mix =  0.700 |ddv_scf|^2 =  4.503E-10

      iter #   8 total cpu time :   188.0 secs   av.it.:   7.5
      thresh= 2.122E-06 alpha_mix =  0.700 |ddv_scf|^2 =  2.595E-11

      iter #   9 total cpu time :   196.9 secs   av.it.:   7.4
      thresh= 5.094E-07 alpha_mix =  0.700 |ddv_scf|^2 =  1.345E-12

      iter #  10 total cpu time :   205.9 secs   av.it.:   7.1
      thresh= 1.160E-07 alpha_mix =  0.700 |ddv_scf|^2 =  1.035E-13

      iter #  11 total cpu time :   214.7 secs   av.it.:   7.3
      thresh= 3.218E-08 alpha_mix =  0.700 |ddv_scf|^2 =  4.365E-16

      iter #  12 total cpu time :   224.2 secs   av.it.:   7.8
      thresh= 2.089E-09 alpha_mix =  0.700 |ddv_scf|^2 =  3.151E-16

      iter #  13 total cpu time :   232.8 secs   av.it.:   6.8
      thresh= 1.775E-09 alpha_mix =  0.700 |ddv_scf|^2 =  5.572E-15

      iter #  14 total cpu time :   240.4 secs   av.it.:   5.9
      thresh= 7.465E-09 alpha_mix =  0.700 |ddv_scf|^2 =  2.205E-18

     End of self-consistent calculation

     Convergence has been achieved 


     Representation #  2 mode #   2

     Self-consistent Calculation

      iter #   1 total cpu time :   248.8 secs   av.it.:   5.4
      thresh= 1.000E-02 alpha_mix =  0.700 |ddv_scf|^2 =  8.784E-06

      iter #   2 total cpu time :   258.2 secs   av.it.:   7.7
      thresh= 2.964E-04 alpha_mix =  0.700 |ddv_scf|^2 =  1.619E-07

      iter #   3 total cpu time :   268.0 secs   av.it.:   7.8
      thresh= 4.023E-05 alpha_mix =  0.700 |ddv_scf|^2 =  3.903E-09

      iter #   4 total cpu time :   277.0 secs   av.it.:   7.4
      thresh= 6.248E-06 alpha_mix =  0.700 |ddv_scf|^2 =  1.299E-11

      iter #   5 total cpu time :   286.7 secs   av.it.:   7.7
      thresh= 3.604E-07 alpha_mix =  0.700 |ddv_scf|^2 =  2.478E-14

      iter #   6 total cpu time :   295.8 secs   av.it.:   7.3
      thresh= 1.574E-08 alpha_mix =  0.700 |ddv_scf|^2 =  7.574E-16

      iter #   7 total cpu time :   305.5 secs   av.it.:   7.7
      thresh= 2.752E-09 alpha_mix =  0.700 |ddv_scf|^2 =  7.148E-19

     End of self-consistent calculation

     Convergence has been achieved 


     Representation #  3 mode #   3

     Self-consistent Calculation

      iter #   1 total cpu time :   314.1 secs   av.it.:   5.4
      thresh= 1.000E-02 alpha_mix =  0.700 |ddv_scf|^2 =  9.075E-06

      iter #   2 total cpu time :   323.8 secs   av.it.:   7.7
      thresh= 3.013E-04 alpha_mix =  0.700 |ddv_scf|^2 =  1.610E-07

      iter #   3 total cpu time :   333.6 secs   av.it.:   7.8
      thresh= 4.013E-05 alpha_mix =  0.700 |ddv_scf|^2 =  4.908E-09

      iter #   4 total cpu time :   343.0 secs   av.it.:   7.5
      thresh= 7.006E-06 alpha_mix =  0.700 |ddv_scf|^2 =  1.621E-11

      iter #   5 total cpu time :   352.7 secs   av.it.:   7.8
      thresh= 4.026E-07 alpha_mix =  0.700 |ddv_scf|^2 =  2.580E-14

      iter #   6 total cpu time :   361.4 secs   av.it.:   6.9
      thresh= 1.606E-08 alpha_mix =  0.700 |ddv_scf|^2 =  1.099E-15

      iter #   7 total cpu time :   371.0 secs   av.it.:   7.8
      thresh= 3.316E-09 alpha_mix =  0.700 |ddv_scf|^2 =  1.058E-18

     End of self-consistent calculation

     Convergence has been achieved 

     Number of q in the star =   12
     List of q in the star:
          1   0.000000000  -0.166666667   0.166666667
          2  -0.166666667   0.000000000   0.166666667
          3   0.166666667   0.000000000   0.166666667
          4   0.000000000   0.166666667   0.166666667
          5   0.166666667   0.166666667   0.000000000
          6  -0.166666667   0.166666667   0.000000000
          7   0.166666667  -0.166666667   0.000000000
          8  -0.166666667  -0.166666667   0.000000000
          9  -0.166666667   0.000000000  -0.166666667
         10   0.000000000  -0.166666667  -0.166666667
         11   0.000000000   0.166666667  -0.166666667
         12   0.166666667   0.000000000  -0.166666667

     Diagonalizing the dynamical matrix

     q = (    0.000000000  -0.166666667   0.166666667 ) 

 **************************************************************************
     freq (    1) =       0.487708 [THz] =      16.268181 [cm-1]
     freq (    2) =       1.297236 [THz] =      43.271149 [cm-1]
     freq (    3) =       1.926833 [THz] =      64.272226 [cm-1]
 **************************************************************************

     Mode symmetry, C_2v (mm2)  point group:

     freq (  1 -  1) =         16.3  [cm-1]   --> B_1  D_3  S_3      
     freq (  2 -  2) =         43.3  [cm-1]   --> B_2  D_4  S_4      
     freq (  3 -  3) =         64.3  [cm-1]   --> A_1  D_1  S_1      

     Calculation of q =    0.0000000  -0.3333333   0.3333333

   Info: using nr1, nr2, nr3 values from input

   Info: using nr1, nr2, nr3 values from input

     Parallelization info
     --------------------
     sticks:   dense  smooth     PW     G-vecs:    dense   smooth      PW
     Min          71      35     12                 1553      547     115
     Max          72      36     13                 1556      550     118
     Sum        1151     571    205                24883     8781    1865



     bravais-lattice index     =            3
     lattice parameter (alat)  =       8.0100  a.u.
     unit-cell volume          =     256.9612 (a.u.)^3
     number of atoms/cell      =            1
     number of atomic types    =            1
     number of electrons       =         9.00
     number of Kohn-Sham states=            9
     kinetic-energy cutoff     =      40.0000  Ry
     charge density cutoff     =     320.0000  Ry
     Exchange-correlation      = SLA  PW   PBE  PBE ( 1  4  3  4 0 0)

     celldm(1)=   8.010000  celldm(2)=   0.000000  celldm(3)=   0.000000
     celldm(4)=   0.000000  celldm(5)=   0.000000  celldm(6)=   0.000000

     crystal axes: (cart. coord. in units of alat)
               a(1) = (   0.500000   0.500000   0.500000 )  
               a(2) = (  -0.500000   0.500000   0.500000 )  
               a(3) = (  -0.500000  -0.500000   0.500000 )  

     reciprocal axes: (cart. coord. in units 2 pi/alat)
               b(1) = (  1.000000  0.000000  1.000000 )  
               b(2) = ( -1.000000  1.000000  0.000000 )  
               b(3) = (  0.000000 -1.000000  1.000000 )  


     PseudoPot. # 1 for Na read from file:
     /home/s1333534/quantum_espresso/qe-6.1/pseudo/Na_pbe_v1.uspp.F.UPF
     MD5 check sum: 76a99c7e9422403d3e93cbc85ab7bccb
     Pseudo is Ultrasoft, Zval =  9.0
     Generated by new atomic code, or converted to UPF format
     Using radial grid of  819 points,  5 beta functions with: 
                l(1) =   0
                l(2) =   0
                l(3) =   1
                l(4) =   1
                l(5) =   2
     Q(r) pseudized with  8 coefficients,  rinner =    1.250   1.250   1.250
                                                       1.250   1.250

     atomic species   valence    mass     pseudopotential
        Na             9.00    22.99000     Na( 1.00)

     48 Sym. Ops., with inversion, found



   Cartesian axes

     site n.     atom                  positions (alat units)
         1           Na  tau(   1) = (   0.0000000   0.0000000   0.0000000  )

     number of k points=  4400  Marzari-Vanderbilt smearing, width (Ry)=  0.0200

     Number of k-points >= 100: set verbosity='high' to print them.

     Dense  grid:    24883 G-vectors     FFT dimensions: (  40,  40,  40)

     Smooth grid:     8781 G-vectors     FFT dimensions: (  27,  27,  27)

     Estimated max dynamical RAM per process >       0.85MB

     Estimated total allocated dynamical RAM >      54.67MB

     The potential is recalculated from file :
     ./_ph0/na.bcc.save/charge-density.dat

     Starting wfc are    5 atomic +    4 random wfc

     Band Structure Calculation
     Davidson diagonalization with overlap

     ethr =  1.11E-10,  avg # of iterations = 21.7

     total cpu time spent up to now is      161.3 secs

     End of band structure calculation

     Number of k-points >= 100: set verbosity='high' to print the bands.

     the Fermi energy is     1.4967 ev

     Writing output data file na.bcc.save

                                                                                

     bravais-lattice index     =            3
     lattice parameter (alat)  =       8.0100  a.u.
     unit-cell volume          =     256.9612 (a.u.)^3
     number of atoms/cell      =            1
     number of atomic types    =            1
     kinetic-energy cut-off    =      40.0000  Ry
     charge density cut-off    =     320.0000  Ry
     convergence threshold     =      1.0E-16
     beta                      =       0.7000
     number of iterations used =            4
     Exchange-correlation      = SLA  PW   PBE  PBE ( 1  4  3  4 0 0)


     celldm(1)=    8.01000  celldm(2)=    0.00000  celldm(3)=    0.00000
     celldm(4)=    0.00000  celldm(5)=    0.00000  celldm(6)=    0.00000

     crystal axes: (cart. coord. in units of alat)
               a(1) = (  0.5000  0.5000  0.5000 )  
               a(2) = ( -0.5000  0.5000  0.5000 )  
               a(3) = ( -0.5000 -0.5000  0.5000 )  

     reciprocal axes: (cart. coord. in units 2 pi/alat)
               b(1) = (  1.0000  0.0000  1.0000 )  
               b(2) = ( -1.0000  1.0000  0.0000 )  
               b(3) = (  0.0000 -1.0000  1.0000 )  


     Atoms inside the unit cell: 

     Cartesian axes

     site n.  atom      mass           positions (alat units)
        1     Na  22.9900   tau(    1) = (    0.00000    0.00000    0.00000  )

     Computing dynamical matrix for 
                    q = (   0.0000000  -0.3333333   0.3333333 )

      4 Sym.Ops. (no q -> -q+G )


     G cutoff =  520.0622  (   1556 G-vectors)     FFT grid: ( 40, 40, 40)
     G cutoff =  260.0311  (    550 G-vectors)  smooth grid: ( 27, 27, 27)

     number of k points=  4400  Marzari-Vanderbilt smearing, width (Ry)=  0.0200

     PseudoPot. # 1 for Na read from file:
     /home/s1333534/quantum_espresso/qe-6.1/pseudo/Na_pbe_v1.uspp.F.UPF
     MD5 check sum: 76a99c7e9422403d3e93cbc85ab7bccb
     Pseudo is Ultrasoft, Zval =  9.0
     Generated by new atomic code, or converted to UPF format
     Using radial grid of  819 points,  5 beta functions with: 
                l(1) =   0
                l(2) =   0
                l(3) =   1
                l(4) =   1
                l(5) =   2
     Q(r) pseudized with  8 coefficients,  rinner =    1.250   1.250   1.250
                                                       1.250   1.250

     Mode symmetry, C_2v (mm2)  point group:


     Atomic displacements:
     There are   3 irreducible representations

     Representation     1      1 modes -A_1  D_1  S_1  To be done

     Representation     2      1 modes -B_1  D_3  S_3  To be done

     Representation     3      1 modes -B_2  D_4  S_4  To be done



     Alpha used in Ewald sum =   2.8000
     PHONON       :  7m12.31s CPU     7m43.53s WALL



     Representation #  1 mode #   1

     Self-consistent Calculation

      iter #   1 total cpu time :   472.4 secs   av.it.:   5.7
      thresh= 1.000E-02 alpha_mix =  0.700 |ddv_scf|^2 =  3.755E-04

      iter #   2 total cpu time :   481.9 secs   av.it.:   6.7
      thresh= 1.938E-03 alpha_mix =  0.700 |ddv_scf|^2 =  2.205E-03

      iter #   3 total cpu time :   489.9 secs   av.it.:   5.8
      thresh= 4.696E-03 alpha_mix =  0.700 |ddv_scf|^2 =  4.056E-07

      iter #   4 total cpu time :   499.8 secs   av.it.:   7.9
      thresh= 6.369E-05 alpha_mix =  0.700 |ddv_scf|^2 =  7.431E-09

      iter #   5 total cpu time :   511.5 secs   av.it.:   8.3
      thresh= 8.620E-06 alpha_mix =  0.700 |ddv_scf|^2 =  3.270E-10

      iter #   6 total cpu time :   521.6 secs   av.it.:   8.2
      thresh= 1.808E-06 alpha_mix =  0.700 |ddv_scf|^2 =  1.469E-11

      iter #   7 total cpu time :   531.5 secs   av.it.:   7.9
      thresh= 3.832E-07 alpha_mix =  0.700 |ddv_scf|^2 =  5.430E-14

      iter #   8 total cpu time :   541.8 secs   av.it.:   8.1
      thresh= 2.330E-08 alpha_mix =  0.700 |ddv_scf|^2 =  1.307E-15

      iter #   9 total cpu time :   551.3 secs   av.it.:   7.5
      thresh= 3.615E-09 alpha_mix =  0.700 |ddv_scf|^2 =  1.218E-15

      iter #  10 total cpu time :   560.5 secs   av.it.:   7.2
      thresh= 3.490E-09 alpha_mix =  0.700 |ddv_scf|^2 =  7.183E-16

      iter #  11 total cpu time :   569.7 secs   av.it.:   7.0
      thresh= 2.680E-09 alpha_mix =  0.700 |ddv_scf|^2 =  3.473E-17

     End of self-consistent calculation

     Convergence has been achieved 


     Representation #  2 mode #   2

     Self-consistent Calculation

      iter #   1 total cpu time :   578.6 secs   av.it.:   5.5
      thresh= 1.000E-02 alpha_mix =  0.700 |ddv_scf|^2 =  9.016E-06

      iter #   2 total cpu time :   588.4 secs   av.it.:   7.7
      thresh= 3.003E-04 alpha_mix =  0.700 |ddv_scf|^2 =  1.574E-07

      iter #   3 total cpu time :   598.3 secs   av.it.:   7.8
      thresh= 3.968E-05 alpha_mix =  0.700 |ddv_scf|^2 =  4.795E-09

      iter #   4 total cpu time :   607.9 secs   av.it.:   7.5
      thresh= 6.925E-06 alpha_mix =  0.700 |ddv_scf|^2 =  1.526E-11

      iter #   5 total cpu time :   617.9 secs   av.it.:   7.8
      thresh= 3.906E-07 alpha_mix =  0.700 |ddv_scf|^2 =  2.131E-14

      iter #   6 total cpu time :   627.3 secs   av.it.:   7.3
      thresh= 1.460E-08 alpha_mix =  0.700 |ddv_scf|^2 =  7.871E-16

      iter #   7 total cpu time :   637.1 secs   av.it.:   7.8
      thresh= 2.806E-09 alpha_mix =  0.700 |ddv_scf|^2 =  9.158E-19

     End of self-consistent calculation

     Convergence has been achieved 


     Representation #  3 mode #   3

     Self-consistent Calculation

      iter #   1 total cpu time :   646.2 secs   av.it.:   5.5
      thresh= 1.000E-02 alpha_mix =  0.700 |ddv_scf|^2 =  9.931E-06

      iter #   2 total cpu time :   655.9 secs   av.it.:   7.7
      thresh= 3.151E-04 alpha_mix =  0.700 |ddv_scf|^2 =  1.567E-07

      iter #   3 total cpu time :   666.0 secs   av.it.:   7.8
      thresh= 3.958E-05 alpha_mix =  0.700 |ddv_scf|^2 =  8.304E-09

      iter #   4 total cpu time :   675.8 secs   av.it.:   7.6
      thresh= 9.112E-06 alpha_mix =  0.700 |ddv_scf|^2 =  2.697E-11

      iter #   5 total cpu time :   686.1 secs   av.it.:   7.8
      thresh= 5.193E-07 alpha_mix =  0.700 |ddv_scf|^2 =  2.850E-14

      iter #   6 total cpu time :   695.0 secs   av.it.:   6.9
      thresh= 1.688E-08 alpha_mix =  0.700 |ddv_scf|^2 =  1.766E-15

      iter #   7 total cpu time :   705.1 secs   av.it.:   7.8
      thresh= 4.202E-09 alpha_mix =  0.700 |ddv_scf|^2 =  1.645E-18

     End of self-consistent calculation

     Convergence has been achieved 

     Number of q in the star =   12
     List of q in the star:
          1   0.000000000  -0.333333333   0.333333333
          2  -0.333333333   0.000000000   0.333333333
          3   0.333333333   0.000000000   0.333333333
          4   0.000000000   0.333333333   0.333333333
          5   0.333333333   0.333333333   0.000000000
          6  -0.333333333   0.333333333   0.000000000
          7   0.333333333  -0.333333333   0.000000000
          8  -0.333333333  -0.333333333   0.000000000
          9  -0.333333333   0.000000000  -0.333333333
         10   0.000000000  -0.333333333  -0.333333333
         11   0.000000000   0.333333333  -0.333333333
         12   0.333333333   0.000000000  -0.333333333

     Diagonalizing the dynamical matrix

     q = (    0.000000000  -0.333333333   0.333333333 ) 

 **************************************************************************
     freq (    1) =       0.783527 [THz] =      26.135643 [cm-1]
     freq (    2) =       2.232749 [THz] =      74.476483 [cm-1]
     freq (    3) =       3.269877 [THz] =     109.071352 [cm-1]
 **************************************************************************

     Mode symmetry, C_2v (mm2)  point group:

     freq (  1 -  1) =         26.1  [cm-1]   --> B_1  D_3  S_3      
     freq (  2 -  2) =         74.5  [cm-1]   --> B_2  D_4  S_4      
     freq (  3 -  3) =        109.1  [cm-1]   --> A_1  D_1  S_1      

     Calculation of q =    0.0000000   0.5000000  -0.5000000

   Info: using nr1, nr2, nr3 values from input

   Info: using nr1, nr2, nr3 values from input

     Parallelization info
     --------------------
     sticks:   dense  smooth     PW     G-vecs:    dense   smooth      PW
     Min          71      35     13                 1553      547     122
     Max          72      36     14                 1556      550     124
     Sum        1151     571    213                24883     8781    1961



     bravais-lattice index     =            3
     lattice parameter (alat)  =       8.0100  a.u.
     unit-cell volume          =     256.9612 (a.u.)^3
     number of atoms/cell      =            1
     number of atomic types    =            1
     number of electrons       =         9.00
     number of Kohn-Sham states=            9
     kinetic-energy cutoff     =      40.0000  Ry
     charge density cutoff     =     320.0000  Ry
     Exchange-correlation      = SLA  PW   PBE  PBE ( 1  4  3  4 0 0)

     celldm(1)=   8.010000  celldm(2)=   0.000000  celldm(3)=   0.000000
     celldm(4)=   0.000000  celldm(5)=   0.000000  celldm(6)=   0.000000

     crystal axes: (cart. coord. in units of alat)
               a(1) = (   0.500000   0.500000   0.500000 )  
               a(2) = (  -0.500000   0.500000   0.500000 )  
               a(3) = (  -0.500000  -0.500000   0.500000 )  

     reciprocal axes: (cart. coord. in units 2 pi/alat)
               b(1) = (  1.000000  0.000000  1.000000 )  
               b(2) = ( -1.000000  1.000000  0.000000 )  
               b(3) = (  0.000000 -1.000000  1.000000 )  


     PseudoPot. # 1 for Na read from file:
     /home/s1333534/quantum_espresso/qe-6.1/pseudo/Na_pbe_v1.uspp.F.UPF
     MD5 check sum: 76a99c7e9422403d3e93cbc85ab7bccb
     Pseudo is Ultrasoft, Zval =  9.0
     Generated by new atomic code, or converted to UPF format
     Using radial grid of  819 points,  5 beta functions with: 
                l(1) =   0
                l(2) =   0
                l(3) =   1
                l(4) =   1
                l(5) =   2
     Q(r) pseudized with  8 coefficients,  rinner =    1.250   1.250   1.250
                                                       1.250   1.250

     atomic species   valence    mass     pseudopotential
        Na             9.00    22.99000     Na( 1.00)

     48 Sym. Ops., with inversion, found



   Cartesian axes

     site n.     atom                  positions (alat units)
         1           Na  tau(   1) = (   0.0000000   0.0000000   0.0000000  )

     number of k points=  2310  Marzari-Vanderbilt smearing, width (Ry)=  0.0200

     Number of k-points >= 100: set verbosity='high' to print them.

     Dense  grid:    24883 G-vectors     FFT dimensions: (  40,  40,  40)

     Smooth grid:     8781 G-vectors     FFT dimensions: (  27,  27,  27)

     Estimated max dynamical RAM per process >       0.85MB

     Estimated total allocated dynamical RAM >      54.67MB

     The potential is recalculated from file :
     ./_ph0/na.bcc.save/charge-density.dat

     Starting wfc are    5 atomic +    4 random wfc

     Band Structure Calculation
     Davidson diagonalization with overlap

     ethr =  1.11E-10,  avg # of iterations = 21.8

     total cpu time spent up to now is      214.1 secs

     End of band structure calculation

     Number of k-points >= 100: set verbosity='high' to print the bands.

     the Fermi energy is     1.4967 ev

     Writing output data file na.bcc.save

                                                                                

     bravais-lattice index     =            3
     lattice parameter (alat)  =       8.0100  a.u.
     unit-cell volume          =     256.9612 (a.u.)^3
     number of atoms/cell      =            1
     number of atomic types    =            1
     kinetic-energy cut-off    =      40.0000  Ry
     charge density cut-off    =     320.0000  Ry
     convergence threshold     =      1.0E-16
     beta                      =       0.7000
     number of iterations used =            4
     Exchange-correlation      = SLA  PW   PBE  PBE ( 1  4  3  4 0 0)


     celldm(1)=    8.01000  celldm(2)=    0.00000  celldm(3)=    0.00000
     celldm(4)=    0.00000  celldm(5)=    0.00000  celldm(6)=    0.00000

     crystal axes: (cart. coord. in units of alat)
               a(1) = (  0.5000  0.5000  0.5000 )  
               a(2) = ( -0.5000  0.5000  0.5000 )  
               a(3) = ( -0.5000 -0.5000  0.5000 )  

     reciprocal axes: (cart. coord. in units 2 pi/alat)
               b(1) = (  1.0000  0.0000  1.0000 )  
               b(2) = ( -1.0000  1.0000  0.0000 )  
               b(3) = (  0.0000 -1.0000  1.0000 )  


     Atoms inside the unit cell: 

     Cartesian axes

     site n.  atom      mass           positions (alat units)
        1     Na  22.9900   tau(    1) = (    0.00000    0.00000    0.00000  )

     Computing dynamical matrix for 
                    q = (   0.0000000   0.5000000  -0.5000000 )

      9 Sym.Ops. (with q -> -q+G )


     G cutoff =  520.0622  (   1556 G-vectors)     FFT grid: ( 40, 40, 40)
     G cutoff =  260.0311  (    550 G-vectors)  smooth grid: ( 27, 27, 27)

     number of k points=  2310  Marzari-Vanderbilt smearing, width (Ry)=  0.0200

     PseudoPot. # 1 for Na read from file:
     /home/s1333534/quantum_espresso/qe-6.1/pseudo/Na_pbe_v1.uspp.F.UPF
     MD5 check sum: 76a99c7e9422403d3e93cbc85ab7bccb
     Pseudo is Ultrasoft, Zval =  9.0
     Generated by new atomic code, or converted to UPF format
     Using radial grid of  819 points,  5 beta functions with: 
                l(1) =   0
                l(2) =   0
                l(3) =   1
                l(4) =   1
                l(5) =   2
     Q(r) pseudized with  8 coefficients,  rinner =    1.250   1.250   1.250
                                                       1.250   1.250

     Mode symmetry, D_2h (mmm)  point group:


     Atomic displacements:
     There are   3 irreducible representations

     Representation     1      1 modes -B_1u  To be done

     Representation     2      1 modes -B_2u  To be done

     Representation     3      1 modes -B_3u  To be done



     Alpha used in Ewald sum =   2.8000
     PHONON       : 11m39.60s CPU    12m34.18s WALL



     Representation #  1 mode #   1

     Self-consistent Calculation

      iter #   1 total cpu time :   758.9 secs   av.it.:   5.5
      thresh= 1.000E-02 alpha_mix =  0.700 |ddv_scf|^2 =  1.041E-05

      iter #   2 total cpu time :   764.5 secs   av.it.:   7.7
      thresh= 3.226E-04 alpha_mix =  0.700 |ddv_scf|^2 =  1.549E-07

      iter #   3 total cpu time :   769.9 secs   av.it.:   7.8
      thresh= 3.935E-05 alpha_mix =  0.700 |ddv_scf|^2 =  1.031E-08

      iter #   4 total cpu time :   775.0 secs   av.it.:   7.3
      thresh= 1.015E-05 alpha_mix =  0.700 |ddv_scf|^2 =  3.383E-11

      iter #   5 total cpu time :   780.3 secs   av.it.:   7.7
      thresh= 5.816E-07 alpha_mix =  0.700 |ddv_scf|^2 =  3.090E-14

      iter #   6 total cpu time :   785.3 secs   av.it.:   6.9
      thresh= 1.758E-08 alpha_mix =  0.700 |ddv_scf|^2 =  2.051E-15

      iter #   7 total cpu time :   790.4 secs   av.it.:   7.5
      thresh= 4.529E-09 alpha_mix =  0.700 |ddv_scf|^2 =  1.634E-18

     End of self-consistent calculation

     Convergence has been achieved 


     Representation #  2 mode #   2

     Self-consistent Calculation

      iter #   1 total cpu time :   795.3 secs   av.it.:   5.5
      thresh= 1.000E-02 alpha_mix =  0.700 |ddv_scf|^2 =  9.158E-06

      iter #   2 total cpu time :   800.5 secs   av.it.:   7.7
      thresh= 3.026E-04 alpha_mix =  0.700 |ddv_scf|^2 =  1.544E-07

      iter #   3 total cpu time :   806.1 secs   av.it.:   7.9
      thresh= 3.930E-05 alpha_mix =  0.700 |ddv_scf|^2 =  5.341E-09

      iter #   4 total cpu time :   811.1 secs   av.it.:   7.3
      thresh= 7.308E-06 alpha_mix =  0.700 |ddv_scf|^2 =  1.662E-11

      iter #   5 total cpu time :   816.4 secs   av.it.:   7.7
      thresh= 4.077E-07 alpha_mix =  0.700 |ddv_scf|^2 =  1.875E-14

      iter #   6 total cpu time :   821.3 secs   av.it.:   7.0
      thresh= 1.369E-08 alpha_mix =  0.700 |ddv_scf|^2 =  7.214E-16

      iter #   7 total cpu time :   826.6 secs   av.it.:   7.6
      thresh= 2.686E-09 alpha_mix =  0.700 |ddv_scf|^2 =  5.509E-19

     End of self-consistent calculation

     Convergence has been achieved 


     Representation #  3 mode #   3

     Self-consistent Calculation

      iter #   1 total cpu time :   831.5 secs   av.it.:   5.6
      thresh= 1.000E-02 alpha_mix =  0.700 |ddv_scf|^2 =  7.573E-05

      iter #   2 total cpu time :   836.4 secs   av.it.:   6.9
      thresh= 8.702E-04 alpha_mix =  0.700 |ddv_scf|^2 =  3.893E-05

      iter #   3 total cpu time :   841.1 secs   av.it.:   6.6
      thresh= 6.240E-04 alpha_mix =  0.700 |ddv_scf|^2 =  6.138E-08

      iter #   4 total cpu time :   846.5 secs   av.it.:   7.8
      thresh= 2.477E-05 alpha_mix =  0.700 |ddv_scf|^2 =  2.338E-10

      iter #   5 total cpu time :   851.3 secs   av.it.:   6.8
      thresh= 1.529E-06 alpha_mix =  0.700 |ddv_scf|^2 =  3.900E-12

      iter #   6 total cpu time :   856.1 secs   av.it.:   6.8
      thresh= 1.975E-07 alpha_mix =  0.700 |ddv_scf|^2 =  1.481E-14

      iter #   7 total cpu time :   861.5 secs   av.it.:   7.4
      thresh= 1.217E-08 alpha_mix =  0.700 |ddv_scf|^2 =  5.113E-17

     End of self-consistent calculation

     Convergence has been achieved 

     Number of q in the star =    6
     List of q in the star:
          1   0.000000000   0.500000000  -0.500000000
          2  -0.500000000  -0.500000000   0.000000000
          3   0.500000000  -0.500000000   0.000000000
          4   0.500000000   0.000000000   0.500000000
          5   0.000000000  -0.500000000  -0.500000000
          6   0.500000000   0.000000000  -0.500000000

     Diagonalizing the dynamical matrix

     q = (    0.000000000   0.500000000  -0.500000000 ) 

 **************************************************************************
     freq (    1) =       0.889085 [THz] =      29.656699 [cm-1]
     freq (    2) =       2.577683 [THz] =      85.982239 [cm-1]
     freq (    3) =       3.754434 [THz] =     125.234427 [cm-1]
 **************************************************************************

     Mode symmetry, D_2h (mmm)  point group:

     freq (  1 -  1) =         29.7  [cm-1]   --> B_2u               
     freq (  2 -  2) =         86.0  [cm-1]   --> B_1u               
     freq (  3 -  3) =        125.2  [cm-1]   --> B_3u               

     Calculation of q =   -0.1666667  -0.1666667   0.3333333

   Info: using nr1, nr2, nr3 values from input

   Info: using nr1, nr2, nr3 values from input

     Parallelization info
     --------------------
     sticks:   dense  smooth     PW     G-vecs:    dense   smooth      PW
     Min          71      35     12                 1553      547     108
     Max          72      36     13                 1556      550     110
     Sum        1151     571    201                24883     8781    1745



     bravais-lattice index     =            3
     lattice parameter (alat)  =       8.0100  a.u.
     unit-cell volume          =     256.9612 (a.u.)^3
     number of atoms/cell      =            1
     number of atomic types    =            1
     number of electrons       =         9.00
     number of Kohn-Sham states=            9
     kinetic-energy cutoff     =      40.0000  Ry
     charge density cutoff     =     320.0000  Ry
     Exchange-correlation      = SLA  PW   PBE  PBE ( 1  4  3  4 0 0)

     celldm(1)=   8.010000  celldm(2)=   0.000000  celldm(3)=   0.000000
     celldm(4)=   0.000000  celldm(5)=   0.000000  celldm(6)=   0.000000

     crystal axes: (cart. coord. in units of alat)
               a(1) = (   0.500000   0.500000   0.500000 )  
               a(2) = (  -0.500000   0.500000   0.500000 )  
               a(3) = (  -0.500000  -0.500000   0.500000 )  

     reciprocal axes: (cart. coord. in units 2 pi/alat)
               b(1) = (  1.000000  0.000000  1.000000 )  
               b(2) = ( -1.000000  1.000000  0.000000 )  
               b(3) = (  0.000000 -1.000000  1.000000 )  


     PseudoPot. # 1 for Na read from file:
     /home/s1333534/quantum_espresso/qe-6.1/pseudo/Na_pbe_v1.uspp.F.UPF
     MD5 check sum: 76a99c7e9422403d3e93cbc85ab7bccb
     Pseudo is Ultrasoft, Zval =  9.0
     Generated by new atomic code, or converted to UPF format
     Using radial grid of  819 points,  5 beta functions with: 
                l(1) =   0
                l(2) =   0
                l(3) =   1
                l(4) =   1
                l(5) =   2
     Q(r) pseudized with  8 coefficients,  rinner =    1.250   1.250   1.250
                                                       1.250   1.250

     atomic species   valence    mass     pseudopotential
        Na             9.00    22.99000     Na( 1.00)

     48 Sym. Ops., with inversion, found



   Cartesian axes

     site n.     atom                  positions (alat units)
         1           Na  tau(   1) = (   0.0000000   0.0000000   0.0000000  )

     number of k points=  8400  Marzari-Vanderbilt smearing, width (Ry)=  0.0200

     Number of k-points >= 100: set verbosity='high' to print them.

     Dense  grid:    24883 G-vectors     FFT dimensions: (  40,  40,  40)

     Smooth grid:     8781 G-vectors     FFT dimensions: (  27,  27,  27)

     Estimated max dynamical RAM per process >       0.85MB

     Estimated total allocated dynamical RAM >      54.67MB

     The potential is recalculated from file :
     ./_ph0/na.bcc.save/charge-density.dat

     Starting wfc are    5 atomic +    4 random wfc

     Band Structure Calculation
     Davidson diagonalization with overlap

     ethr =  1.11E-10,  avg # of iterations = 21.7

     total cpu time spent up to now is      362.7 secs

     End of band structure calculation

     Number of k-points >= 100: set verbosity='high' to print the bands.

     the Fermi energy is     1.4967 ev

     Writing output data file na.bcc.save

                                                                                

     bravais-lattice index     =            3
     lattice parameter (alat)  =       8.0100  a.u.
     unit-cell volume          =     256.9612 (a.u.)^3
     number of atoms/cell      =            1
     number of atomic types    =            1
     kinetic-energy cut-off    =      40.0000  Ry
     charge density cut-off    =     320.0000  Ry
     convergence threshold     =      1.0E-16
     beta                      =       0.7000
     number of iterations used =            4
     Exchange-correlation      = SLA  PW   PBE  PBE ( 1  4  3  4 0 0)


     celldm(1)=    8.01000  celldm(2)=    0.00000  celldm(3)=    0.00000
     celldm(4)=    0.00000  celldm(5)=    0.00000  celldm(6)=    0.00000

     crystal axes: (cart. coord. in units of alat)
               a(1) = (  0.5000  0.5000  0.5000 )  
               a(2) = ( -0.5000  0.5000  0.5000 )  
               a(3) = ( -0.5000 -0.5000  0.5000 )  

     reciprocal axes: (cart. coord. in units 2 pi/alat)
               b(1) = (  1.0000  0.0000  1.0000 )  
               b(2) = ( -1.0000  1.0000  0.0000 )  
               b(3) = (  0.0000 -1.0000  1.0000 )  


     Atoms inside the unit cell: 

     Cartesian axes

     site n.  atom      mass           positions (alat units)
        1     Na  22.9900   tau(    1) = (    0.00000    0.00000    0.00000  )

     Computing dynamical matrix for 
                    q = (  -0.1666667  -0.1666667   0.3333333 )

      2 Sym.Ops. (no q -> -q+G )


     G cutoff =  520.0622  (   1556 G-vectors)     FFT grid: ( 40, 40, 40)
     G cutoff =  260.0311  (    550 G-vectors)  smooth grid: ( 27, 27, 27)

     number of k points=  8400  Marzari-Vanderbilt smearing, width (Ry)=  0.0200

     PseudoPot. # 1 for Na read from file:
     /home/s1333534/quantum_espresso/qe-6.1/pseudo/Na_pbe_v1.uspp.F.UPF
     MD5 check sum: 76a99c7e9422403d3e93cbc85ab7bccb
     Pseudo is Ultrasoft, Zval =  9.0
     Generated by new atomic code, or converted to UPF format
     Using radial grid of  819 points,  5 beta functions with: 
                l(1) =   0
                l(2) =   0
                l(3) =   1
                l(4) =   1
                l(5) =   2
     Q(r) pseudized with  8 coefficients,  rinner =    1.250   1.250   1.250
                                                       1.250   1.250

     Mode symmetry, C_s (m)     point group:


     Atomic displacements:
     There are   3 irreducible representations

     Representation     1      1 modes -A'  To be done

     Representation     2      1 modes -A'  To be done

     Representation     3      1 modes -A''  To be done



     Alpha used in Ewald sum =   2.8000
     PHONON       : 16m 2.48s CPU    17m15.09s WALL



     Representation #  1 mode #   1

     Self-consistent Calculation

      iter #   1 total cpu time :  1051.9 secs   av.it.:   5.6
      thresh= 1.000E-02 alpha_mix =  0.700 |ddv_scf|^2 =  9.392E-05

      iter #   2 total cpu time :  1070.3 secs   av.it.:   7.3
      thresh= 9.691E-04 alpha_mix =  0.700 |ddv_scf|^2 =  1.053E-03

      iter #   3 total cpu time :  1084.7 secs   av.it.:   5.4
      thresh= 3.246E-03 alpha_mix =  0.700 |ddv_scf|^2 =  1.380E-07

      iter #   4 total cpu time :  1104.4 secs   av.it.:   8.3
      thresh= 3.715E-05 alpha_mix =  0.700 |ddv_scf|^2 =  5.824E-09

      iter #   5 total cpu time :  1123.4 secs   av.it.:   7.9
      thresh= 7.632E-06 alpha_mix =  0.700 |ddv_scf|^2 =  1.507E-10

      iter #   6 total cpu time :  1143.0 secs   av.it.:   8.3
      thresh= 1.228E-06 alpha_mix =  0.700 |ddv_scf|^2 =  1.367E-11

      iter #   7 total cpu time :  1162.4 secs   av.it.:   8.2
      thresh= 3.697E-07 alpha_mix =  0.700 |ddv_scf|^2 =  1.271E-11

      iter #   8 total cpu time :  1180.2 secs   av.it.:   7.5
      thresh= 3.565E-07 alpha_mix =  0.700 |ddv_scf|^2 =  2.651E-11

      iter #   9 total cpu time :  1197.2 secs   av.it.:   6.9
      thresh= 5.149E-07 alpha_mix =  0.700 |ddv_scf|^2 =  8.323E-13

      iter #  10 total cpu time :  1214.4 secs   av.it.:   7.0
      thresh= 9.123E-08 alpha_mix =  0.700 |ddv_scf|^2 =  3.034E-15

      iter #  11 total cpu time :  1234.0 secs   av.it.:   8.4
      thresh= 5.508E-09 alpha_mix =  0.700 |ddv_scf|^2 =  1.462E-16

      iter #  12 total cpu time :  1252.2 secs   av.it.:   7.8
      thresh= 1.209E-09 alpha_mix =  0.700 |ddv_scf|^2 =  8.557E-18

     End of self-consistent calculation

     Convergence has been achieved 


     Representation #  2 mode #   2

     Self-consistent Calculation

      iter #   1 total cpu time :  1269.7 secs   av.it.:   5.8
      thresh= 1.000E-02 alpha_mix =  0.700 |ddv_scf|^2 =  7.659E-04

      iter #   2 total cpu time :  1286.5 secs   av.it.:   6.7
      thresh= 2.768E-03 alpha_mix =  0.700 |ddv_scf|^2 =  9.394E-03

      iter #   3 total cpu time :  1300.8 secs   av.it.:   5.4
      thresh= 9.692E-03 alpha_mix =  0.700 |ddv_scf|^2 =  7.938E-07

      iter #   4 total cpu time :  1319.2 secs   av.it.:   7.7
      thresh= 8.909E-05 alpha_mix =  0.700 |ddv_scf|^2 =  6.426E-09

      iter #   5 total cpu time :  1338.7 secs   av.it.:   8.3
      thresh= 8.016E-06 alpha_mix =  0.700 |ddv_scf|^2 =  4.888E-10

      iter #   6 total cpu time :  1358.4 secs   av.it.:   8.3
      thresh= 2.211E-06 alpha_mix =  0.700 |ddv_scf|^2 =  2.555E-11

      iter #   7 total cpu time :  1377.7 secs   av.it.:   8.2
      thresh= 5.055E-07 alpha_mix =  0.700 |ddv_scf|^2 =  7.016E-11

      iter #   8 total cpu time :  1393.7 secs   av.it.:   6.3
      thresh= 8.376E-07 alpha_mix =  0.700 |ddv_scf|^2 =  1.894E-12

      iter #   9 total cpu time :  1412.1 secs   av.it.:   7.5
      thresh= 1.376E-07 alpha_mix =  0.700 |ddv_scf|^2 =  8.794E-13

      iter #  10 total cpu time :  1429.3 secs   av.it.:   7.0
      thresh= 9.378E-08 alpha_mix =  0.700 |ddv_scf|^2 =  1.370E-14

      iter #  11 total cpu time :  1448.8 secs   av.it.:   8.3
      thresh= 1.171E-08 alpha_mix =  0.700 |ddv_scf|^2 =  1.805E-16

      iter #  12 total cpu time :  1467.7 secs   av.it.:   7.8
      thresh= 1.344E-09 alpha_mix =  0.700 |ddv_scf|^2 =  8.993E-18

     End of self-consistent calculation

     Convergence has been achieved 


     Representation #  3 mode #   3

     Self-consistent Calculation

      iter #   1 total cpu time :  1484.8 secs   av.it.:   5.5
      thresh= 1.000E-02 alpha_mix =  0.700 |ddv_scf|^2 =  1.044E-05

      iter #   2 total cpu time :  1503.8 secs   av.it.:   7.8
      thresh= 3.231E-04 alpha_mix =  0.700 |ddv_scf|^2 =  1.515E-07

      iter #   3 total cpu time :  1523.3 secs   av.it.:   8.0
      thresh= 3.893E-05 alpha_mix =  0.700 |ddv_scf|^2 =  8.611E-09

      iter #   4 total cpu time :  1541.9 secs   av.it.:   7.7
      thresh= 9.280E-06 alpha_mix =  0.700 |ddv_scf|^2 =  6.732E-11

      iter #   5 total cpu time :  1560.3 secs   av.it.:   7.6
      thresh= 8.205E-07 alpha_mix =  0.700 |ddv_scf|^2 =  5.746E-14

      iter #   6 total cpu time :  1578.2 secs   av.it.:   7.5
      thresh= 2.397E-08 alpha_mix =  0.700 |ddv_scf|^2 =  2.934E-15

      iter #   7 total cpu time :  1596.4 secs   av.it.:   7.4
      thresh= 5.416E-09 alpha_mix =  0.700 |ddv_scf|^2 =  1.014E-17

     End of self-consistent calculation

     Convergence has been achieved 

     Number of q in the star =   24
     List of q in the star:
          1  -0.166666667  -0.166666667   0.333333333
          2  -0.166666667  -0.333333333   0.166666667
          3   0.166666667  -0.333333333   0.166666667
          4  -0.166666667   0.333333333  -0.166666667
          5   0.166666667   0.333333333  -0.166666667
          6   0.166666667   0.166666667  -0.333333333
          7  -0.166666667   0.166666667  -0.333333333
          8   0.333333333   0.166666667  -0.166666667
          9  -0.333333333   0.166666667   0.166666667
         10   0.333333333  -0.166666667   0.166666667
         11  -0.333333333  -0.166666667  -0.166666667
         12  -0.166666667  -0.166666667  -0.333333333
         13  -0.166666667   0.333333333   0.166666667
         14  -0.166666667  -0.333333333  -0.166666667
         15  -0.166666667   0.166666667   0.333333333
         16   0.166666667  -0.166666667   0.333333333
         17   0.166666667  -0.333333333  -0.166666667
         18  -0.333333333   0.166666667  -0.166666667
         19   0.333333333   0.166666667   0.166666667
         20  -0.333333333  -0.166666667   0.166666667
         21   0.333333333  -0.166666667  -0.166666667
         22   0.166666667  -0.166666667  -0.333333333
         23   0.166666667   0.166666667   0.333333333
         24   0.166666667   0.333333333   0.166666667

     Diagonalizing the dynamical matrix

     q = (   -0.166666667  -0.166666667   0.333333333 ) 

 **************************************************************************
     freq (    1) =       1.221899 [THz] =      40.758153 [cm-1]
     freq (    2) =       1.927164 [THz] =      64.283258 [cm-1]
     freq (    3) =       2.954710 [THz] =      98.558524 [cm-1]
 **************************************************************************

     Mode symmetry, C_s (m)     point group:

     freq (  1 -  1) =         40.8  [cm-1]   --> A'                 
     freq (  2 -  2) =         64.3  [cm-1]   --> A''                
     freq (  3 -  3) =         98.6  [cm-1]   --> A'                 

     Calculation of q =   -0.1666667   0.6666667  -0.5000000

   Info: using nr1, nr2, nr3 values from input

   Info: using nr1, nr2, nr3 values from input

     Parallelization info
     --------------------
     sticks:   dense  smooth     PW     G-vecs:    dense   smooth      PW
     Min          71      35     13                 1553      547     123
     Max          72      36     14                 1556      550     125
     Sum        1151     571    217                24883     8781    1985



     bravais-lattice index     =            3
     lattice parameter (alat)  =       8.0100  a.u.
     unit-cell volume          =     256.9612 (a.u.)^3
     number of atoms/cell      =            1
     number of atomic types    =            1
     number of electrons       =         9.00
     number of Kohn-Sham states=            9
     kinetic-energy cutoff     =      40.0000  Ry
     charge density cutoff     =     320.0000  Ry
     Exchange-correlation      = SLA  PW   PBE  PBE ( 1  4  3  4 0 0)

     celldm(1)=   8.010000  celldm(2)=   0.000000  celldm(3)=   0.000000
     celldm(4)=   0.000000  celldm(5)=   0.000000  celldm(6)=   0.000000

     crystal axes: (cart. coord. in units of alat)
               a(1) = (   0.500000   0.500000   0.500000 )  
               a(2) = (  -0.500000   0.500000   0.500000 )  
               a(3) = (  -0.500000  -0.500000   0.500000 )  

     reciprocal axes: (cart. coord. in units 2 pi/alat)
               b(1) = (  1.000000  0.000000  1.000000 )  
               b(2) = ( -1.000000  1.000000  0.000000 )  
               b(3) = (  0.000000 -1.000000  1.000000 )  


     PseudoPot. # 1 for Na read from file:
     /home/s1333534/quantum_espresso/qe-6.1/pseudo/Na_pbe_v1.uspp.F.UPF
     MD5 check sum: 76a99c7e9422403d3e93cbc85ab7bccb
     Pseudo is Ultrasoft, Zval =  9.0
     Generated by new atomic code, or converted to UPF format
     Using radial grid of  819 points,  5 beta functions with: 
                l(1) =   0
                l(2) =   0
                l(3) =   1
                l(4) =   1
                l(5) =   2
     Q(r) pseudized with  8 coefficients,  rinner =    1.250   1.250   1.250
                                                       1.250   1.250

     atomic species   valence    mass     pseudopotential
        Na             9.00    22.99000     Na( 1.00)

     48 Sym. Ops., with inversion, found



   Cartesian axes

     site n.     atom                  positions (alat units)
         1           Na  tau(   1) = (   0.0000000   0.0000000   0.0000000  )

     number of k points= 16000  Marzari-Vanderbilt smearing, width (Ry)=  0.0200

     Number of k-points >= 100: set verbosity='high' to print them.

     Dense  grid:    24883 G-vectors     FFT dimensions: (  40,  40,  40)

     Smooth grid:     8781 G-vectors     FFT dimensions: (  27,  27,  27)

     Estimated max dynamical RAM per process >       0.85MB

     Estimated total allocated dynamical RAM >      54.67MB

     The potential is recalculated from file :
     ./_ph0/na.bcc.save/charge-density.dat

     Starting wfc are    5 atomic +    4 random wfc

     Band Structure Calculation
     Davidson diagonalization with overlap

     ethr =  1.11E-10,  avg # of iterations = 21.6

     total cpu time spent up to now is      658.2 secs

     End of band structure calculation

     Number of k-points >= 100: set verbosity='high' to print the bands.

     the Fermi energy is     1.4967 ev

     Writing output data file na.bcc.save

                                                                                

     bravais-lattice index     =            3
     lattice parameter (alat)  =       8.0100  a.u.
     unit-cell volume          =     256.9612 (a.u.)^3
     number of atoms/cell      =            1
     number of atomic types    =            1
     kinetic-energy cut-off    =      40.0000  Ry
     charge density cut-off    =     320.0000  Ry
     convergence threshold     =      1.0E-16
     beta                      =       0.7000
     number of iterations used =            4
     Exchange-correlation      = SLA  PW   PBE  PBE ( 1  4  3  4 0 0)


     celldm(1)=    8.01000  celldm(2)=    0.00000  celldm(3)=    0.00000
     celldm(4)=    0.00000  celldm(5)=    0.00000  celldm(6)=    0.00000

     crystal axes: (cart. coord. in units of alat)
               a(1) = (  0.5000  0.5000  0.5000 )  
               a(2) = ( -0.5000  0.5000  0.5000 )  
               a(3) = ( -0.5000 -0.5000  0.5000 )  

     reciprocal axes: (cart. coord. in units 2 pi/alat)
               b(1) = (  1.0000  0.0000  1.0000 )  
               b(2) = ( -1.0000  1.0000  0.0000 )  
               b(3) = (  0.0000 -1.0000  1.0000 )  


     Atoms inside the unit cell: 

     Cartesian axes

     site n.  atom      mass           positions (alat units)
        1     Na  22.9900   tau(    1) = (    0.00000    0.00000    0.00000  )

     Computing dynamical matrix for 
                    q = (  -0.1666667   0.6666667  -0.5000000 )

     No symmetry!

     G cutoff =  520.0622  (   1556 G-vectors)     FFT grid: ( 40, 40, 40)
     G cutoff =  260.0311  (    550 G-vectors)  smooth grid: ( 27, 27, 27)

     number of k points= 16000  Marzari-Vanderbilt smearing, width (Ry)=  0.0200

     PseudoPot. # 1 for Na read from file:
     /home/s1333534/quantum_espresso/qe-6.1/pseudo/Na_pbe_v1.uspp.F.UPF
     MD5 check sum: 76a99c7e9422403d3e93cbc85ab7bccb
     Pseudo is Ultrasoft, Zval =  9.0
     Generated by new atomic code, or converted to UPF format
     Using radial grid of  819 points,  5 beta functions with: 
                l(1) =   0
                l(2) =   0
                l(3) =   1
                l(4) =   1
                l(5) =   2
     Q(r) pseudized with  8 coefficients,  rinner =    1.250   1.250   1.250
                                                       1.250   1.250

     Mode symmetry, C_1 (1)     point group:


     Atomic displacements:
     There are   3 irreducible representations

     Representation     1      1 modes -A  To be done

     Representation     2      1 modes -A  To be done

     Representation     3      1 modes -A  To be done



     Alpha used in Ewald sum =   2.8000
     PHONON       : 29m51.70s CPU    32m 8.88s WALL



     Representation #  1 mode #   1

     Self-consistent Calculation

      iter #   1 total cpu time :  1961.6 secs   av.it.:   5.7
      thresh= 1.000E-02 alpha_mix =  0.700 |ddv_scf|^2 =  1.138E-05

      iter #   2 total cpu time :  1999.0 secs   av.it.:   8.1
      thresh= 3.373E-04 alpha_mix =  0.700 |ddv_scf|^2 =  1.390E-06

      iter #   3 total cpu time :  2034.6 secs   av.it.:   7.6
      thresh= 1.179E-04 alpha_mix =  0.700 |ddv_scf|^2 =  6.836E-07

      iter #   4 total cpu time :  2069.3 secs   av.it.:   7.3
      thresh= 8.268E-05 alpha_mix =  0.700 |ddv_scf|^2 =  4.725E-09

      iter #   5 total cpu time :  2105.8 secs   av.it.:   7.9
      thresh= 6.874E-06 alpha_mix =  0.700 |ddv_scf|^2 =  3.869E-10

      iter #   6 total cpu time :  2142.6 secs   av.it.:   7.9
      thresh= 1.967E-06 alpha_mix =  0.700 |ddv_scf|^2 =  4.157E-12

      iter #   7 total cpu time :  2181.5 secs   av.it.:   8.4
      thresh= 2.039E-07 alpha_mix =  0.700 |ddv_scf|^2 =  2.514E-13

      iter #   8 total cpu time :  2220.8 secs   av.it.:   8.5
      thresh= 5.014E-08 alpha_mix =  0.700 |ddv_scf|^2 =  1.322E-14

      iter #   9 total cpu time :  2259.2 secs   av.it.:   8.5
      thresh= 1.150E-08 alpha_mix =  0.700 |ddv_scf|^2 =  2.133E-16

      iter #  10 total cpu time :  2295.9 secs   av.it.:   7.9
      thresh= 1.461E-09 alpha_mix =  0.700 |ddv_scf|^2 =  1.293E-16

      iter #  11 total cpu time :  2330.6 secs   av.it.:   7.2
      thresh= 1.137E-09 alpha_mix =  0.700 |ddv_scf|^2 =  2.432E-18

     End of self-consistent calculation

     Convergence has been achieved 


     Representation #  2 mode #   2

     Self-consistent Calculation

      iter #   1 total cpu time :  2364.3 secs   av.it.:   5.7
      thresh= 1.000E-02 alpha_mix =  0.700 |ddv_scf|^2 =  4.670E-05

      iter #   2 total cpu time :  2400.3 secs   av.it.:   7.7
      thresh= 6.834E-04 alpha_mix =  0.700 |ddv_scf|^2 =  4.285E-05

      iter #   3 total cpu time :  2433.8 secs   av.it.:   6.9
      thresh= 6.546E-04 alpha_mix =  0.700 |ddv_scf|^2 =  9.723E-08

      iter #   4 total cpu time :  2471.8 secs   av.it.:   8.3
      thresh= 3.118E-05 alpha_mix =  0.700 |ddv_scf|^2 =  4.004E-09

      iter #   5 total cpu time :  2509.7 secs   av.it.:   8.3
      thresh= 6.328E-06 alpha_mix =  0.700 |ddv_scf|^2 =  3.042E-10

      iter #   6 total cpu time :  2548.1 secs   av.it.:   8.3
      thresh= 1.744E-06 alpha_mix =  0.700 |ddv_scf|^2 =  9.851E-12

      iter #   7 total cpu time :  2585.7 secs   av.it.:   8.0
      thresh= 3.139E-07 alpha_mix =  0.700 |ddv_scf|^2 =  4.969E-13

      iter #   8 total cpu time :  2622.7 secs   av.it.:   7.8
      thresh= 7.049E-08 alpha_mix =  0.700 |ddv_scf|^2 =  1.008E-14

      iter #   9 total cpu time :  2659.0 secs   av.it.:   7.7
      thresh= 1.004E-08 alpha_mix =  0.700 |ddv_scf|^2 =  1.455E-15

      iter #  10 total cpu time :  2694.2 secs   av.it.:   7.4
      thresh= 3.814E-09 alpha_mix =  0.700 |ddv_scf|^2 =  5.121E-17

     End of self-consistent calculation

     Convergence has been achieved 


     Representation #  3 mode #   3

     Self-consistent Calculation

      iter #   1 total cpu time :  2728.1 secs   av.it.:   5.7
      thresh= 1.000E-02 alpha_mix =  0.700 |ddv_scf|^2 =  5.211E-05

      iter #   2 total cpu time :  2764.1 secs   av.it.:   7.6
      thresh= 7.219E-04 alpha_mix =  0.700 |ddv_scf|^2 =  4.295E-05

      iter #   3 total cpu time :  2797.4 secs   av.it.:   6.9
      thresh= 6.554E-04 alpha_mix =  0.700 |ddv_scf|^2 =  3.260E-07

      iter #   4 total cpu time :  2834.0 secs   av.it.:   7.7
      thresh= 5.709E-05 alpha_mix =  0.700 |ddv_scf|^2 =  7.475E-09

      iter #   5 total cpu time :  2872.5 secs   av.it.:   8.3
      thresh= 8.646E-06 alpha_mix =  0.700 |ddv_scf|^2 =  2.161E-10

      iter #   6 total cpu time :  2910.7 secs   av.it.:   8.3
      thresh= 1.470E-06 alpha_mix =  0.700 |ddv_scf|^2 =  1.471E-11

      iter #   7 total cpu time :  2948.7 secs   av.it.:   8.3
      thresh= 3.836E-07 alpha_mix =  0.700 |ddv_scf|^2 =  8.358E-13

      iter #   8 total cpu time :  2987.7 secs   av.it.:   8.5
      thresh= 9.142E-08 alpha_mix =  0.700 |ddv_scf|^2 =  5.469E-14

      iter #   9 total cpu time :  3023.6 secs   av.it.:   7.5
      thresh= 2.339E-08 alpha_mix =  0.700 |ddv_scf|^2 =  4.479E-15

      iter #  10 total cpu time :  3059.7 secs   av.it.:   7.7
      thresh= 6.692E-09 alpha_mix =  0.700 |ddv_scf|^2 =  6.598E-17

     End of self-consistent calculation

     Convergence has been achieved 

     Number of q in the star =   48
     List of q in the star:
          1  -0.166666667   0.666666667  -0.500000000
          2   0.666666667  -0.166666667  -0.500000000
          3  -0.166666667   0.500000000  -0.666666667
          4   0.166666667   0.500000000  -0.666666667
          5  -0.166666667  -0.500000000   0.666666667
          6   0.166666667  -0.500000000   0.666666667
          7   0.166666667  -0.666666667   0.500000000
          8  -0.166666667  -0.666666667   0.500000000
          9  -0.500000000  -0.666666667  -0.166666667
         10   0.500000000  -0.666666667   0.166666667
         11  -0.500000000   0.666666667   0.166666667
         12   0.500000000   0.666666667  -0.166666667
         13   0.666666667  -0.166666667   0.500000000
         14   0.666666667  -0.500000000  -0.166666667
         15  -0.166666667  -0.500000000  -0.666666667
         16  -0.166666667   0.500000000   0.666666667
         17   0.666666667   0.166666667  -0.500000000
         18   0.166666667   0.666666667  -0.500000000
         19   0.666666667   0.500000000   0.166666667
         20  -0.666666667   0.500000000  -0.166666667
         21   0.500000000   0.166666667   0.666666667
         22  -0.500000000   0.166666667  -0.666666667
         23   0.500000000   0.666666667   0.166666667
         24   0.500000000  -0.166666667  -0.666666667
         25  -0.666666667   0.166666667   0.500000000
         26  -0.166666667   0.666666667   0.500000000
         27  -0.500000000  -0.166666667   0.666666667
         28   0.166666667   0.666666667   0.500000000
         29  -0.500000000   0.666666667  -0.166666667
         30  -0.666666667  -0.166666667  -0.500000000
         31  -0.666666667  -0.166666667   0.500000000
         32   0.666666667   0.166666667   0.500000000
         33   0.166666667  -0.666666667  -0.500000000
         34  -0.666666667   0.166666667  -0.500000000
         35   0.500000000  -0.666666667  -0.166666667
         36  -0.500000000  -0.666666667   0.166666667
         37  -0.166666667  -0.666666667  -0.500000000
         38  -0.666666667  -0.500000000   0.166666667
         39   0.166666667   0.500000000   0.666666667
         40   0.166666667  -0.500000000  -0.666666667
         41  -0.666666667   0.500000000   0.166666667
         42   0.666666667   0.500000000  -0.166666667
         43  -0.666666667  -0.500000000  -0.166666667
         44   0.666666667  -0.500000000   0.166666667
         45   0.500000000   0.166666667  -0.666666667
         46   0.500000000  -0.166666667   0.666666667
         47  -0.500000000  -0.166666667  -0.666666667
         48  -0.500000000   0.166666667   0.666666667

     Diagonalizing the dynamical matrix

     q = (   -0.166666667   0.666666667  -0.500000000 ) 

 **************************************************************************
     freq (    1) =       1.465930 [THz] =      48.898163 [cm-1]
     freq (    2) =       2.677625 [THz] =      89.315943 [cm-1]
     freq (    3) =       3.586341 [THz] =     119.627467 [cm-1]
 **************************************************************************

     Mode symmetry, C_1 (1)     point group:

     freq (  1 -  1) =         48.9  [cm-1]   --> A                  
     freq (  2 -  2) =         89.3  [cm-1]   --> A                  
     freq (  3 -  3) =        119.6  [cm-1]   --> A                  

     Calculation of q =   -0.3333333   0.6666667  -0.3333333

   Info: using nr1, nr2, nr3 values from input

   Info: using nr1, nr2, nr3 values from input

     Parallelization info
     --------------------
     sticks:   dense  smooth     PW     G-vecs:    dense   smooth      PW
     Min          71      35     13                 1553      547     123
     Max          72      36     14                 1556      550     125
     Sum        1151     571    217                24883     8781    1985



     bravais-lattice index     =            3
     lattice parameter (alat)  =       8.0100  a.u.
     unit-cell volume          =     256.9612 (a.u.)^3
     number of atoms/cell      =            1
     number of atomic types    =            1
     number of electrons       =         9.00
     number of Kohn-Sham states=            9
     kinetic-energy cutoff     =      40.0000  Ry
     charge density cutoff     =     320.0000  Ry
     Exchange-correlation      = SLA  PW   PBE  PBE ( 1  4  3  4 0 0)

     celldm(1)=   8.010000  celldm(2)=   0.000000  celldm(3)=   0.000000
     celldm(4)=   0.000000  celldm(5)=   0.000000  celldm(6)=   0.000000

     crystal axes: (cart. coord. in units of alat)
               a(1) = (   0.500000   0.500000   0.500000 )  
               a(2) = (  -0.500000   0.500000   0.500000 )  
               a(3) = (  -0.500000  -0.500000   0.500000 )  

     reciprocal axes: (cart. coord. in units 2 pi/alat)
               b(1) = (  1.000000  0.000000  1.000000 )  
               b(2) = ( -1.000000  1.000000  0.000000 )  
               b(3) = (  0.000000 -1.000000  1.000000 )  


     PseudoPot. # 1 for Na read from file:
     /home/s1333534/quantum_espresso/qe-6.1/pseudo/Na_pbe_v1.uspp.F.UPF
     MD5 check sum: 76a99c7e9422403d3e93cbc85ab7bccb
     Pseudo is Ultrasoft, Zval =  9.0
     Generated by new atomic code, or converted to UPF format
     Using radial grid of  819 points,  5 beta functions with: 
                l(1) =   0
                l(2) =   0
                l(3) =   1
                l(4) =   1
                l(5) =   2
     Q(r) pseudized with  8 coefficients,  rinner =    1.250   1.250   1.250
                                                       1.250   1.250

     atomic species   valence    mass     pseudopotential
        Na             9.00    22.99000     Na( 1.00)

     48 Sym. Ops., with inversion, found



   Cartesian axes

     site n.     atom                  positions (alat units)
         1           Na  tau(   1) = (   0.0000000   0.0000000   0.0000000  )

     number of k points=  3080  Marzari-Vanderbilt smearing, width (Ry)=  0.0200

     Number of k-points >= 100: set verbosity='high' to print them.

     Dense  grid:    24883 G-vectors     FFT dimensions: (  40,  40,  40)

     Smooth grid:     8781 G-vectors     FFT dimensions: (  27,  27,  27)

     Estimated max dynamical RAM per process >       0.85MB

     Estimated total allocated dynamical RAM >      54.67MB

     The potential is recalculated from file :
     ./_ph0/na.bcc.save/charge-density.dat

     Starting wfc are    5 atomic +    4 random wfc

     Band Structure Calculation
     Davidson diagonalization with overlap

     ethr =  1.11E-10,  avg # of iterations = 21.9

     total cpu time spent up to now is      758.7 secs

     End of band structure calculation

     Number of k-points >= 100: set verbosity='high' to print the bands.

     the Fermi energy is     1.4967 ev

     Writing output data file na.bcc.save

                                                                                

     bravais-lattice index     =            3
     lattice parameter (alat)  =       8.0100  a.u.
     unit-cell volume          =     256.9612 (a.u.)^3
     number of atoms/cell      =            1
     number of atomic types    =            1
     kinetic-energy cut-off    =      40.0000  Ry
     charge density cut-off    =     320.0000  Ry
     convergence threshold     =      1.0E-16
     beta                      =       0.7000
     number of iterations used =            4
     Exchange-correlation      = SLA  PW   PBE  PBE ( 1  4  3  4 0 0)


     celldm(1)=    8.01000  celldm(2)=    0.00000  celldm(3)=    0.00000
     celldm(4)=    0.00000  celldm(5)=    0.00000  celldm(6)=    0.00000

     crystal axes: (cart. coord. in units of alat)
               a(1) = (  0.5000  0.5000  0.5000 )  
               a(2) = ( -0.5000  0.5000  0.5000 )  
               a(3) = ( -0.5000 -0.5000  0.5000 )  

     reciprocal axes: (cart. coord. in units 2 pi/alat)
               b(1) = (  1.0000  0.0000  1.0000 )  
               b(2) = ( -1.0000  1.0000  0.0000 )  
               b(3) = (  0.0000 -1.0000  1.0000 )  


     Atoms inside the unit cell: 

     Cartesian axes

     site n.  atom      mass           positions (alat units)
        1     Na  22.9900   tau(    1) = (    0.00000    0.00000    0.00000  )

     Computing dynamical matrix for 
                    q = (  -0.3333333   0.6666667  -0.3333333 )

      6 Sym.Ops. (no q -> -q+G )


     G cutoff =  520.0622  (   1556 G-vectors)     FFT grid: ( 40, 40, 40)
     G cutoff =  260.0311  (    550 G-vectors)  smooth grid: ( 27, 27, 27)

     number of k points=  3080  Marzari-Vanderbilt smearing, width (Ry)=  0.0200

     PseudoPot. # 1 for Na read from file:
     /home/s1333534/quantum_espresso/qe-6.1/pseudo/Na_pbe_v1.uspp.F.UPF
     MD5 check sum: 76a99c7e9422403d3e93cbc85ab7bccb
     Pseudo is Ultrasoft, Zval =  9.0
     Generated by new atomic code, or converted to UPF format
     Using radial grid of  819 points,  5 beta functions with: 
                l(1) =   0
                l(2) =   0
                l(3) =   1
                l(4) =   1
                l(5) =   2
     Q(r) pseudized with  8 coefficients,  rinner =    1.250   1.250   1.250
                                                       1.250   1.250

     Mode symmetry, C_3v (3m)   point group:


     Atomic displacements:
     There are   2 irreducible representations

     Representation     1      1 modes -A_1  L_1  To be done

     Representation     2      2 modes -E    L_3  To be done



     Alpha used in Ewald sum =   2.8000
     PHONON       : 48m 4.94s CPU    52m 5.83s WALL



     Representation #  1 mode #   1

     Self-consistent Calculation

      iter #   1 total cpu time :  3131.8 secs   av.it.:   5.4
      thresh= 1.000E-02 alpha_mix =  0.700 |ddv_scf|^2 =  9.783E-06

      iter #   2 total cpu time :  3138.9 secs   av.it.:   7.7
      thresh= 3.128E-04 alpha_mix =  0.700 |ddv_scf|^2 =  1.542E-07

      iter #   3 total cpu time :  3146.3 secs   av.it.:   8.0
      thresh= 3.926E-05 alpha_mix =  0.700 |ddv_scf|^2 =  7.643E-09

      iter #   4 total cpu time :  3153.1 secs   av.it.:   7.7
      thresh= 8.743E-06 alpha_mix =  0.700 |ddv_scf|^2 =  7.693E-11

      iter #   5 total cpu time :  3159.4 secs   av.it.:   6.9
      thresh= 8.771E-07 alpha_mix =  0.700 |ddv_scf|^2 =  3.660E-12

      iter #   6 total cpu time :  3166.7 secs   av.it.:   7.9
      thresh= 1.913E-07 alpha_mix =  0.700 |ddv_scf|^2 =  3.796E-15

      iter #   7 total cpu time :  3173.6 secs   av.it.:   7.8
      thresh= 6.161E-09 alpha_mix =  0.700 |ddv_scf|^2 =  5.026E-16

      iter #   8 total cpu time :  3180.8 secs   av.it.:   8.1
      thresh= 2.242E-09 alpha_mix =  0.700 |ddv_scf|^2 =  4.717E-17

     End of self-consistent calculation

     Convergence has been achieved 


     Representation #  2 modes #   2  3

     Self-consistent Calculation

      iter #   1 total cpu time :  3193.4 secs   av.it.:   5.6
      thresh= 1.000E-02 alpha_mix =  0.700 |ddv_scf|^2 =  7.382E-06

      iter #   2 total cpu time :  3208.0 secs   av.it.:   8.2
      thresh= 2.717E-04 alpha_mix =  0.700 |ddv_scf|^2 =  9.016E-07

      iter #   3 total cpu time :  3221.8 secs   av.it.:   7.7
      thresh= 9.495E-05 alpha_mix =  0.700 |ddv_scf|^2 =  7.531E-09

      iter #   4 total cpu time :  3236.7 secs   av.it.:   8.6
      thresh= 8.678E-06 alpha_mix =  0.700 |ddv_scf|^2 =  6.639E-11

      iter #   5 total cpu time :  3250.9 secs   av.it.:   8.0
      thresh= 8.148E-07 alpha_mix =  0.700 |ddv_scf|^2 =  6.803E-14

      iter #   6 total cpu time :  3265.3 secs   av.it.:   8.3
      thresh= 2.608E-08 alpha_mix =  0.700 |ddv_scf|^2 =  4.429E-15

      iter #   7 total cpu time :  3279.6 secs   av.it.:   8.3
      thresh= 6.655E-09 alpha_mix =  0.700 |ddv_scf|^2 =  1.595E-17

     End of self-consistent calculation

     Convergence has been achieved 

     Number of q in the star =    8
     List of q in the star:
          1  -0.333333333   0.666666667  -0.333333333
          2   0.333333333  -0.666666667   0.333333333
          3  -0.333333333  -0.666666667   0.333333333
          4  -0.333333333  -0.666666667  -0.333333333
          5  -0.333333333   0.666666667   0.333333333
          6   0.333333333   0.666666667  -0.333333333
          7  -0.666666667   0.333333333  -0.333333333
          8   0.333333333   0.666666667   0.333333333

     Diagonalizing the dynamical matrix

     q = (   -0.333333333   0.666666667  -0.333333333 ) 

 **************************************************************************
     freq (    1) =       1.782582 [THz] =      59.460537 [cm-1]
     freq (    2) =       3.309736 [THz] =     110.400899 [cm-1]
     freq (    3) =       3.309736 [THz] =     110.400899 [cm-1]
 **************************************************************************

     Mode symmetry, C_3v (3m)   point group:

     freq (  1 -  1) =         59.5  [cm-1]   --> A_1  L_1           
     freq (  2 -  3) =        110.4  [cm-1]   --> E    L_3           

     Calculation of q =    0.0000000   0.0000000   0.3333333

   Info: using nr1, nr2, nr3 values from input

   Info: using nr1, nr2, nr3 values from input

     Parallelization info
     --------------------
     sticks:   dense  smooth     PW     G-vecs:    dense   smooth      PW
     Min          71      35     12                 1553      547     107
     Max          72      36     13                 1556      550     109
     Sum        1151     571    197                24883     8781    1721



     bravais-lattice index     =            3
     lattice parameter (alat)  =       8.0100  a.u.
     unit-cell volume          =     256.9612 (a.u.)^3
     number of atoms/cell      =            1
     number of atomic types    =            1
     number of electrons       =         9.00
     number of Kohn-Sham states=            9
     kinetic-energy cutoff     =      40.0000  Ry
     charge density cutoff     =     320.0000  Ry
     Exchange-correlation      = SLA  PW   PBE  PBE ( 1  4  3  4 0 0)

     celldm(1)=   8.010000  celldm(2)=   0.000000  celldm(3)=   0.000000
     celldm(4)=   0.000000  celldm(5)=   0.000000  celldm(6)=   0.000000

     crystal axes: (cart. coord. in units of alat)
               a(1) = (   0.500000   0.500000   0.500000 )  
[...]

     PseudoPot. # 1 for Na read from file:
     /home/s1333534/quantum_espresso/qe-6.1/pseudo/Na_pbe_v1.uspp.F.UPF
     MD5 check sum: 76a99c7e9422403d3e93cbc85ab7bccb
     Pseudo is Ultrasoft, Zval =  9.0
     Generated by new atomic code, or converted to UPF format
     Using radial grid of  819 points,  5 beta functions with: 
                l(1) =   0
                l(2) =   0
                l(3) =   1
                l(4) =   1
                l(5) =   2
     Q(r) pseudized with  8 coefficients,  rinner =    1.250   1.250   1.250
                                                       1.250   1.250

     Mode symmetry, C_2v (mm2)  point group:


     Atomic displacements:
     There are   3 irreducible representations

     Representation     1      1 modes -A_1  D_1  S_1  To be done

     Representation     2      1 modes -B_1  D_3  S_3  To be done

     Representation     3      1 modes -B_2  D_4  S_4  To be done



     Alpha used in Ewald sum =   2.8000
     PHONON       :     1h32m CPU        1h40m WALL



     Representation #  1 mode #   1

     Self-consistent Calculation

      iter #   1 total cpu time :  6011.1 secs   av.it.:   5.6
      thresh= 1.000E-02 alpha_mix =  0.700 |ddv_scf|^2 =  1.698E-05

      iter #   2 total cpu time :  6021.6 secs   av.it.:   7.9
      thresh= 4.121E-04 alpha_mix =  0.700 |ddv_scf|^2 =  8.444E-07

      iter #   3 total cpu time :  6031.9 secs   av.it.:   7.7
      thresh= 9.189E-05 alpha_mix =  0.700 |ddv_scf|^2 =  1.987E-08

      iter #   4 total cpu time :  6042.2 secs   av.it.:   8.1
      thresh= 1.410E-05 alpha_mix =  0.700 |ddv_scf|^2 =  1.321E-09

      iter #   5 total cpu time :  6052.4 secs   av.it.:   8.1
      thresh= 3.635E-06 alpha_mix =  0.700 |ddv_scf|^2 =  9.572E-11

      iter #   6 total cpu time :  6062.9 secs   av.it.:   8.0
      thresh= 9.783E-07 alpha_mix =  0.700 |ddv_scf|^2 =  9.549E-13

      iter #   7 total cpu time :  6073.2 secs   av.it.:   8.2
      thresh= 9.772E-08 alpha_mix =  0.700 |ddv_scf|^2 =  6.042E-14

      iter #   8 total cpu time :  6083.7 secs   av.it.:   8.1
      thresh= 2.458E-08 alpha_mix =  0.700 |ddv_scf|^2 =  1.385E-16

      iter #   9 total cpu time :  6093.3 secs   av.it.:   7.2
      thresh= 1.177E-09 alpha_mix =  0.700 |ddv_scf|^2 =  1.308E-17

     End of self-consistent calculation

     Convergence has been achieved 


     Representation #  2 mode #   2

     Self-consistent Calculation

      iter #   1 total cpu time :  6102.3 secs   av.it.:   5.5
      thresh= 1.000E-02 alpha_mix =  0.700 |ddv_scf|^2 =  1.467E-05

      iter #   2 total cpu time :  6112.2 secs   av.it.:   7.7
      thresh= 3.830E-04 alpha_mix =  0.700 |ddv_scf|^2 =  2.028E-07

      iter #   3 total cpu time :  6122.1 secs   av.it.:   7.6
      thresh= 4.504E-05 alpha_mix =  0.700 |ddv_scf|^2 =  1.915E-08

      iter #   4 total cpu time :  6131.9 secs   av.it.:   7.7
      thresh= 1.384E-05 alpha_mix =  0.700 |ddv_scf|^2 =  8.163E-11

      iter #   5 total cpu time :  6142.0 secs   av.it.:   7.7
      thresh= 9.035E-07 alpha_mix =  0.700 |ddv_scf|^2 =  3.951E-14

      iter #   6 total cpu time :  6151.3 secs   av.it.:   7.0
      thresh= 1.988E-08 alpha_mix =  0.700 |ddv_scf|^2 =  2.975E-15

      iter #   7 total cpu time :  6160.9 secs   av.it.:   7.4
      thresh= 5.454E-09 alpha_mix =  0.700 |ddv_scf|^2 =  5.534E-18

     End of self-consistent calculation

     Convergence has been achieved 


     Representation #  3 mode #   3

     Self-consistent Calculation

      iter #   1 total cpu time :  6170.1 secs   av.it.:   5.6
      thresh= 1.000E-02 alpha_mix =  0.700 |ddv_scf|^2 =  2.459E-05

      iter #   2 total cpu time :  6179.9 secs   av.it.:   7.7
      thresh= 4.959E-04 alpha_mix =  0.700 |ddv_scf|^2 =  1.852E-06

      iter #   3 total cpu time :  6189.4 secs   av.it.:   7.3
      thresh= 1.361E-04 alpha_mix =  0.700 |ddv_scf|^2 =  2.694E-08

      iter #   4 total cpu time :  6199.4 secs   av.it.:   7.8
      thresh= 1.641E-05 alpha_mix =  0.700 |ddv_scf|^2 =  7.697E-10

      iter #   5 total cpu time :  6209.1 secs   av.it.:   7.4
      thresh= 2.774E-06 alpha_mix =  0.700 |ddv_scf|^2 =  1.330E-12

      iter #   6 total cpu time :  6219.2 secs   av.it.:   8.0
      thresh= 1.153E-07 alpha_mix =  0.700 |ddv_scf|^2 =  9.715E-15

      iter #   7 total cpu time :  6229.2 secs   av.it.:   7.8
      thresh= 9.857E-09 alpha_mix =  0.700 |ddv_scf|^2 =  1.590E-16

      iter #   8 total cpu time :  6238.8 secs   av.it.:   7.6
      thresh= 1.261E-09 alpha_mix =  0.700 |ddv_scf|^2 =  2.517E-19

     End of self-consistent calculation

     Convergence has been achieved 

     Number of q in the star =   12
     List of q in the star:
          1   0.000000000   0.833333333  -0.166666667
          2   0.000000000  -0.833333333  -0.166666667
          3   0.833333333   0.000000000  -0.166666667
          4  -0.833333333   0.000000000  -0.166666667
          5  -0.166666667  -0.833333333   0.000000000
          6   0.166666667  -0.833333333   0.000000000
          7  -0.166666667   0.833333333   0.000000000
          8   0.166666667   0.833333333   0.000000000
          9   0.833333333   0.000000000   0.166666667
         10   0.000000000   0.166666667  -0.833333333
         11   0.000000000  -0.166666667  -0.833333333
         12   0.166666667   0.000000000  -0.833333333

     Diagonalizing the dynamical matrix

     q = (    0.000000000   0.833333333  -0.166666667 ) 

 **************************************************************************
     freq (    1) =       3.120877 [THz] =     104.101261 [cm-1]
     freq (    2) =       3.404850 [THz] =     113.573558 [cm-1]
     freq (    3) =       3.668049 [THz] =     122.352953 [cm-1]
 **************************************************************************

     Mode symmetry, C_2v (mm2)  point group:

     freq (  1 -  1) =        104.1  [cm-1]   --> A_1  D_1  S_1      
     freq (  2 -  2) =        113.6  [cm-1]   --> B_1  D_3  S_3      
     freq (  3 -  3) =        122.4  [cm-1]   --> B_2  D_4  S_4      

     Calculation of q =    0.0000000   0.0000000  -1.0000000

   Info: using nr1, nr2, nr3 values from input

   Info: using nr1, nr2, nr3 values from input

     Parallelization info
     --------------------
     sticks:   dense  smooth     PW     G-vecs:    dense   smooth      PW
     Min          71      35     13                 1553      547     122
     Max          72      36     14                 1556      550     124
     Sum        1151     571    213                24883     8781    1961



     bravais-lattice index     =            3
     lattice parameter (alat)  =       8.0100  a.u.
     unit-cell volume          =     256.9612 (a.u.)^3
     number of atoms/cell      =            1
     number of atomic types    =            1
     number of electrons       =         9.00
     number of Kohn-Sham states=            9
     kinetic-energy cutoff     =      40.0000  Ry
     charge density cutoff     =     320.0000  Ry
     Exchange-correlation      = SLA  PW   PBE  PBE ( 1  4  3  4 0 0)

     celldm(1)=   8.010000  celldm(2)=   0.000000  celldm(3)=   0.000000
     celldm(4)=   0.000000  celldm(5)=   0.000000  celldm(6)=   0.000000

     crystal axes: (cart. coord. in units of alat)
               a(1) = (   0.500000   0.500000   0.500000 )  
               a(2) = (  -0.500000   0.500000   0.500000 )  
               a(3) = (  -0.500000  -0.500000   0.500000 )  

     reciprocal axes: (cart. coord. in units 2 pi/alat)
               b(1) = (  1.000000  0.000000  1.000000 )  
               b(2) = ( -1.000000  1.000000  0.000000 )  
               b(3) = (  0.000000 -1.000000  1.000000 )  


     PseudoPot. # 1 for Na read from file:
     /home/s1333534/quantum_espresso/qe-6.1/pseudo/Na_pbe_v1.uspp.F.UPF
     MD5 check sum: 76a99c7e9422403d3e93cbc85ab7bccb
     Pseudo is Ultrasoft, Zval =  9.0
     Generated by new atomic code, or converted to UPF format
     Using radial grid of  819 points,  5 beta functions with: 
                l(1) =   0
                l(2) =   0
                l(3) =   1
                l(4) =   1
                l(5) =   2
     Q(r) pseudized with  8 coefficients,  rinner =    1.250   1.250   1.250
                                                       1.250   1.250

     atomic species   valence    mass     pseudopotential
        Na             9.00    22.99000     Na( 1.00)

     48 Sym. Ops., with inversion, found



   Cartesian axes

     site n.     atom                  positions (alat units)
         1           Na  tau(   1) = (   0.0000000   0.0000000   0.0000000  )

     number of k points=   500  Marzari-Vanderbilt smearing, width (Ry)=  0.0200

     Number of k-points >= 100: set verbosity='high' to print them.

     Dense  grid:    24883 G-vectors     FFT dimensions: (  40,  40,  40)

     Smooth grid:     8781 G-vectors     FFT dimensions: (  27,  27,  27)

     Estimated max dynamical RAM per process >       0.85MB

     Estimated total allocated dynamical RAM >      54.67MB

     The potential is recalculated from file :
     ./_ph0/na.bcc.save/charge-density.dat

     Starting wfc are    5 atomic +    4 random wfc

     Band Structure Calculation
     Davidson diagonalization with overlap

     ethr =  1.11E-10,  avg # of iterations = 22.0

     total cpu time spent up to now is     1539.5 secs

     End of band structure calculation

     Number of k-points >= 100: set verbosity='high' to print the bands.

     the Fermi energy is     1.4967 ev

     Writing output data file na.bcc.save

                                                                                

     bravais-lattice index     =            3
     lattice parameter (alat)  =       8.0100  a.u.
     unit-cell volume          =     256.9612 (a.u.)^3
     number of atoms/cell      =            1
     number of atomic types    =            1
     kinetic-energy cut-off    =      40.0000  Ry
     charge density cut-off    =     320.0000  Ry
     convergence threshold     =      1.0E-16
     beta                      =       0.7000
     number of iterations used =            4
     Exchange-correlation      = SLA  PW   PBE  PBE ( 1  4  3  4 0 0)


     celldm(1)=    8.01000  celldm(2)=    0.00000  celldm(3)=    0.00000
     celldm(4)=    0.00000  celldm(5)=    0.00000  celldm(6)=    0.00000

     crystal axes: (cart. coord. in units of alat)
               a(1) = (  0.5000  0.5000  0.5000 )  
               a(2) = ( -0.5000  0.5000  0.5000 )  
               a(3) = ( -0.5000 -0.5000  0.5000 )  

     reciprocal axes: (cart. coord. in units 2 pi/alat)
               b(1) = (  1.0000  0.0000  1.0000 )  
               b(2) = ( -1.0000  1.0000  0.0000 )  
               b(3) = (  0.0000 -1.0000  1.0000 )  


     Atoms inside the unit cell: 

     Cartesian axes

     site n.  atom      mass           positions (alat units)
        1     Na  22.9900   tau(    1) = (    0.00000    0.00000    0.00000  )

     Computing dynamical matrix for 
                    q = (   0.0000000   0.0000000  -1.0000000 )

     49 Sym.Ops. (with q -> -q+G )


     G cutoff =  520.0622  (   1556 G-vectors)     FFT grid: ( 40, 40, 40)
     G cutoff =  260.0311  (    550 G-vectors)  smooth grid: ( 27, 27, 27)

     number of k points=   500  Marzari-Vanderbilt smearing, width (Ry)=  0.0200

     PseudoPot. # 1 for Na read from file:
     /home/s1333534/quantum_espresso/qe-6.1/pseudo/Na_pbe_v1.uspp.F.UPF
     MD5 check sum: 76a99c7e9422403d3e93cbc85ab7bccb
     Pseudo is Ultrasoft, Zval =  9.0
     Generated by new atomic code, or converted to UPF format
     Using radial grid of  819 points,  5 beta functions with: 
                l(1) =   0
                l(2) =   0
                l(3) =   1
                l(4) =   1
                l(5) =   2
     Q(r) pseudized with  8 coefficients,  rinner =    1.250   1.250   1.250
                                                       1.250   1.250

     Mode symmetry, O_h (m-3m)  point group:


     Atomic displacements:
     There are   1 irreducible representations

     Representation     1      3 modes -T_1u G_15  G_4-  To be done



     Alpha used in Ewald sum =   2.8000
     PHONON       :     1h36m CPU        1h44m WALL



     Representation #  1 modes #   1  2  3

     Self-consistent Calculation

      iter #   1 total cpu time :  6254.5 secs   av.it.:   5.7
      thresh= 1.000E-02 alpha_mix =  0.700 |ddv_scf|^2 =  1.818E-06

      iter #   2 total cpu time :  6259.2 secs   av.it.:   8.5
      thresh= 1.348E-04 alpha_mix =  0.700 |ddv_scf|^2 =  2.946E-08

      iter #   3 total cpu time :  6264.0 secs   av.it.:   8.2
      thresh= 1.716E-05 alpha_mix =  0.700 |ddv_scf|^2 =  2.420E-09

      iter #   4 total cpu time :  6268.8 secs   av.it.:   8.4
      thresh= 4.919E-06 alpha_mix =  0.700 |ddv_scf|^2 =  9.523E-12

      iter #   5 total cpu time :  6273.5 secs   av.it.:   8.3
      thresh= 3.086E-07 alpha_mix =  0.700 |ddv_scf|^2 =  3.093E-15

      iter #   6 total cpu time :  6277.6 secs   av.it.:   7.2
      thresh= 5.562E-09 alpha_mix =  0.700 |ddv_scf|^2 =  2.506E-16

      iter #   7 total cpu time :  6282.1 secs   av.it.:   7.9
      thresh= 1.583E-09 alpha_mix =  0.700 |ddv_scf|^2 =  3.535E-19

     End of self-consistent calculation

     Convergence has been achieved 

     Number of q in the star =    1
     List of q in the star:
          1   0.000000000   0.000000000  -1.000000000

     Diagonalizing the dynamical matrix

     q = (    0.000000000   0.000000000  -1.000000000 ) 

 **************************************************************************
     freq (    1) =       3.647997 [THz] =     121.684082 [cm-1]
     freq (    2) =       3.647997 [THz] =     121.684082 [cm-1]
     freq (    3) =       3.647997 [THz] =     121.684082 [cm-1]
 **************************************************************************

     Mode symmetry, O_h (m-3m)  point group:

     freq (  1 -  3) =        121.7  [cm-1]   --> T_1u G_15  G_4-    

     init_run     :      2.47s CPU      2.61s WALL (      15 calls)
     electrons    :   1241.40s CPU   1310.34s WALL (      15 calls)

     Called by init_run:
     wfcinit      :      0.00s CPU      0.01s WALL (      15 calls)
     potinit      :      0.39s CPU      0.40s WALL (      15 calls)

     Called by electrons:
     c_bands      :   1241.04s CPU   1309.97s WALL (      15 calls)
     v_of_rho     :      0.17s CPU      0.17s WALL (      16 calls)
     newd         :      0.16s CPU      0.17s WALL (      16 calls)

     Called by c_bands:
     init_us_2    :     25.80s CPU     27.95s WALL (  335627 calls)
     cegterg      :    947.34s CPU   1010.46s WALL (   28020 calls)

     Called by sum_band:

     Called by *egterg:
     h_psi        :   3348.38s CPU   3621.43s WALL ( 3142015 calls)
     s_psi        :     97.51s CPU    107.12s WALL ( 6079145 calls)
     g_psi        :      3.18s CPU      3.45s WALL (  419008 calls)
     cdiaghg      :    261.48s CPU    278.27s WALL (  438270 calls)

     Called by h_psi:
     h_psi:pot    :   3324.18s CPU   3594.41s WALL ( 3142015 calls)
     h_psi:calbec :    183.12s CPU    196.65s WALL ( 3142015 calls)
     vloc_psi     :   3052.30s CPU   3301.84s WALL ( 3142015 calls)
     add_vuspsi   :     53.52s CPU     58.60s WALL ( 3142015 calls)

     General routines
     calbec       :    342.04s CPU    369.07s WALL ( 6621487 calls)
     fft          :      4.83s CPU      5.01s WALL (    6361 calls)
     ffts         :      5.03s CPU      5.57s WALL (   30432 calls)
     fftw         :   3361.04s CPU   3652.68s WALL (30279515 calls)
     interpolate  :      0.92s CPU      1.09s WALL (     872 calls)
     davcio       :     34.60s CPU     55.79s WALL ( 1365156 calls)

     Parallel routines
     fft_scatter  :   1463.15s CPU   1587.93s WALL (30316308 calls)

     PHONON       :     1h36m CPU        1h44m WALL

     INITIALIZATION: 
     phq_setup    :      0.75s CPU      0.77s WALL (      16 calls)
     phq_init     :     62.83s CPU     66.47s WALL (      16 calls)

     phq_init     :     62.83s CPU     66.47s WALL (      16 calls)
     init_vloc    :      0.12s CPU      0.12s WALL (      16 calls)
     init_us_1    :      1.24s CPU      1.33s WALL (      16 calls)
     newd         :      0.16s CPU      0.17s WALL (      16 calls)
     dvanqq       :      0.69s CPU      0.70s WALL (      16 calls)
     drho         :     47.52s CPU     50.35s WALL (      16 calls)

     DYNAMICAL MATRIX:
     dynmat0      :      9.55s CPU      9.96s WALL (      16 calls)
     phqscf       :   4269.57s CPU   4670.44s WALL (      16 calls)
     dynmatrix    :      0.12s CPU      0.13s WALL (      16 calls)

     phqscf       :   4269.57s CPU   4670.44s WALL (      16 calls)
     solve_linter :   4254.72s CPU   4654.56s WALL (      40 calls)
     drhodv       :     14.62s CPU     15.51s WALL (      40 calls)

     dynmat0      :      9.55s CPU      9.96s WALL (      16 calls)
     dynmat_us    :      9.50s CPU      9.90s WALL (      16 calls)
     d2ionq       :      0.01s CPU      0.02s WALL (      16 calls)

     dynmat_us    :      9.50s CPU      9.90s WALL (      16 calls)
     addusdynmat  :      0.00s CPU      0.00s WALL (      16 calls)

     phqscf       :   4269.57s CPU   4670.44s WALL (      16 calls)
     solve_linter :   4254.72s CPU   4654.56s WALL (      40 calls)

     solve_linter :   4254.72s CPU   4654.56s WALL (      40 calls)
     dvqpsi_us    :     81.95s CPU     87.68s WALL (   29082 calls)
     ortho        :     50.43s CPU     54.17s WALL (  261405 calls)
     cgsolve      :   3360.45s CPU   3653.61s WALL (  261405 calls)
     incdrhoscf   :    319.13s CPU    365.52s WALL (  261405 calls)
     addusddens   :      5.17s CPU      5.22s WALL (     382 calls)
     vpsifft      :    267.62s CPU    290.76s WALL (  232323 calls)
     dv_of_drho   :      3.43s CPU      3.49s WALL (     396 calls)
     mix_pot      :      0.59s CPU      2.42s WALL (     342 calls)
     ef_shift     :      0.03s CPU      0.05s WALL (       7 calls)
     localdos     :      0.08s CPU      0.09s WALL (       1 calls)
     psymdvscf    :     29.19s CPU     29.81s WALL (     311 calls)
     newdq        :      5.20s CPU      5.26s WALL (     342 calls)
     adddvscf     :     14.66s CPU     15.73s WALL (  232323 calls)
     drhodvus     :      0.01s CPU      0.01s WALL (      40 calls)

     dvqpsi_us    :     81.95s CPU     87.68s WALL (   29082 calls)
     dvqpsi_us_on :     14.06s CPU     14.77s WALL (   29082 calls)

     cgsolve      :   3360.45s CPU   3653.61s WALL (  261405 calls)
     ch_psi       :   3176.20s CPU   3451.07s WALL ( 2675725 calls)

     ch_psi       :   3176.20s CPU   3451.07s WALL ( 2675725 calls)
     h_psi        :   3348.38s CPU   3621.43s WALL ( 3142015 calls)
     last         :    329.96s CPU    360.03s WALL ( 2675725 calls)

     h_psi        :   3348.38s CPU   3621.43s WALL ( 3142015 calls)
     add_vuspsi   :     53.52s CPU     58.60s WALL ( 3142015 calls)

     incdrhoscf   :    319.13s CPU    365.52s WALL (  261405 calls)
     addusdbec    :     24.77s CPU     26.37s WALL (  290487 calls)

     drhodvus     :      0.01s CPU      0.01s WALL (      40 calls)

      General routines
     calbec       :    342.04s CPU    369.07s WALL ( 6621487 calls)
     fft          :      4.83s CPU      5.01s WALL (    6361 calls)
     ffts         :      5.03s CPU      5.57s WALL (   30432 calls)
     fftw         :   3361.04s CPU   3652.68s WALL (30279515 calls)
     davcio       :     34.60s CPU     55.79s WALL ( 1365156 calls)
     write_rec    :      1.30s CPU      2.57s WALL (     382 calls)


     PHONON       :     1h36m CPU        1h44m WALL


   This run was terminated on:   5:25:46   1Feb2018            

=------------------------------------------------------------------------------=
   JOB DONE.
=------------------------------------------------------------------------------=
