
     Program PHONON v.6.1 (svn rev. 13369) starts on 14Feb2018 at  1:20:38 

     This program is part of the open-source Quantum ESPRESSO suite
     for quantum simulation of materials; please cite
         "P. Giannozzi et al., J. Phys.:Condens. Matter 21 395502 (2009);
          URL http://www.quantum-espresso.org", 
     in publications or presentations arising from this work. More details at
     http://www.quantum-espresso.org/quote

     Parallel version (MPI), running on    64 processors
     K-points division:     npool     =       4
     R & G space division:  proc/nbgrp/npool/nimage =      16

     Reading data from directory:
     ./na.bcc.save

   Info: using nr1, nr2, nr3 values from input

   Info: using nr1, nr2, nr3 values from input

     IMPORTANT: XC functional enforced from input :
     Exchange-correlation      = SLA  PW   PBE  PBE ( 1  4  3  4 0 0)
     Any further DFT definition will be discarded
     Please, verify this is what you really want


     Parallelization info
     --------------------
     sticks:   dense  smooth     PW     G-vecs:    dense   smooth      PW
     Min          59      29      9                 1171      411      74
     Max          60      30     10                 1174      415      77
     Sum         949     475    155                18749     6603    1205



     Dynamical matrices for ( 6, 6, 6)  uniform grid of q-points
     (  16q-points):
       N         xq(1)         xq(2)         xq(3) 
       1   0.000000000   0.000000000   0.000000000
       2   0.000000000  -0.166666667   0.166666667
       3   0.000000000  -0.333333333   0.333333333
       4   0.000000000   0.500000000  -0.500000000
       5  -0.166666667  -0.166666667   0.333333333
       6  -0.166666667   0.666666667  -0.500000000
       7  -0.333333333   0.666666667  -0.333333333
       8   0.000000000   0.000000000   0.333333333
       9   0.000000000  -0.166666667   0.500000000
      10   0.000000000   0.666666667  -0.333333333
      11  -0.166666667   0.833333333  -0.333333333
      12   0.666666667  -0.666666667   0.333333333
      13   0.500000000  -0.500000000   0.333333333
      14   0.000000000   0.000000000   0.666666667
      15   0.000000000   0.833333333  -0.166666667
      16   0.000000000   0.000000000  -1.000000000

     Calculation of q =    0.0000000   0.0000000   0.0000000

                                                                                

     bravais-lattice index     =            3
     lattice parameter (alat)  =       7.2900  a.u.
     unit-cell volume          =     193.7102 (a.u.)^3
     number of atoms/cell      =            1
     number of atomic types    =            1
     kinetic-energy cut-off    =      40.0000  Ry
     charge density cut-off    =     320.0000  Ry
     convergence threshold     =      1.0E-16
     beta                      =       0.7000
     number of iterations used =            4
     Exchange-correlation      = SLA  PW   PBE  PBE ( 1  4  3  4 0 0)


     celldm(1)=    7.29000  celldm(2)=    0.00000  celldm(3)=    0.00000
     celldm(4)=    0.00000  celldm(5)=    0.00000  celldm(6)=    0.00000

     crystal axes: (cart. coord. in units of alat)
               a(1) = (  0.5000  0.5000  0.5000 )  
               a(2) = ( -0.5000  0.5000  0.5000 )  
               a(3) = ( -0.5000 -0.5000  0.5000 )  

     reciprocal axes: (cart. coord. in units 2 pi/alat)
               b(1) = (  1.0000  0.0000  1.0000 )  
               b(2) = ( -1.0000  1.0000  0.0000 )  
               b(3) = (  0.0000 -1.0000  1.0000 )  


     Atoms inside the unit cell: 

     Cartesian axes

     site n.  atom      mass           positions (alat units)
        1     Na  22.9900   tau(    1) = (    0.00000    0.00000    0.00000  )

     Computing dynamical matrix for 
                    q = (   0.0000000   0.0000000   0.0000000 )

     49 Sym.Ops. (with q -> -q+G )


     G cutoff =  430.7698  (   1172 G-vectors)     FFT grid: ( 36, 36, 36)
     G cutoff =  215.3849  (    415 G-vectors)  smooth grid: ( 25, 25, 25)

     number of k points=   250  Marzari-Vanderbilt smearing, width (Ry)=  0.0200

     PseudoPot. # 1 for Na read from file:
     /home/s1333534/quantum_espresso/qe-6.1/pseudo/Na_pbe_v1.uspp.F.UPF
     MD5 check sum: 76a99c7e9422403d3e93cbc85ab7bccb
     Pseudo is Ultrasoft, Zval =  9.0
     Generated by new atomic code, or converted to UPF format
     Using radial grid of  819 points,  5 beta functions with: 
                l(1) =   0
                l(2) =   0
                l(3) =   1
                l(4) =   1
                l(5) =   2
     Q(r) pseudized with  8 coefficients,  rinner =    1.250   1.250   1.250
                                                       1.250   1.250

     Mode symmetry, O_h (m-3m)  point group:


     Atomic displacements:
     There are   1 irreducible representations

     Representation     1      3 modes -T_1u G_15  G_4-  To be done



     Alpha used in Ewald sum =   2.8000
     PHONON       :     3.03s CPU         3.26s WALL



     Representation #  1 modes #   1  2  3

     Self-consistent Calculation

     Pert. #  1: Fermi energy shift (Ry) =     0.0000E+00    -1.8808E-37
     Pert. #  2: Fermi energy shift (Ry) =     8.1856E-26    -7.8366E-37
     Pert. #  3: Fermi energy shift (Ry) =     9.9089E-26    -3.1347E-38

      iter #   1 total cpu time :     6.2 secs   av.it.:   5.5
      thresh= 1.000E-02 alpha_mix =  0.700 |ddv_scf|^2 =  1.308E-06

     Pert. #  1: Fermi energy shift (Ry) =     1.7233E-26     9.7958E-40
     Pert. #  2: Fermi energy shift (Ry) =     1.9387E-26     5.3877E-39
     Pert. #  3: Fermi energy shift (Ry) =     7.5394E-26    -8.3264E-39

      iter #   2 total cpu time :     9.6 secs   av.it.:   8.4
      thresh= 1.144E-04 alpha_mix =  0.700 |ddv_scf|^2 =  2.521E-08

     Pert. #  1: Fermi energy shift (Ry) =     8.6165E-27    -1.2245E-39
     Pert. #  2: Fermi energy shift (Ry) =    -3.0158E-26    -1.2245E-40
     Pert. #  3: Fermi energy shift (Ry) =     7.3240E-26    -9.1835E-40

      iter #   3 total cpu time :    13.1 secs   av.it.:   8.6
      thresh= 1.588E-05 alpha_mix =  0.700 |ddv_scf|^2 =  3.372E-10

     Pert. #  1: Fermi energy shift (Ry) =    -3.4466E-26    -5.7397E-41
     Pert. #  2: Fermi energy shift (Ry) =    -1.7233E-26     5.5484E-41
     Pert. #  3: Fermi energy shift (Ry) =    -6.4623E-26    -1.5306E-41

      iter #   4 total cpu time :    16.5 secs   av.it.:   8.1
      thresh= 1.836E-06 alpha_mix =  0.700 |ddv_scf|^2 =  1.326E-12

     Pert. #  1: Fermi energy shift (Ry) =    -1.7233E-26     1.6263E-41
     Pert. #  2: Fermi energy shift (Ry) =     8.6165E-27     3.1090E-41
     Pert. #  3: Fermi energy shift (Ry) =    -3.8774E-26    -1.9132E-42

      iter #   5 total cpu time :    20.1 secs   av.it.:   8.4
      thresh= 1.152E-07 alpha_mix =  0.700 |ddv_scf|^2 =  3.797E-15

     Pert. #  1: Fermi energy shift (Ry) =     2.5849E-26     1.6263E-41
     Pert. #  2: Fermi energy shift (Ry) =    -3.4466E-26     3.1090E-41
     Pert. #  3: Fermi energy shift (Ry) =    -1.4648E-25    -1.9132E-42

      iter #   6 total cpu time :    23.5 secs   av.it.:   8.2
      thresh= 6.162E-09 alpha_mix =  0.700 |ddv_scf|^2 =  6.212E-17

     End of self-consistent calculation

     Convergence has been achieved 

     Number of q in the star =    1
     List of q in the star:
          1   0.000000000   0.000000000   0.000000000

     Diagonalizing the dynamical matrix

     q = (    0.000000000   0.000000000   0.000000000 ) 

 **************************************************************************
     freq (    1) =      -0.241042 [THz] =      -8.040308 [cm-1]
     freq (    2) =      -0.241042 [THz] =      -8.040308 [cm-1]
     freq (    3) =      -0.241042 [THz] =      -8.040308 [cm-1]
 **************************************************************************

     Mode symmetry, O_h (m-3m)  point group:

     freq (  1 -  3) =         -8.0  [cm-1]   --> T_1u G_15  G_4- I  

     Calculation of q =    0.0000000  -0.1666667   0.1666667

   Info: using nr1, nr2, nr3 values from input

   Info: using nr1, nr2, nr3 values from input

     Parallelization info
     --------------------
     sticks:   dense  smooth     PW     G-vecs:    dense   smooth      PW
     Min          59      29     10                 1171      411      80
     Max          60      30     11                 1174      415      81
     Sum         949     475    165                18749     6603    1289



     bravais-lattice index     =            3
     lattice parameter (alat)  =       7.2900  a.u.
     unit-cell volume          =     193.7102 (a.u.)^3
     number of atoms/cell      =            1
     number of atomic types    =            1
     number of electrons       =         9.00
     number of Kohn-Sham states=            9
     kinetic-energy cutoff     =      40.0000  Ry
     charge density cutoff     =     320.0000  Ry
     Exchange-correlation      = SLA  PW   PBE  PBE ( 1  4  3  4 0 0)

     celldm(1)=   7.290000  celldm(2)=   0.000000  celldm(3)=   0.000000
     celldm(4)=   0.000000  celldm(5)=   0.000000  celldm(6)=   0.000000

     crystal axes: (cart. coord. in units of alat)
               a(1) = (   0.500000   0.500000   0.500000 )  
               a(2) = (  -0.500000   0.500000   0.500000 )  
               a(3) = (  -0.500000  -0.500000   0.500000 )  

     reciprocal axes: (cart. coord. in units 2 pi/alat)
               b(1) = (  1.000000  0.000000  1.000000 )  
               b(2) = ( -1.000000  1.000000  0.000000 )  
               b(3) = (  0.000000 -1.000000  1.000000 )  


     PseudoPot. # 1 for Na read from file:
     /home/s1333534/quantum_espresso/qe-6.1/pseudo/Na_pbe_v1.uspp.F.UPF
     MD5 check sum: 76a99c7e9422403d3e93cbc85ab7bccb
     Pseudo is Ultrasoft, Zval =  9.0
     Generated by new atomic code, or converted to UPF format
     Using radial grid of  819 points,  5 beta functions with: 
                l(1) =   0
                l(2) =   0
                l(3) =   1
                l(4) =   1
                l(5) =   2
     Q(r) pseudized with  8 coefficients,  rinner =    1.250   1.250   1.250
                                                       1.250   1.250

     atomic species   valence    mass     pseudopotential
        Na             9.00    22.99000     Na( 1.00)

     48 Sym. Ops., with inversion, found



   Cartesian axes

     site n.     atom                  positions (alat units)
         1           Na  tau(   1) = (   0.0000000   0.0000000   0.0000000  )

     number of k points=  4400  Marzari-Vanderbilt smearing, width (Ry)=  0.0200

     Number of k-points >= 100: set verbosity='high' to print them.

     Dense  grid:    18749 G-vectors     FFT dimensions: (  36,  36,  36)

     Smooth grid:     6603 G-vectors     FFT dimensions: (  25,  25,  25)

     Estimated max dynamical RAM per process >       0.64MB

     Estimated total allocated dynamical RAM >      41.20MB

     The potential is recalculated from file :
     ./_ph0/na.bcc.save/charge-density.dat

     Starting wfc are    5 atomic +    4 random wfc

     Band Structure Calculation
     Davidson diagonalization with overlap

     ethr =  1.11E-10,  avg # of iterations = 19.1

     total cpu time spent up to now is       60.3 secs

     End of band structure calculation

     Number of k-points >= 100: set verbosity='high' to print the bands.

     the Fermi energy is     2.8307 ev

     Writing output data file na.bcc.save

                                                                                

     bravais-lattice index     =            3
     lattice parameter (alat)  =       7.2900  a.u.
     unit-cell volume          =     193.7102 (a.u.)^3
     number of atoms/cell      =            1
     number of atomic types    =            1
     kinetic-energy cut-off    =      40.0000  Ry
     charge density cut-off    =     320.0000  Ry
     convergence threshold     =      1.0E-16
     beta                      =       0.7000
     number of iterations used =            4
     Exchange-correlation      = SLA  PW   PBE  PBE ( 1  4  3  4 0 0)


     celldm(1)=    7.29000  celldm(2)=    0.00000  celldm(3)=    0.00000
     celldm(4)=    0.00000  celldm(5)=    0.00000  celldm(6)=    0.00000

     crystal axes: (cart. coord. in units of alat)
               a(1) = (  0.5000  0.5000  0.5000 )  
               a(2) = ( -0.5000  0.5000  0.5000 )  
               a(3) = ( -0.5000 -0.5000  0.5000 )  

     reciprocal axes: (cart. coord. in units 2 pi/alat)
               b(1) = (  1.0000  0.0000  1.0000 )  
               b(2) = ( -1.0000  1.0000  0.0000 )  
               b(3) = (  0.0000 -1.0000  1.0000 )  


     Atoms inside the unit cell: 

     Cartesian axes

     site n.  atom      mass           positions (alat units)
        1     Na  22.9900   tau(    1) = (    0.00000    0.00000    0.00000  )

     Computing dynamical matrix for 
                    q = (   0.0000000  -0.1666667   0.1666667 )

      4 Sym.Ops. (no q -> -q+G )


     G cutoff =  430.7698  (   1174 G-vectors)     FFT grid: ( 36, 36, 36)
     G cutoff =  215.3849  (    415 G-vectors)  smooth grid: ( 25, 25, 25)

     number of k points=  4400  Marzari-Vanderbilt smearing, width (Ry)=  0.0200

     PseudoPot. # 1 for Na read from file:
     /home/s1333534/quantum_espresso/qe-6.1/pseudo/Na_pbe_v1.uspp.F.UPF
     MD5 check sum: 76a99c7e9422403d3e93cbc85ab7bccb
     Pseudo is Ultrasoft, Zval =  9.0
     Generated by new atomic code, or converted to UPF format
     Using radial grid of  819 points,  5 beta functions with: 
                l(1) =   0
                l(2) =   0
                l(3) =   1
                l(4) =   1
                l(5) =   2
     Q(r) pseudized with  8 coefficients,  rinner =    1.250   1.250   1.250
                                                       1.250   1.250

     Mode symmetry, C_2v (mm2)  point group:


     Atomic displacements:
     There are   3 irreducible representations

     Representation     1      1 modes -A_1  D_1  S_1  To be done

     Representation     2      1 modes -B_1  D_3  S_3  To be done

     Representation     3      1 modes -B_2  D_4  S_4  To be done



     Alpha used in Ewald sum =   2.8000
     PHONON       :  1m33.28s CPU     1m39.84s WALL



     Representation #  1 mode #   1

     Self-consistent Calculation

      iter #   1 total cpu time :   107.2 secs   av.it.:   5.7
      thresh= 1.000E-02 alpha_mix =  0.700 |ddv_scf|^2 =  3.201E-02

      iter #   2 total cpu time :   114.7 secs   av.it.:   6.6
      thresh= 1.000E-02 alpha_mix =  0.700 |ddv_scf|^2 =  4.278E+00

      iter #   3 total cpu time :   121.8 secs   av.it.:   6.6
      thresh= 1.000E-02 alpha_mix =  0.700 |ddv_scf|^2 =  8.037E-07

      iter #   4 total cpu time :   129.8 secs   av.it.:   7.6
      thresh= 8.965E-05 alpha_mix =  0.700 |ddv_scf|^2 =  8.876E-08

      iter #   5 total cpu time :   137.8 secs   av.it.:   7.4
      thresh= 2.979E-05 alpha_mix =  0.700 |ddv_scf|^2 =  3.733E-09

      iter #   6 total cpu time :   145.9 secs   av.it.:   7.5
      thresh= 6.109E-06 alpha_mix =  0.700 |ddv_scf|^2 =  9.490E-09

      iter #   7 total cpu time :   151.4 secs   av.it.:   4.4
      thresh= 9.742E-06 alpha_mix =  0.700 |ddv_scf|^2 =  1.790E-09

      iter #   8 total cpu time :   158.6 secs   av.it.:   6.8
      thresh= 4.231E-06 alpha_mix =  0.700 |ddv_scf|^2 =  4.874E-11

      iter #   9 total cpu time :   166.2 secs   av.it.:   7.2
      thresh= 6.982E-07 alpha_mix =  0.700 |ddv_scf|^2 =  1.663E-12

      iter #  10 total cpu time :   174.0 secs   av.it.:   7.1
      thresh= 1.290E-07 alpha_mix =  0.700 |ddv_scf|^2 =  8.811E-14

      iter #  11 total cpu time :   181.6 secs   av.it.:   7.2
      thresh= 2.968E-08 alpha_mix =  0.700 |ddv_scf|^2 =  5.475E-16

      iter #  12 total cpu time :   189.7 secs   av.it.:   7.8
      thresh= 2.340E-09 alpha_mix =  0.700 |ddv_scf|^2 =  4.089E-16

      iter #  13 total cpu time :   197.2 secs   av.it.:   7.0
      thresh= 2.022E-09 alpha_mix =  0.700 |ddv_scf|^2 =  7.074E-15

      iter #  14 total cpu time :   203.9 secs   av.it.:   5.9
      thresh= 8.411E-09 alpha_mix =  0.700 |ddv_scf|^2 =  6.776E-18

     End of self-consistent calculation

     Convergence has been achieved 


     Representation #  2 mode #   2

     Self-consistent Calculation

      iter #   1 total cpu time :   211.2 secs   av.it.:   5.4
      thresh= 1.000E-02 alpha_mix =  0.700 |ddv_scf|^2 =  1.191E-05

      iter #   2 total cpu time :   219.4 secs   av.it.:   7.7
      thresh= 3.451E-04 alpha_mix =  0.700 |ddv_scf|^2 =  2.241E-07

      iter #   3 total cpu time :   227.8 secs   av.it.:   7.9
      thresh= 4.734E-05 alpha_mix =  0.700 |ddv_scf|^2 =  3.372E-09

      iter #   4 total cpu time :   235.7 secs   av.it.:   7.4
      thresh= 5.807E-06 alpha_mix =  0.700 |ddv_scf|^2 =  1.284E-11

      iter #   5 total cpu time :   243.9 secs   av.it.:   7.7
      thresh= 3.583E-07 alpha_mix =  0.700 |ddv_scf|^2 =  3.242E-14

      iter #   6 total cpu time :   251.8 secs   av.it.:   7.4
      thresh= 1.801E-08 alpha_mix =  0.700 |ddv_scf|^2 =  6.192E-16

      iter #   7 total cpu time :   259.9 secs   av.it.:   7.6
      thresh= 2.488E-09 alpha_mix =  0.700 |ddv_scf|^2 =  4.950E-19

     End of self-consistent calculation

     Convergence has been achieved 


     Representation #  3 mode #   3

     Self-consistent Calculation

      iter #   1 total cpu time :   267.3 secs   av.it.:   5.4
      thresh= 1.000E-02 alpha_mix =  0.700 |ddv_scf|^2 =  1.233E-05

      iter #   2 total cpu time :   275.4 secs   av.it.:   7.7
      thresh= 3.512E-04 alpha_mix =  0.700 |ddv_scf|^2 =  2.222E-07

      iter #   3 total cpu time :   283.9 secs   av.it.:   7.9
      thresh= 4.714E-05 alpha_mix =  0.700 |ddv_scf|^2 =  4.419E-09

      iter #   4 total cpu time :   291.8 secs   av.it.:   7.5
      thresh= 6.647E-06 alpha_mix =  0.700 |ddv_scf|^2 =  1.643E-11

      iter #   5 total cpu time :   299.8 secs   av.it.:   7.7
      thresh= 4.054E-07 alpha_mix =  0.700 |ddv_scf|^2 =  3.364E-14

      iter #   6 total cpu time :   307.5 secs   av.it.:   7.3
      thresh= 1.834E-08 alpha_mix =  0.700 |ddv_scf|^2 =  1.161E-15

      iter #   7 total cpu time :   315.5 secs   av.it.:   7.7
      thresh= 3.407E-09 alpha_mix =  0.700 |ddv_scf|^2 =  1.385E-18

     End of self-consistent calculation

     Convergence has been achieved 

     Number of q in the star =   12
     List of q in the star:
          1   0.000000000  -0.166666667   0.166666667
          2  -0.166666667   0.000000000   0.166666667
          3   0.166666667   0.000000000   0.166666667
          4   0.000000000   0.166666667   0.166666667
          5   0.166666667   0.166666667   0.000000000
          6  -0.166666667   0.166666667   0.000000000
          7   0.166666667  -0.166666667   0.000000000
          8  -0.166666667  -0.166666667   0.000000000
          9  -0.166666667   0.000000000  -0.166666667
         10   0.000000000  -0.166666667  -0.166666667
         11   0.000000000   0.166666667  -0.166666667
         12   0.166666667   0.000000000  -0.166666667

     Diagonalizing the dynamical matrix

     q = (    0.000000000  -0.166666667   0.166666667 ) 

 **************************************************************************
     freq (    1) =       0.678061 [THz] =      22.617692 [cm-1]
     freq (    2) =       1.594603 [THz] =      53.190235 [cm-1]
     freq (    3) =       2.739368 [THz] =      91.375495 [cm-1]
 **************************************************************************

     Mode symmetry, C_2v (mm2)  point group:

     freq (  1 -  1) =         22.6  [cm-1]   --> B_1  D_3  S_3      
     freq (  2 -  2) =         53.2  [cm-1]   --> B_2  D_4  S_4      
     freq (  3 -  3) =         91.4  [cm-1]   --> A_1  D_1  S_1      

     Calculation of q =    0.0000000  -0.3333333   0.3333333

   Info: using nr1, nr2, nr3 values from input

   Info: using nr1, nr2, nr3 values from input

     Parallelization info
     --------------------
     sticks:   dense  smooth     PW     G-vecs:    dense   smooth      PW
     Min          59      29     10                 1171      411      88
     Max          60      30     11                 1173      415      91
     Sum         949     475    173                18749     6603    1433



     bravais-lattice index     =            3
     lattice parameter (alat)  =       7.2900  a.u.
     unit-cell volume          =     193.7102 (a.u.)^3
     number of atoms/cell      =            1
     number of atomic types    =            1
     number of electrons       =         9.00
     number of Kohn-Sham states=            9
     kinetic-energy cutoff     =      40.0000  Ry
     charge density cutoff     =     320.0000  Ry
     Exchange-correlation      = SLA  PW   PBE  PBE ( 1  4  3  4 0 0)

     celldm(1)=   7.290000  celldm(2)=   0.000000  celldm(3)=   0.000000
     celldm(4)=   0.000000  celldm(5)=   0.000000  celldm(6)=   0.000000

     crystal axes: (cart. coord. in units of alat)
               a(1) = (   0.500000   0.500000   0.500000 )  
               a(2) = (  -0.500000   0.500000   0.500000 )  
               a(3) = (  -0.500000  -0.500000   0.500000 )  

     reciprocal axes: (cart. coord. in units 2 pi/alat)
               b(1) = (  1.000000  0.000000  1.000000 )  
               b(2) = ( -1.000000  1.000000  0.000000 )  
               b(3) = (  0.000000 -1.000000  1.000000 )  


     PseudoPot. # 1 for Na read from file:
     /home/s1333534/quantum_espresso/qe-6.1/pseudo/Na_pbe_v1.uspp.F.UPF
     MD5 check sum: 76a99c7e9422403d3e93cbc85ab7bccb
     Pseudo is Ultrasoft, Zval =  9.0
     Generated by new atomic code, or converted to UPF format
     Using radial grid of  819 points,  5 beta functions with: 
                l(1) =   0
                l(2) =   0
                l(3) =   1
                l(4) =   1
                l(5) =   2
     Q(r) pseudized with  8 coefficients,  rinner =    1.250   1.250   1.250
                                                       1.250   1.250

     atomic species   valence    mass     pseudopotential
        Na             9.00    22.99000     Na( 1.00)

     48 Sym. Ops., with inversion, found



   Cartesian axes

     site n.     atom                  positions (alat units)
         1           Na  tau(   1) = (   0.0000000   0.0000000   0.0000000  )

     number of k points=  4400  Marzari-Vanderbilt smearing, width (Ry)=  0.0200

     Number of k-points >= 100: set verbosity='high' to print them.

     Dense  grid:    18749 G-vectors     FFT dimensions: (  36,  36,  36)

     Smooth grid:     6603 G-vectors     FFT dimensions: (  25,  25,  25)

     Estimated max dynamical RAM per process >       0.64MB

     Estimated total allocated dynamical RAM >      41.20MB

     The potential is recalculated from file :
     ./_ph0/na.bcc.save/charge-density.dat

     Starting wfc are    5 atomic +    4 random wfc

     Band Structure Calculation
     Davidson diagonalization with overlap

     ethr =  1.11E-10,  avg # of iterations = 19.1

     total cpu time spent up to now is      133.1 secs

     End of band structure calculation

     Number of k-points >= 100: set verbosity='high' to print the bands.

     the Fermi energy is     2.8307 ev

     Writing output data file na.bcc.save

                                                                                

     bravais-lattice index     =            3
     lattice parameter (alat)  =       7.2900  a.u.
     unit-cell volume          =     193.7102 (a.u.)^3
     number of atoms/cell      =            1
     number of atomic types    =            1
     kinetic-energy cut-off    =      40.0000  Ry
     charge density cut-off    =     320.0000  Ry
     convergence threshold     =      1.0E-16
     beta                      =       0.7000
     number of iterations used =            4
     Exchange-correlation      = SLA  PW   PBE  PBE ( 1  4  3  4 0 0)


     celldm(1)=    7.29000  celldm(2)=    0.00000  celldm(3)=    0.00000
     celldm(4)=    0.00000  celldm(5)=    0.00000  celldm(6)=    0.00000

     crystal axes: (cart. coord. in units of alat)
               a(1) = (  0.5000  0.5000  0.5000 )  
               a(2) = ( -0.5000  0.5000  0.5000 )  
               a(3) = ( -0.5000 -0.5000  0.5000 )  

     reciprocal axes: (cart. coord. in units 2 pi/alat)
               b(1) = (  1.0000  0.0000  1.0000 )  
               b(2) = ( -1.0000  1.0000  0.0000 )  
               b(3) = (  0.0000 -1.0000  1.0000 )  


     Atoms inside the unit cell: 

     Cartesian axes

     site n.  atom      mass           positions (alat units)
        1     Na  22.9900   tau(    1) = (    0.00000    0.00000    0.00000  )

     Computing dynamical matrix for 
                    q = (   0.0000000  -0.3333333   0.3333333 )

      4 Sym.Ops. (no q -> -q+G )


     G cutoff =  430.7698  (   1172 G-vectors)     FFT grid: ( 36, 36, 36)
     G cutoff =  215.3849  (    415 G-vectors)  smooth grid: ( 25, 25, 25)

     number of k points=  4400  Marzari-Vanderbilt smearing, width (Ry)=  0.0200

     PseudoPot. # 1 for Na read from file:
     /home/s1333534/quantum_espresso/qe-6.1/pseudo/Na_pbe_v1.uspp.F.UPF
     MD5 check sum: 76a99c7e9422403d3e93cbc85ab7bccb
     Pseudo is Ultrasoft, Zval =  9.0
     Generated by new atomic code, or converted to UPF format
     Using radial grid of  819 points,  5 beta functions with: 
                l(1) =   0
                l(2) =   0
                l(3) =   1
                l(4) =   1
                l(5) =   2
     Q(r) pseudized with  8 coefficients,  rinner =    1.250   1.250   1.250
                                                       1.250   1.250

     Mode symmetry, C_2v (mm2)  point group:


     Atomic displacements:
     There are   3 irreducible representations

     Representation     1      1 modes -A_1  D_1  S_1  To be done

     Representation     2      1 modes -B_1  D_3  S_3  To be done

     Representation     3      1 modes -B_2  D_4  S_4  To be done



     Alpha used in Ewald sum =   2.8000
     PHONON       :  6m 0.26s CPU     6m31.83s WALL



     Representation #  1 mode #   1

     Self-consistent Calculation

      iter #   1 total cpu time :   399.1 secs   av.it.:   5.7
      thresh= 1.000E-02 alpha_mix =  0.700 |ddv_scf|^2 =  5.468E-04

      iter #   2 total cpu time :   406.7 secs   av.it.:   6.7
      thresh= 2.338E-03 alpha_mix =  0.700 |ddv_scf|^2 =  2.840E-03

      iter #   3 total cpu time :   413.5 secs   av.it.:   5.9
      thresh= 5.329E-03 alpha_mix =  0.700 |ddv_scf|^2 =  5.833E-07

      iter #   4 total cpu time :   421.6 secs   av.it.:   7.7
      thresh= 7.637E-05 alpha_mix =  0.700 |ddv_scf|^2 =  8.753E-09

      iter #   5 total cpu time :   430.2 secs   av.it.:   8.2
      thresh= 9.356E-06 alpha_mix =  0.700 |ddv_scf|^2 =  5.934E-10

      iter #   6 total cpu time :   438.5 secs   av.it.:   8.0
      thresh= 2.436E-06 alpha_mix =  0.700 |ddv_scf|^2 =  1.547E-11

      iter #   7 total cpu time :   447.5 secs   av.it.:   7.7
      thresh= 3.933E-07 alpha_mix =  0.700 |ddv_scf|^2 =  3.640E-14

      iter #   8 total cpu time :   456.4 secs   av.it.:   7.7
      thresh= 1.908E-08 alpha_mix =  0.700 |ddv_scf|^2 =  2.375E-14

      iter #   9 total cpu time :   464.9 secs   av.it.:   6.9
      thresh= 1.541E-08 alpha_mix =  0.700 |ddv_scf|^2 =  1.481E-14

      iter #  10 total cpu time :   472.5 secs   av.it.:   7.1
      thresh= 1.217E-08 alpha_mix =  0.700 |ddv_scf|^2 =  2.464E-15

      iter #  11 total cpu time :   479.9 secs   av.it.:   6.9
      thresh= 4.964E-09 alpha_mix =  0.700 |ddv_scf|^2 =  1.614E-18

     End of self-consistent calculation

     Convergence has been achieved 


     Representation #  2 mode #   2

     Self-consistent Calculation

      iter #   1 total cpu time :   487.2 secs   av.it.:   5.5
      thresh= 1.000E-02 alpha_mix =  0.700 |ddv_scf|^2 =  1.225E-05

      iter #   2 total cpu time :   495.4 secs   av.it.:   7.7
      thresh= 3.500E-04 alpha_mix =  0.700 |ddv_scf|^2 =  2.161E-07

      iter #   3 total cpu time :   503.8 secs   av.it.:   7.9
      thresh= 4.648E-05 alpha_mix =  0.700 |ddv_scf|^2 =  4.455E-09

      iter #   4 total cpu time :   511.6 secs   av.it.:   7.4
      thresh= 6.675E-06 alpha_mix =  0.700 |ddv_scf|^2 =  1.539E-11

      iter #   5 total cpu time :   519.7 secs   av.it.:   7.7
      thresh= 3.923E-07 alpha_mix =  0.700 |ddv_scf|^2 =  2.710E-14

      iter #   6 total cpu time :   527.9 secs   av.it.:   7.5
      thresh= 1.646E-08 alpha_mix =  0.700 |ddv_scf|^2 =  7.077E-16

      iter #   7 total cpu time :   535.9 secs   av.it.:   7.7
      thresh= 2.660E-09 alpha_mix =  0.700 |ddv_scf|^2 =  5.856E-19

     End of self-consistent calculation

     Convergence has been achieved 


     Representation #  3 mode #   3

     Self-consistent Calculation

      iter #   1 total cpu time :   543.2 secs   av.it.:   5.5
      thresh= 1.000E-02 alpha_mix =  0.700 |ddv_scf|^2 =  1.357E-05

      iter #   2 total cpu time :   551.2 secs   av.it.:   7.7
      thresh= 3.684E-04 alpha_mix =  0.700 |ddv_scf|^2 =  2.117E-07

      iter #   3 total cpu time :   559.5 secs   av.it.:   7.9
      thresh= 4.601E-05 alpha_mix =  0.700 |ddv_scf|^2 =  8.067E-09

      iter #   4 total cpu time :   567.4 secs   av.it.:   7.5
      thresh= 8.982E-06 alpha_mix =  0.700 |ddv_scf|^2 =  2.865E-11

      iter #   5 total cpu time :   576.0 secs   av.it.:   7.8
      thresh= 5.353E-07 alpha_mix =  0.700 |ddv_scf|^2 =  3.510E-14

      iter #   6 total cpu time :   583.5 secs   av.it.:   6.7
      thresh= 1.873E-08 alpha_mix =  0.700 |ddv_scf|^2 =  2.033E-15

      iter #   7 total cpu time :   591.5 secs   av.it.:   7.6
      thresh= 4.509E-09 alpha_mix =  0.700 |ddv_scf|^2 =  2.156E-18

     End of self-consistent calculation

     Convergence has been achieved 

     Number of q in the star =   12
     List of q in the star:
          1   0.000000000  -0.333333333   0.333333333
          2  -0.333333333   0.000000000   0.333333333
          3   0.333333333   0.000000000   0.333333333
          4   0.000000000   0.333333333   0.333333333
          5   0.333333333   0.333333333   0.000000000
          6  -0.333333333   0.333333333   0.000000000
          7   0.333333333  -0.333333333   0.000000000
          8  -0.333333333  -0.333333333   0.000000000
          9  -0.333333333   0.000000000  -0.333333333
         10   0.000000000  -0.333333333  -0.333333333
         11   0.000000000   0.333333333  -0.333333333
         12   0.333333333   0.000000000  -0.333333333

     Diagonalizing the dynamical matrix

     q = (    0.000000000  -0.333333333   0.333333333 ) 

 **************************************************************************
     freq (    1) =       1.087144 [THz] =      36.263205 [cm-1]
     freq (    2) =       2.739097 [THz] =      91.366440 [cm-1]
     freq (    3) =       4.794047 [THz] =     159.912187 [cm-1]
 **************************************************************************

     Mode symmetry, C_2v (mm2)  point group:

     freq (  1 -  1) =         36.3  [cm-1]   --> B_1  D_3  S_3      
     freq (  2 -  2) =         91.4  [cm-1]   --> B_2  D_4  S_4      
     freq (  3 -  3) =        159.9  [cm-1]   --> A_1  D_1  S_1      

     Calculation of q =    0.0000000   0.5000000  -0.5000000

   Info: using nr1, nr2, nr3 values from input

   Info: using nr1, nr2, nr3 values from input

     Parallelization info
     --------------------
     sticks:   dense  smooth     PW     G-vecs:    dense   smooth      PW
     Min          59      29     10                 1171      411      91
     Max          60      30     11                 1173      415      95
     Sum         949     475    173                18749     6603    1505



     bravais-lattice index     =            3
     lattice parameter (alat)  =       7.2900  a.u.
     unit-cell volume          =     193.7102 (a.u.)^3
     number of atoms/cell      =            1
     number of atomic types    =            1
     number of electrons       =         9.00
     number of Kohn-Sham states=            9
     kinetic-energy cutoff     =      40.0000  Ry
     charge density cutoff     =     320.0000  Ry
     Exchange-correlation      = SLA  PW   PBE  PBE ( 1  4  3  4 0 0)

     celldm(1)=   7.290000  celldm(2)=   0.000000  celldm(3)=   0.000000
     celldm(4)=   0.000000  celldm(5)=   0.000000  celldm(6)=   0.000000

     crystal axes: (cart. coord. in units of alat)
               a(1) = (   0.500000   0.500000   0.500000 )  
               a(2) = (  -0.500000   0.500000   0.500000 )  
               a(3) = (  -0.500000  -0.500000   0.500000 )  

     reciprocal axes: (cart. coord. in units 2 pi/alat)
               b(1) = (  1.000000  0.000000  1.000000 )  
               b(2) = ( -1.000000  1.000000  0.000000 )  
               b(3) = (  0.000000 -1.000000  1.000000 )  


     PseudoPot. # 1 for Na read from file:
     /home/s1333534/quantum_espresso/qe-6.1/pseudo/Na_pbe_v1.uspp.F.UPF
     MD5 check sum: 76a99c7e9422403d3e93cbc85ab7bccb
     Pseudo is Ultrasoft, Zval =  9.0
     Generated by new atomic code, or converted to UPF format
     Using radial grid of  819 points,  5 beta functions with: 
                l(1) =   0
                l(2) =   0
                l(3) =   1
                l(4) =   1
                l(5) =   2
     Q(r) pseudized with  8 coefficients,  rinner =    1.250   1.250   1.250
                                                       1.250   1.250

     atomic species   valence    mass     pseudopotential
        Na             9.00    22.99000     Na( 1.00)

     48 Sym. Ops., with inversion, found



   Cartesian axes

     site n.     atom                  positions (alat units)
         1           Na  tau(   1) = (   0.0000000   0.0000000   0.0000000  )

     number of k points=  2310  Marzari-Vanderbilt smearing, width (Ry)=  0.0200

     Number of k-points >= 100: set verbosity='high' to print them.

     Dense  grid:    18749 G-vectors     FFT dimensions: (  36,  36,  36)

     Smooth grid:     6603 G-vectors     FFT dimensions: (  25,  25,  25)

     Estimated max dynamical RAM per process >       0.64MB

     Estimated total allocated dynamical RAM >      41.20MB

     The potential is recalculated from file :
     ./_ph0/na.bcc.save/charge-density.dat

     Starting wfc are    5 atomic +    4 random wfc

     Band Structure Calculation
     Davidson diagonalization with overlap

     ethr =  1.11E-10,  avg # of iterations = 19.2

     total cpu time spent up to now is      177.8 secs

     End of band structure calculation

     Number of k-points >= 100: set verbosity='high' to print the bands.

     the Fermi energy is     2.8307 ev

     Writing output data file na.bcc.save

                                                                                

     bravais-lattice index     =            3
     lattice parameter (alat)  =       7.2900  a.u.
     unit-cell volume          =     193.7102 (a.u.)^3
     number of atoms/cell      =            1
     number of atomic types    =            1
     kinetic-energy cut-off    =      40.0000  Ry
     charge density cut-off    =     320.0000  Ry
     convergence threshold     =      1.0E-16
     beta                      =       0.7000
     number of iterations used =            4
     Exchange-correlation      = SLA  PW   PBE  PBE ( 1  4  3  4 0 0)


     celldm(1)=    7.29000  celldm(2)=    0.00000  celldm(3)=    0.00000
     celldm(4)=    0.00000  celldm(5)=    0.00000  celldm(6)=    0.00000

     crystal axes: (cart. coord. in units of alat)
               a(1) = (  0.5000  0.5000  0.5000 )  
               a(2) = ( -0.5000  0.5000  0.5000 )  
               a(3) = ( -0.5000 -0.5000  0.5000 )  

     reciprocal axes: (cart. coord. in units 2 pi/alat)
               b(1) = (  1.0000  0.0000  1.0000 )  
               b(2) = ( -1.0000  1.0000  0.0000 )  
               b(3) = (  0.0000 -1.0000  1.0000 )  


     Atoms inside the unit cell: 

     Cartesian axes

     site n.  atom      mass           positions (alat units)
        1     Na  22.9900   tau(    1) = (    0.00000    0.00000    0.00000  )

     Computing dynamical matrix for 
                    q = (   0.0000000   0.5000000  -0.5000000 )

      9 Sym.Ops. (with q -> -q+G )


     G cutoff =  430.7698  (   1172 G-vectors)     FFT grid: ( 36, 36, 36)
     G cutoff =  215.3849  (    415 G-vectors)  smooth grid: ( 25, 25, 25)

     number of k points=  2310  Marzari-Vanderbilt smearing, width (Ry)=  0.0200

     PseudoPot. # 1 for Na read from file:
     /home/s1333534/quantum_espresso/qe-6.1/pseudo/Na_pbe_v1.uspp.F.UPF
     MD5 check sum: 76a99c7e9422403d3e93cbc85ab7bccb
     Pseudo is Ultrasoft, Zval =  9.0
     Generated by new atomic code, or converted to UPF format
     Using radial grid of  819 points,  5 beta functions with: 
                l(1) =   0
                l(2) =   0
                l(3) =   1
                l(4) =   1
                l(5) =   2
     Q(r) pseudized with  8 coefficients,  rinner =    1.250   1.250   1.250
                                                       1.250   1.250

     Mode symmetry, D_2h (mmm)  point group:


     Atomic displacements:
     There are   3 irreducible representations

     Representation     1      1 modes -B_1u  To be done

     Representation     2      1 modes -B_2u  To be done

     Representation     3      1 modes -B_3u  To be done



     Alpha used in Ewald sum =   2.8000
     PHONON       :  9m38.38s CPU    10m32.28s WALL



     Representation #  1 mode #   1

     Self-consistent Calculation

      iter #   1 total cpu time :   636.1 secs   av.it.:   5.5
      thresh= 1.000E-02 alpha_mix =  0.700 |ddv_scf|^2 =  1.426E-05

      iter #   2 total cpu time :   640.3 secs   av.it.:   7.7
      thresh= 3.776E-04 alpha_mix =  0.700 |ddv_scf|^2 =  2.069E-07

      iter #   3 total cpu time :   644.8 secs   av.it.:   7.8
      thresh= 4.548E-05 alpha_mix =  0.700 |ddv_scf|^2 =  1.035E-08

      iter #   4 total cpu time :   648.9 secs   av.it.:   7.3
      thresh= 1.017E-05 alpha_mix =  0.700 |ddv_scf|^2 =  3.670E-11

      iter #   5 total cpu time :   653.3 secs   av.it.:   7.6
      thresh= 6.058E-07 alpha_mix =  0.700 |ddv_scf|^2 =  3.749E-14

      iter #   6 total cpu time :   657.1 secs   av.it.:   6.7
      thresh= 1.936E-08 alpha_mix =  0.700 |ddv_scf|^2 =  2.392E-15

      iter #   7 total cpu time :   661.3 secs   av.it.:   7.4
      thresh= 4.891E-09 alpha_mix =  0.700 |ddv_scf|^2 =  2.055E-18

     End of self-consistent calculation

     Convergence has been achieved 


     Representation #  2 mode #   2

     Self-consistent Calculation

      iter #   1 total cpu time :   665.7 secs   av.it.:   5.5
      thresh= 1.000E-02 alpha_mix =  0.700 |ddv_scf|^2 =  1.246E-05

      iter #   2 total cpu time :   670.0 secs   av.it.:   7.7
      thresh= 3.530E-04 alpha_mix =  0.700 |ddv_scf|^2 =  2.114E-07

      iter #   3 total cpu time :   674.4 secs   av.it.:   7.9
      thresh= 4.598E-05 alpha_mix =  0.700 |ddv_scf|^2 =  5.217E-09

      iter #   4 total cpu time :   678.5 secs   av.it.:   7.2
      thresh= 7.223E-06 alpha_mix =  0.700 |ddv_scf|^2 =  1.688E-11

      iter #   5 total cpu time :   682.7 secs   av.it.:   7.6
      thresh= 4.108E-07 alpha_mix =  0.700 |ddv_scf|^2 =  2.375E-14

      iter #   6 total cpu time :   686.8 secs   av.it.:   7.3
      thresh= 1.541E-08 alpha_mix =  0.700 |ddv_scf|^2 =  6.794E-16

      iter #   7 total cpu time :   691.1 secs   av.it.:   7.6
      thresh= 2.606E-09 alpha_mix =  0.700 |ddv_scf|^2 =  2.727E-19

     End of self-consistent calculation

     Convergence has been achieved 


     Representation #  3 mode #   3

     Self-consistent Calculation

      iter #   1 total cpu time :   695.2 secs   av.it.:   5.7
      thresh= 1.000E-02 alpha_mix =  0.700 |ddv_scf|^2 =  1.117E-04

      iter #   2 total cpu time :   700.1 secs   av.it.:   6.8
      thresh= 1.057E-03 alpha_mix =  0.700 |ddv_scf|^2 =  5.360E-05

      iter #   3 total cpu time :   704.1 secs   av.it.:   6.7
      thresh= 7.321E-04 alpha_mix =  0.700 |ddv_scf|^2 =  7.840E-08

      iter #   4 total cpu time :   708.5 secs   av.it.:   7.7
      thresh= 2.800E-05 alpha_mix =  0.700 |ddv_scf|^2 =  2.558E-10

      iter #   5 total cpu time :   712.4 secs   av.it.:   6.6
      thresh= 1.599E-06 alpha_mix =  0.700 |ddv_scf|^2 =  5.410E-12

      iter #   6 total cpu time :   716.2 secs   av.it.:   6.8
      thresh= 2.326E-07 alpha_mix =  0.700 |ddv_scf|^2 =  1.704E-14

      iter #   7 total cpu time :   720.3 secs   av.it.:   7.1
      thresh= 1.305E-08 alpha_mix =  0.700 |ddv_scf|^2 =  3.611E-17

     End of self-consistent calculation

     Convergence has been achieved 

     Number of q in the star =    6
     List of q in the star:
          1   0.000000000   0.500000000  -0.500000000
          2  -0.500000000  -0.500000000   0.000000000
          3   0.500000000  -0.500000000   0.000000000
          4   0.500000000   0.000000000   0.500000000
          5   0.000000000  -0.500000000  -0.500000000
          6   0.500000000   0.000000000  -0.500000000

     Diagonalizing the dynamical matrix

     q = (    0.000000000   0.500000000  -0.500000000 ) 

 **************************************************************************
     freq (    1) =       1.222816 [THz] =      40.788761 [cm-1]
     freq (    2) =       3.159210 [THz] =     105.379912 [cm-1]
     freq (    3) =       5.548850 [THz] =     185.089728 [cm-1]
 **************************************************************************

     Mode symmetry, D_2h (mmm)  point group:

     freq (  1 -  1) =         40.8  [cm-1]   --> B_2u               
     freq (  2 -  2) =        105.4  [cm-1]   --> B_1u               
     freq (  3 -  3) =        185.1  [cm-1]   --> B_3u               

     Calculation of q =   -0.1666667  -0.1666667   0.3333333

   Info: using nr1, nr2, nr3 values from input

   Info: using nr1, nr2, nr3 values from input

     Parallelization info
     --------------------
     sticks:   dense  smooth     PW     G-vecs:    dense   smooth      PW
     Min          59      29     10                 1171      411      87
     Max          60      30     11                 1174      415      89
     Sum         949     475    169                18749     6603    1409



     bravais-lattice index     =            3
     lattice parameter (alat)  =       7.2900  a.u.
     unit-cell volume          =     193.7102 (a.u.)^3
     number of atoms/cell      =            1
     number of atomic types    =            1
     number of electrons       =         9.00
     number of Kohn-Sham states=            9
     kinetic-energy cutoff     =      40.0000  Ry
     charge density cutoff     =     320.0000  Ry
     Exchange-correlation      = SLA  PW   PBE  PBE ( 1  4  3  4 0 0)

     celldm(1)=   7.290000  celldm(2)=   0.000000  celldm(3)=   0.000000
     celldm(4)=   0.000000  celldm(5)=   0.000000  celldm(6)=   0.000000

     crystal axes: (cart. coord. in units of alat)
               a(1) = (   0.500000   0.500000   0.500000 )  
               a(2) = (  -0.500000   0.500000   0.500000 )  
               a(3) = (  -0.500000  -0.500000   0.500000 )  

     reciprocal axes: (cart. coord. in units 2 pi/alat)
               b(1) = (  1.000000  0.000000  1.000000 )  
               b(2) = ( -1.000000  1.000000  0.000000 )  
               b(3) = (  0.000000 -1.000000  1.000000 )  


     PseudoPot. # 1 for Na read from file:
     /home/s1333534/quantum_espresso/qe-6.1/pseudo/Na_pbe_v1.uspp.F.UPF
     MD5 check sum: 76a99c7e9422403d3e93cbc85ab7bccb
     Pseudo is Ultrasoft, Zval =  9.0
     Generated by new atomic code, or converted to UPF format
     Using radial grid of  819 points,  5 beta functions with: 
                l(1) =   0
                l(2) =   0
                l(3) =   1
                l(4) =   1
                l(5) =   2
     Q(r) pseudized with  8 coefficients,  rinner =    1.250   1.250   1.250
                                                       1.250   1.250

     atomic species   valence    mass     pseudopotential
        Na             9.00    22.99000     Na( 1.00)

     48 Sym. Ops., with inversion, found



   Cartesian axes

     site n.     atom                  positions (alat units)
         1           Na  tau(   1) = (   0.0000000   0.0000000   0.0000000  )

     number of k points=  8400  Marzari-Vanderbilt smearing, width (Ry)=  0.0200

     Number of k-points >= 100: set verbosity='high' to print them.

     Dense  grid:    18749 G-vectors     FFT dimensions: (  36,  36,  36)

     Smooth grid:     6603 G-vectors     FFT dimensions: (  25,  25,  25)

     Estimated max dynamical RAM per process >       0.64MB

     Estimated total allocated dynamical RAM >      41.20MB

     The potential is recalculated from file :
     ./_ph0/na.bcc.save/charge-density.dat

     Starting wfc are    5 atomic +    4 random wfc

     Band Structure Calculation
     Davidson diagonalization with overlap

     ethr =  1.11E-10,  avg # of iterations = 19.2

     total cpu time spent up to now is      299.2 secs

     End of band structure calculation

     Number of k-points >= 100: set verbosity='high' to print the bands.

     the Fermi energy is     2.8307 ev

     Writing output data file na.bcc.save

                                                                                

     bravais-lattice index     =            3
     lattice parameter (alat)  =       7.2900  a.u.
     unit-cell volume          =     193.7102 (a.u.)^3
     number of atoms/cell      =            1
     number of atomic types    =            1
     kinetic-energy cut-off    =      40.0000  Ry
     charge density cut-off    =     320.0000  Ry
     convergence threshold     =      1.0E-16
     beta                      =       0.7000
     number of iterations used =            4
     Exchange-correlation      = SLA  PW   PBE  PBE ( 1  4  3  4 0 0)


     celldm(1)=    7.29000  celldm(2)=    0.00000  celldm(3)=    0.00000
     celldm(4)=    0.00000  celldm(5)=    0.00000  celldm(6)=    0.00000

     crystal axes: (cart. coord. in units of alat)
               a(1) = (  0.5000  0.5000  0.5000 )  
               a(2) = ( -0.5000  0.5000  0.5000 )  
               a(3) = ( -0.5000 -0.5000  0.5000 )  

     reciprocal axes: (cart. coord. in units 2 pi/alat)
               b(1) = (  1.0000  0.0000  1.0000 )  
               b(2) = ( -1.0000  1.0000  0.0000 )  
               b(3) = (  0.0000 -1.0000  1.0000 )  


     Atoms inside the unit cell: 

     Cartesian axes

     site n.  atom      mass           positions (alat units)
        1     Na  22.9900   tau(    1) = (    0.00000    0.00000    0.00000  )

     Computing dynamical matrix for 
                    q = (  -0.1666667  -0.1666667   0.3333333 )

      2 Sym.Ops. (no q -> -q+G )


     G cutoff =  430.7698  (   1172 G-vectors)     FFT grid: ( 36, 36, 36)
     G cutoff =  215.3849  (    415 G-vectors)  smooth grid: ( 25, 25, 25)

     number of k points=  8400  Marzari-Vanderbilt smearing, width (Ry)=  0.0200

     PseudoPot. # 1 for Na read from file:
     /home/s1333534/quantum_espresso/qe-6.1/pseudo/Na_pbe_v1.uspp.F.UPF
     MD5 check sum: 76a99c7e9422403d3e93cbc85ab7bccb
     Pseudo is Ultrasoft, Zval =  9.0
     Generated by new atomic code, or converted to UPF format
     Using radial grid of  819 points,  5 beta functions with: 
                l(1) =   0
                l(2) =   0
                l(3) =   1
                l(4) =   1
                l(5) =   2
     Q(r) pseudized with  8 coefficients,  rinner =    1.250   1.250   1.250
                                                       1.250   1.250

     Mode symmetry, C_s (m)     point group:


     Atomic displacements:
     There are   3 irreducible representations

     Representation     1      1 modes -A'  To be done

     Representation     2      1 modes -A'  To be done

     Representation     3      1 modes -A''  To be done



     Alpha used in Ewald sum =   2.8000
     PHONON       : 13m13.40s CPU    14m24.95s WALL



     Representation #  1 mode #   1

     Self-consistent Calculation

      iter #   1 total cpu time :   878.7 secs   av.it.:   5.6
      thresh= 1.000E-02 alpha_mix =  0.700 |ddv_scf|^2 =  1.358E-04

      iter #   2 total cpu time :   893.5 secs   av.it.:   7.3
      thresh= 1.165E-03 alpha_mix =  0.700 |ddv_scf|^2 =  1.350E-03

      iter #   3 total cpu time :   905.8 secs   av.it.:   5.5
      thresh= 3.675E-03 alpha_mix =  0.700 |ddv_scf|^2 =  1.577E-07

      iter #   4 total cpu time :   922.1 secs   av.it.:   8.3
      thresh= 3.972E-05 alpha_mix =  0.700 |ddv_scf|^2 =  5.449E-09

      iter #   5 total cpu time :   937.5 secs   av.it.:   7.9
      thresh= 7.382E-06 alpha_mix =  0.700 |ddv_scf|^2 =  2.136E-10

      iter #   6 total cpu time :   953.8 secs   av.it.:   8.2
      thresh= 1.461E-06 alpha_mix =  0.700 |ddv_scf|^2 =  2.259E-11

      iter #   7 total cpu time :   969.2 secs   av.it.:   7.7
      thresh= 4.753E-07 alpha_mix =  0.700 |ddv_scf|^2 =  5.105E-11

      iter #   8 total cpu time :   983.7 secs   av.it.:   7.1
      thresh= 7.145E-07 alpha_mix =  0.700 |ddv_scf|^2 =  3.813E-11

      iter #   9 total cpu time :   998.0 secs   av.it.:   6.6
      thresh= 6.175E-07 alpha_mix =  0.700 |ddv_scf|^2 =  1.055E-12

      iter #  10 total cpu time :  1012.5 secs   av.it.:   7.2
      thresh= 1.027E-07 alpha_mix =  0.700 |ddv_scf|^2 =  5.903E-15

      iter #  11 total cpu time :  1028.9 secs   av.it.:   8.1
      thresh= 7.683E-09 alpha_mix =  0.700 |ddv_scf|^2 =  2.409E-16

      iter #  12 total cpu time :  1043.8 secs   av.it.:   7.7
      thresh= 1.552E-09 alpha_mix =  0.700 |ddv_scf|^2 =  1.790E-17

     End of self-consistent calculation

     Convergence has been achieved 


     Representation #  2 mode #   2

     Self-consistent Calculation

      iter #   1 total cpu time :  1058.4 secs   av.it.:   5.8
      thresh= 1.000E-02 alpha_mix =  0.700 |ddv_scf|^2 =  1.109E-03

      iter #   2 total cpu time :  1072.2 secs   av.it.:   6.6
      thresh= 3.330E-03 alpha_mix =  0.700 |ddv_scf|^2 =  1.197E-02

      iter #   3 total cpu time :  1084.5 secs   av.it.:   5.5
      thresh= 1.000E-02 alpha_mix =  0.700 |ddv_scf|^2 =  1.200E-06

      iter #   4 total cpu time :  1099.8 secs   av.it.:   7.6
      thresh= 1.095E-04 alpha_mix =  0.700 |ddv_scf|^2 =  6.179E-09

      iter #   5 total cpu time :  1116.0 secs   av.it.:   8.3
      thresh= 7.861E-06 alpha_mix =  0.700 |ddv_scf|^2 =  9.515E-10

      iter #   6 total cpu time :  1132.0 secs   av.it.:   8.0
      thresh= 3.085E-06 alpha_mix =  0.700 |ddv_scf|^2 =  1.393E-11

      iter #   7 total cpu time :  1147.7 secs   av.it.:   8.1
      thresh= 3.733E-07 alpha_mix =  0.700 |ddv_scf|^2 =  4.198E-12

      iter #   8 total cpu time :  1162.3 secs   av.it.:   7.2
      thresh= 2.049E-07 alpha_mix =  0.700 |ddv_scf|^2 =  1.053E-11

      iter #   9 total cpu time :  1176.2 secs   av.it.:   6.8
      thresh= 3.245E-07 alpha_mix =  0.700 |ddv_scf|^2 =  1.369E-12

      iter #  10 total cpu time :  1190.3 secs   av.it.:   6.9
      thresh= 1.170E-07 alpha_mix =  0.700 |ddv_scf|^2 =  4.510E-14

      iter #  11 total cpu time :  1205.6 secs   av.it.:   7.7
      thresh= 2.124E-08 alpha_mix =  0.700 |ddv_scf|^2 =  2.363E-16

      iter #  12 total cpu time :  1220.9 secs   av.it.:   7.7
      thresh= 1.537E-09 alpha_mix =  0.700 |ddv_scf|^2 =  2.420E-17

     End of self-consistent calculation

     Convergence has been achieved 


     Representation #  3 mode #   3

     Self-consistent Calculation

      iter #   1 total cpu time :  1234.7 secs   av.it.:   5.5
      thresh= 1.000E-02 alpha_mix =  0.700 |ddv_scf|^2 =  1.434E-05

      iter #   2 total cpu time :  1250.3 secs   av.it.:   7.8
      thresh= 3.787E-04 alpha_mix =  0.700 |ddv_scf|^2 =  2.001E-07

      iter #   3 total cpu time :  1266.1 secs   av.it.:   8.0
      thresh= 4.474E-05 alpha_mix =  0.700 |ddv_scf|^2 =  9.213E-09

      iter #   4 total cpu time :  1281.4 secs   av.it.:   7.7
      thresh= 9.599E-06 alpha_mix =  0.700 |ddv_scf|^2 =  7.422E-11

      iter #   5 total cpu time :  1296.4 secs   av.it.:   7.5
      thresh= 8.615E-07 alpha_mix =  0.700 |ddv_scf|^2 =  7.109E-14

      iter #   6 total cpu time :  1311.2 secs   av.it.:   7.4
      thresh= 2.666E-08 alpha_mix =  0.700 |ddv_scf|^2 =  3.332E-15

      iter #   7 total cpu time :  1326.2 secs   av.it.:   7.4
      thresh= 5.772E-09 alpha_mix =  0.700 |ddv_scf|^2 =  1.210E-17

     End of self-consistent calculation

     Convergence has been achieved 

     Number of q in the star =   24
     List of q in the star:
          1  -0.166666667  -0.166666667   0.333333333
          2  -0.166666667  -0.333333333   0.166666667
          3   0.166666667  -0.333333333   0.166666667
          4  -0.166666667   0.333333333  -0.166666667
          5   0.166666667   0.333333333  -0.166666667
          6   0.166666667   0.166666667  -0.333333333
          7  -0.166666667   0.166666667  -0.333333333
          8   0.333333333   0.166666667  -0.166666667
          9  -0.333333333   0.166666667   0.166666667
         10   0.333333333  -0.166666667   0.166666667
         11  -0.333333333  -0.166666667  -0.166666667
         12  -0.166666667  -0.166666667  -0.333333333
         13  -0.166666667   0.333333333   0.166666667
         14  -0.166666667  -0.333333333  -0.166666667
         15  -0.166666667   0.166666667   0.333333333
         16   0.166666667  -0.166666667   0.333333333
         17   0.166666667  -0.333333333  -0.166666667
         18  -0.333333333   0.166666667  -0.166666667
         19   0.333333333   0.166666667   0.166666667
         20  -0.333333333  -0.166666667   0.166666667
         21   0.333333333  -0.166666667  -0.166666667
         22   0.166666667  -0.166666667  -0.333333333
         23   0.166666667   0.166666667   0.333333333
         24   0.166666667   0.333333333   0.166666667

     Diagonalizing the dynamical matrix

     q = (   -0.166666667  -0.166666667   0.333333333 ) 

 **************************************************************************
     freq (    1) =       1.600016 [THz] =      53.370779 [cm-1]
     freq (    2) =       2.555751 [THz] =      85.250675 [cm-1]
     freq (    3) =       4.222405 [THz] =     140.844269 [cm-1]
 **************************************************************************

     Mode symmetry, C_s (m)     point group:

     freq (  1 -  1) =         53.4  [cm-1]   --> A'                 
     freq (  2 -  2) =         85.3  [cm-1]   --> A''                
     freq (  3 -  3) =        140.8  [cm-1]   --> A'                 

     Calculation of q =   -0.1666667   0.6666667  -0.5000000

   Info: using nr1, nr2, nr3 values from input

   Info: using nr1, nr2, nr3 values from input

     Parallelization info
     --------------------
     sticks:   dense  smooth     PW     G-vecs:    dense   smooth      PW
     Min          59      29     11                 1171      411      96
     Max          60      30     12                 1173      415      98
     Sum         949     475    181                18749     6603    1553



     bravais-lattice index     =            3
     lattice parameter (alat)  =       7.2900  a.u.
     unit-cell volume          =     193.7102 (a.u.)^3
     number of atoms/cell      =            1
     number of atomic types    =            1
     number of electrons       =         9.00
     number of Kohn-Sham states=            9
     kinetic-energy cutoff     =      40.0000  Ry
     charge density cutoff     =     320.0000  Ry
     Exchange-correlation      = SLA  PW   PBE  PBE ( 1  4  3  4 0 0)

     celldm(1)=   7.290000  celldm(2)=   0.000000  celldm(3)=   0.000000
     celldm(4)=   0.000000  celldm(5)=   0.000000  celldm(6)=   0.000000

     crystal axes: (cart. coord. in units of alat)
               a(1) = (   0.500000   0.500000   0.500000 )  
               a(2) = (  -0.500000   0.500000   0.500000 )  
               a(3) = (  -0.500000  -0.500000   0.500000 )  

     reciprocal axes: (cart. coord. in units 2 pi/alat)
               b(1) = (  1.000000  0.000000  1.000000 )  
               b(2) = ( -1.000000  1.000000  0.000000 )  
               b(3) = (  0.000000 -1.000000  1.000000 )  


     PseudoPot. # 1 for Na read from file:
     /home/s1333534/quantum_espresso/qe-6.1/pseudo/Na_pbe_v1.uspp.F.UPF
     MD5 check sum: 76a99c7e9422403d3e93cbc85ab7bccb
     Pseudo is Ultrasoft, Zval =  9.0
     Generated by new atomic code, or converted to UPF format
     Using radial grid of  819 points,  5 beta functions with: 
                l(1) =   0
                l(2) =   0
                l(3) =   1
                l(4) =   1
                l(5) =   2
     Q(r) pseudized with  8 coefficients,  rinner =    1.250   1.250   1.250
                                                       1.250   1.250

     atomic species   valence    mass     pseudopotential
        Na             9.00    22.99000     Na( 1.00)

     48 Sym. Ops., with inversion, found



   Cartesian axes

     site n.     atom                  positions (alat units)
         1           Na  tau(   1) = (   0.0000000   0.0000000   0.0000000  )

     number of k points= 16000  Marzari-Vanderbilt smearing, width (Ry)=  0.0200

     Number of k-points >= 100: set verbosity='high' to print them.

     Dense  grid:    18749 G-vectors     FFT dimensions: (  36,  36,  36)

     Smooth grid:     6603 G-vectors     FFT dimensions: (  25,  25,  25)

     Estimated max dynamical RAM per process >       0.64MB

     Estimated total allocated dynamical RAM >      41.20MB

     The potential is recalculated from file :
     ./_ph0/na.bcc.save/charge-density.dat

     Starting wfc are    5 atomic +    4 random wfc

     Band Structure Calculation
     Davidson diagonalization with overlap

     ethr =  1.11E-10,  avg # of iterations = 19.1

     total cpu time spent up to now is      539.3 secs

     End of band structure calculation

     Number of k-points >= 100: set verbosity='high' to print the bands.

     the Fermi energy is     2.8307 ev

     Writing output data file na.bcc.save

                                                                                

     bravais-lattice index     =            3
     lattice parameter (alat)  =       7.2900  a.u.
     unit-cell volume          =     193.7102 (a.u.)^3
     number of atoms/cell      =            1
     number of atomic types    =            1
     kinetic-energy cut-off    =      40.0000  Ry
     charge density cut-off    =     320.0000  Ry
     convergence threshold     =      1.0E-16
     beta                      =       0.7000
     number of iterations used =            4
     Exchange-correlation      = SLA  PW   PBE  PBE ( 1  4  3  4 0 0)


     celldm(1)=    7.29000  celldm(2)=    0.00000  celldm(3)=    0.00000
     celldm(4)=    0.00000  celldm(5)=    0.00000  celldm(6)=    0.00000

     crystal axes: (cart. coord. in units of alat)
               a(1) = (  0.5000  0.5000  0.5000 )  
               a(2) = ( -0.5000  0.5000  0.5000 )  
               a(3) = ( -0.5000 -0.5000  0.5000 )  

     reciprocal axes: (cart. coord. in units 2 pi/alat)
               b(1) = (  1.0000  0.0000  1.0000 )  
               b(2) = ( -1.0000  1.0000  0.0000 )  
               b(3) = (  0.0000 -1.0000  1.0000 )  


     Atoms inside the unit cell: 

     Cartesian axes

     site n.  atom      mass           positions (alat units)
        1     Na  22.9900   tau(    1) = (    0.00000    0.00000    0.00000  )

     Computing dynamical matrix for 
                    q = (  -0.1666667   0.6666667  -0.5000000 )

     No symmetry!

     G cutoff =  430.7698  (   1172 G-vectors)     FFT grid: ( 36, 36, 36)
     G cutoff =  215.3849  (    415 G-vectors)  smooth grid: ( 25, 25, 25)

     number of k points= 16000  Marzari-Vanderbilt smearing, width (Ry)=  0.0200

     PseudoPot. # 1 for Na read from file:
     /home/s1333534/quantum_espresso/qe-6.1/pseudo/Na_pbe_v1.uspp.F.UPF
     MD5 check sum: 76a99c7e9422403d3e93cbc85ab7bccb
     Pseudo is Ultrasoft, Zval =  9.0
     Generated by new atomic code, or converted to UPF format
     Using radial grid of  819 points,  5 beta functions with: 
                l(1) =   0
                l(2) =   0
                l(3) =   1
                l(4) =   1
                l(5) =   2
     Q(r) pseudized with  8 coefficients,  rinner =    1.250   1.250   1.250
                                                       1.250   1.250

     Mode symmetry, C_1 (1)     point group:


     Atomic displacements:
     There are   3 irreducible representations

     Representation     1      1 modes -A  To be done

     Representation     2      1 modes -A  To be done

     Representation     3      1 modes -A  To be done



     Alpha used in Ewald sum =   2.8000
     PHONON       : 24m29.83s CPU    26m42.85s WALL



     Representation #  1 mode #   1

     Self-consistent Calculation

      iter #   1 total cpu time :  1629.1 secs   av.it.:   5.7
      thresh= 1.000E-02 alpha_mix =  0.700 |ddv_scf|^2 =  1.576E-05

      iter #   2 total cpu time :  1659.8 secs   av.it.:   8.0
      thresh= 3.970E-04 alpha_mix =  0.700 |ddv_scf|^2 =  1.885E-06

      iter #   3 total cpu time :  1688.9 secs   av.it.:   7.6
      thresh= 1.373E-04 alpha_mix =  0.700 |ddv_scf|^2 =  7.945E-07

      iter #   4 total cpu time :  1716.7 secs   av.it.:   7.3
      thresh= 8.913E-05 alpha_mix =  0.700 |ddv_scf|^2 =  4.739E-09

      iter #   5 total cpu time :  1745.7 secs   av.it.:   7.8
      thresh= 6.884E-06 alpha_mix =  0.700 |ddv_scf|^2 =  3.818E-10

      iter #   6 total cpu time :  1775.3 secs   av.it.:   7.9
      thresh= 1.954E-06 alpha_mix =  0.700 |ddv_scf|^2 =  4.891E-12

      iter #   7 total cpu time :  1806.4 secs   av.it.:   8.3
      thresh= 2.211E-07 alpha_mix =  0.700 |ddv_scf|^2 =  2.996E-13

      iter #   8 total cpu time :  1837.4 secs   av.it.:   8.4
      thresh= 5.473E-08 alpha_mix =  0.700 |ddv_scf|^2 =  1.439E-14

      iter #   9 total cpu time :  1868.1 secs   av.it.:   8.4
      thresh= 1.200E-08 alpha_mix =  0.700 |ddv_scf|^2 =  3.280E-16

      iter #  10 total cpu time :  1896.9 secs   av.it.:   7.5
      thresh= 1.811E-09 alpha_mix =  0.700 |ddv_scf|^2 =  1.393E-16

      iter #  11 total cpu time :  1924.7 secs   av.it.:   7.3
      thresh= 1.180E-09 alpha_mix =  0.700 |ddv_scf|^2 =  2.241E-18

     End of self-consistent calculation

     Convergence has been achieved 


     Representation #  2 mode #   2

     Self-consistent Calculation

      iter #   1 total cpu time :  1951.9 secs   av.it.:   5.8
      thresh= 1.000E-02 alpha_mix =  0.700 |ddv_scf|^2 =  6.762E-05

      iter #   2 total cpu time :  1980.7 secs   av.it.:   7.5
      thresh= 8.223E-04 alpha_mix =  0.700 |ddv_scf|^2 =  5.546E-05

      iter #   3 total cpu time :  2007.5 secs   av.it.:   7.0
      thresh= 7.447E-04 alpha_mix =  0.700 |ddv_scf|^2 =  1.019E-07

      iter #   4 total cpu time :  2038.0 secs   av.it.:   8.3
      thresh= 3.192E-05 alpha_mix =  0.700 |ddv_scf|^2 =  4.085E-09

      iter #   5 total cpu time :  2068.2 secs   av.it.:   8.3
      thresh= 6.391E-06 alpha_mix =  0.700 |ddv_scf|^2 =  3.836E-10

      iter #   6 total cpu time :  2098.9 secs   av.it.:   8.2
      thresh= 1.959E-06 alpha_mix =  0.700 |ddv_scf|^2 =  9.878E-12

      iter #   7 total cpu time :  2128.1 secs   av.it.:   7.8
      thresh= 3.143E-07 alpha_mix =  0.700 |ddv_scf|^2 =  6.862E-13

      iter #   8 total cpu time :  2157.7 secs   av.it.:   7.8
      thresh= 8.284E-08 alpha_mix =  0.700 |ddv_scf|^2 =  2.721E-14

      iter #   9 total cpu time :  2186.3 secs   av.it.:   7.5
      thresh= 1.650E-08 alpha_mix =  0.700 |ddv_scf|^2 =  1.594E-15

      iter #  10 total cpu time :  2215.1 secs   av.it.:   7.5
      thresh= 3.993E-09 alpha_mix =  0.700 |ddv_scf|^2 =  3.335E-17

     End of self-consistent calculation

     Convergence has been achieved 


     Representation #  3 mode #   3

     Self-consistent Calculation

      iter #   1 total cpu time :  2242.7 secs   av.it.:   5.8
      thresh= 1.000E-02 alpha_mix =  0.700 |ddv_scf|^2 =  7.576E-05

      iter #   2 total cpu time :  2271.7 secs   av.it.:   7.4
      thresh= 8.704E-04 alpha_mix =  0.700 |ddv_scf|^2 =  5.590E-05

      iter #   3 total cpu time :  2298.6 secs   av.it.:   6.9
      thresh= 7.477E-04 alpha_mix =  0.700 |ddv_scf|^2 =  3.598E-07

      iter #   4 total cpu time :  2328.2 secs   av.it.:   7.7
      thresh= 5.998E-05 alpha_mix =  0.700 |ddv_scf|^2 =  8.610E-09

      iter #   5 total cpu time :  2359.1 secs   av.it.:   8.3
      thresh= 9.279E-06 alpha_mix =  0.700 |ddv_scf|^2 =  2.372E-10

      iter #   6 total cpu time :  2389.3 secs   av.it.:   8.3
      thresh= 1.540E-06 alpha_mix =  0.700 |ddv_scf|^2 =  1.905E-11

      iter #   7 total cpu time :  2419.2 secs   av.it.:   8.2
      thresh= 4.365E-07 alpha_mix =  0.700 |ddv_scf|^2 =  9.493E-13

      iter #   8 total cpu time :  2450.0 secs   av.it.:   8.3
      thresh= 9.743E-08 alpha_mix =  0.700 |ddv_scf|^2 =  5.916E-14

      iter #   9 total cpu time :  2478.1 secs   av.it.:   7.4
      thresh= 2.432E-08 alpha_mix =  0.700 |ddv_scf|^2 =  3.882E-15

      iter #  10 total cpu time :  2506.9 secs   av.it.:   7.7
      thresh= 6.231E-09 alpha_mix =  0.700 |ddv_scf|^2 =  5.857E-17

     End of self-consistent calculation

     Convergence has been achieved 

     Number of q in the star =   48
     List of q in the star:
          1  -0.166666667   0.666666667  -0.500000000
          2   0.666666667  -0.166666667  -0.500000000
          3  -0.166666667   0.500000000  -0.666666667
          4   0.166666667   0.500000000  -0.666666667
          5  -0.166666667  -0.500000000   0.666666667
          6   0.166666667  -0.500000000   0.666666667
          7   0.166666667  -0.666666667   0.500000000
          8  -0.166666667  -0.666666667   0.500000000
          9  -0.500000000  -0.666666667  -0.166666667
         10   0.500000000  -0.666666667   0.166666667
         11  -0.500000000   0.666666667   0.166666667
         12   0.500000000   0.666666667  -0.166666667
         13   0.666666667  -0.166666667   0.500000000
         14   0.666666667  -0.500000000  -0.166666667
         15  -0.166666667  -0.500000000  -0.666666667
         16  -0.166666667   0.500000000   0.666666667
         17   0.666666667   0.166666667  -0.500000000
         18   0.166666667   0.666666667  -0.500000000
         19   0.666666667   0.500000000   0.166666667
         20  -0.666666667   0.500000000  -0.166666667
         21   0.500000000   0.166666667   0.666666667
         22  -0.500000000   0.166666667  -0.666666667
         23   0.500000000   0.666666667   0.166666667
         24   0.500000000  -0.166666667  -0.666666667
         25  -0.666666667   0.166666667   0.500000000
         26  -0.166666667   0.666666667   0.500000000
         27  -0.500000000  -0.166666667   0.666666667
         28   0.166666667   0.666666667   0.500000000
         29  -0.500000000   0.666666667  -0.166666667
         30  -0.666666667  -0.166666667  -0.500000000
         31  -0.666666667  -0.166666667   0.500000000
         32   0.666666667   0.166666667   0.500000000
         33   0.166666667  -0.666666667  -0.500000000
         34  -0.666666667   0.166666667  -0.500000000
         35   0.500000000  -0.666666667  -0.166666667
         36  -0.500000000  -0.666666667   0.166666667
         37  -0.166666667  -0.666666667  -0.500000000
         38  -0.666666667  -0.500000000   0.166666667
         39   0.166666667   0.500000000   0.666666667
         40   0.166666667  -0.500000000  -0.666666667
         41  -0.666666667   0.500000000   0.166666667
         42   0.666666667   0.500000000  -0.166666667
         43  -0.666666667  -0.500000000  -0.166666667
         44   0.666666667  -0.500000000   0.166666667
         45   0.500000000   0.166666667  -0.666666667
         46   0.500000000  -0.166666667   0.666666667
         47  -0.500000000  -0.166666667  -0.666666667
         48  -0.500000000   0.166666667   0.666666667

     Diagonalizing the dynamical matrix

     q = (   -0.166666667   0.666666667  -0.500000000 ) 

 **************************************************************************
     freq (    1) =       1.941537 [THz] =      64.762706 [cm-1]
     freq (    2) =       3.564946 [THz] =     118.913793 [cm-1]
     freq (    3) =       5.227064 [THz] =     174.356094 [cm-1]
 **************************************************************************

     Mode symmetry, C_1 (1)     point group:

     freq (  1 -  1) =         64.8  [cm-1]   --> A                  
     freq (  2 -  2) =        118.9  [cm-1]   --> A                  
     freq (  3 -  3) =        174.4  [cm-1]   --> A                  

     Calculation of q =   -0.3333333   0.6666667  -0.3333333

   Info: using nr1, nr2, nr3 values from input

   Info: using nr1, nr2, nr3 values from input

     Parallelization info
     --------------------
     sticks:   dense  smooth     PW     G-vecs:    dense   smooth      PW
     Min          59      29     11                 1171      411      96
     Max          60      30     12                 1173      415      98
     Sum         949     475    181                18749     6603    1553



     bravais-lattice index     =            3
     lattice parameter (alat)  =       7.2900  a.u.
     unit-cell volume          =     193.7102 (a.u.)^3
     number of atoms/cell      =            1
     number of atomic types    =            1
     number of electrons       =         9.00
     number of Kohn-Sham states=            9
     kinetic-energy cutoff     =      40.0000  Ry
     charge density cutoff     =     320.0000  Ry
     Exchange-correlation      = SLA  PW   PBE  PBE ( 1  4  3  4 0 0)

     celldm(1)=   7.290000  celldm(2)=   0.000000  celldm(3)=   0.000000
     celldm(4)=   0.000000  celldm(5)=   0.000000  celldm(6)=   0.000000

     crystal axes: (cart. coord. in units of alat)
               a(1) = (   0.500000   0.500000   0.500000 )  
               a(2) = (  -0.500000   0.500000   0.500000 )  
               a(3) = (  -0.500000  -0.500000   0.500000 )  

     reciprocal axes: (cart. coord. in units 2 pi/alat)
               b(1) = (  1.000000  0.000000  1.000000 )  
               b(2) = ( -1.000000  1.000000  0.000000 )  
               b(3) = (  0.000000 -1.000000  1.000000 )  


     PseudoPot. # 1 for Na read from file:
     /home/s1333534/quantum_espresso/qe-6.1/pseudo/Na_pbe_v1.uspp.F.UPF
     MD5 check sum: 76a99c7e9422403d3e93cbc85ab7bccb
     Pseudo is Ultrasoft, Zval =  9.0
     Generated by new atomic code, or converted to UPF format
     Using radial grid of  819 points,  5 beta functions with: 
                l(1) =   0
                l(2) =   0
                l(3) =   1
                l(4) =   1
                l(5) =   2
     Q(r) pseudized with  8 coefficients,  rinner =    1.250   1.250   1.250
                                                       1.250   1.250

     atomic species   valence    mass     pseudopotential
        Na             9.00    22.99000     Na( 1.00)

     48 Sym. Ops., with inversion, found



   Cartesian axes

     site n.     atom                  positions (alat units)
         1           Na  tau(   1) = (   0.0000000   0.0000000   0.0000000  )

     number of k points=  3080  Marzari-Vanderbilt smearing, width (Ry)=  0.0200

     Number of k-points >= 100: set verbosity='high' to print them.

     Dense  grid:    18749 G-vectors     FFT dimensions: (  36,  36,  36)

     Smooth grid:     6603 G-vectors     FFT dimensions: (  25,  25,  25)

     Estimated max dynamical RAM per process >       0.64MB

     Estimated total allocated dynamical RAM >      41.20MB

     The potential is recalculated from file :
     ./_ph0/na.bcc.save/charge-density.dat

     Starting wfc are    5 atomic +    4 random wfc

     Band Structure Calculation
     Davidson diagonalization with overlap

     ethr =  1.11E-10,  avg # of iterations = 19.4

     total cpu time spent up to now is      629.2 secs

     End of band structure calculation

     Number of k-points >= 100: set verbosity='high' to print the bands.

     the Fermi energy is     2.8307 ev

     Writing output data file na.bcc.save

                                                                                

     bravais-lattice index     =            3
     lattice parameter (alat)  =       7.2900  a.u.
     unit-cell volume          =     193.7102 (a.u.)^3
     number of atoms/cell      =            1
     number of atomic types    =            1
     kinetic-energy cut-off    =      40.0000  Ry
     charge density cut-off    =     320.0000  Ry
     convergence threshold     =      1.0E-16
     beta                      =       0.7000
     number of iterations used =            4
     Exchange-correlation      = SLA  PW   PBE  PBE ( 1  4  3  4 0 0)


     celldm(1)=    7.29000  celldm(2)=    0.00000  celldm(3)=    0.00000
     celldm(4)=    0.00000  celldm(5)=    0.00000  celldm(6)=    0.00000

     crystal axes: (cart. coord. in units of alat)
               a(1) = (  0.5000  0.5000  0.5000 )  
               a(2) = ( -0.5000  0.5000  0.5000 )  
               a(3) = ( -0.5000 -0.5000  0.5000 )  

     reciprocal axes: (cart. coord. in units 2 pi/alat)
               b(1) = (  1.0000  0.0000  1.0000 )  
               b(2) = ( -1.0000  1.0000  0.0000 )  
               b(3) = (  0.0000 -1.0000  1.0000 )  


     Atoms inside the unit cell: 

     Cartesian axes

     site n.  atom      mass           positions (alat units)
        1     Na  22.9900   tau(    1) = (    0.00000    0.00000    0.00000  )

     Computing dynamical matrix for 
                    q = (  -0.3333333   0.6666667  -0.3333333 )

      6 Sym.Ops. (no q -> -q+G )


     G cutoff =  430.7698  (   1172 G-vectors)     FFT grid: ( 36, 36, 36)
     G cutoff =  215.3849  (    415 G-vectors)  smooth grid: ( 25, 25, 25)

     number of k points=  3080  Marzari-Vanderbilt smearing, width (Ry)=  0.0200

     PseudoPot. # 1 for Na read from file:
     /home/s1333534/quantum_espresso/qe-6.1/pseudo/Na_pbe_v1.uspp.F.UPF
     MD5 check sum: 76a99c7e9422403d3e93cbc85ab7bccb
     Pseudo is Ultrasoft, Zval =  9.0
     Generated by new atomic code, or converted to UPF format
     Using radial grid of  819 points,  5 beta functions with: 
                l(1) =   0
                l(2) =   0
                l(3) =   1
                l(4) =   1
                l(5) =   2
     Q(r) pseudized with  8 coefficients,  rinner =    1.250   1.250   1.250
                                                       1.250   1.250

     Mode symmetry, C_3v (3m)   point group:


     Atomic displacements:
     There are   2 irreducible representations

     Representation     1      1 modes -A_1  L_1  To be done

     Representation     2      2 modes -E    L_3  To be done



     Alpha used in Ewald sum =   2.8000
     PHONON       : 38m48.13s CPU    42m42.38s WALL



     Representation #  1 mode #   1

     Self-consistent Calculation

      iter #   1 total cpu time :  2567.2 secs   av.it.:   5.4
      thresh= 1.000E-02 alpha_mix =  0.700 |ddv_scf|^2 =  1.337E-05

      iter #   2 total cpu time :  2572.7 secs   av.it.:   7.7
      thresh= 3.656E-04 alpha_mix =  0.700 |ddv_scf|^2 =  2.113E-07

      iter #   3 total cpu time :  2578.4 secs   av.it.:   8.0
      thresh= 4.597E-05 alpha_mix =  0.700 |ddv_scf|^2 =  7.922E-09

      iter #   4 total cpu time :  2584.0 secs   av.it.:   7.6
      thresh= 8.900E-06 alpha_mix =  0.700 |ddv_scf|^2 =  1.720E-10

      iter #   5 total cpu time :  2589.5 secs   av.it.:   7.5
      thresh= 1.312E-06 alpha_mix =  0.700 |ddv_scf|^2 =  4.217E-12

      iter #   6 total cpu time :  2595.2 secs   av.it.:   8.1
      thresh= 2.054E-07 alpha_mix =  0.700 |ddv_scf|^2 =  2.979E-13

      iter #   7 total cpu time :  2601.0 secs   av.it.:   8.1
      thresh= 5.458E-08 alpha_mix =  0.700 |ddv_scf|^2 =  6.249E-15

      iter #   8 total cpu time :  2606.7 secs   av.it.:   8.0
      thresh= 7.905E-09 alpha_mix =  0.700 |ddv_scf|^2 =  6.361E-17

     End of self-consistent calculation

     Convergence has been achieved 


     Representation #  2 modes #   2  3

     Self-consistent Calculation

      iter #   1 total cpu time :  2616.9 secs   av.it.:   5.7
      thresh= 1.000E-02 alpha_mix =  0.700 |ddv_scf|^2 =  1.068E-05

      iter #   2 total cpu time :  2628.7 secs   av.it.:   8.2
      thresh= 3.269E-04 alpha_mix =  0.700 |ddv_scf|^2 =  1.213E-06

      iter #   3 total cpu time :  2640.3 secs   av.it.:   7.7
      thresh= 1.102E-04 alpha_mix =  0.700 |ddv_scf|^2 =  9.752E-09

      iter #   4 total cpu time :  2652.4 secs   av.it.:   8.6
      thresh= 9.875E-06 alpha_mix =  0.700 |ddv_scf|^2 =  6.944E-11

      iter #   5 total cpu time :  2663.7 secs   av.it.:   7.8
      thresh= 8.333E-07 alpha_mix =  0.700 |ddv_scf|^2 =  8.427E-14

      iter #   6 total cpu time :  2675.0 secs   av.it.:   8.0
      thresh= 2.903E-08 alpha_mix =  0.700 |ddv_scf|^2 =  4.940E-15

      iter #   7 total cpu time :  2686.5 secs   av.it.:   8.1
      thresh= 7.029E-09 alpha_mix =  0.700 |ddv_scf|^2 =  1.286E-17

     End of self-consistent calculation

     Convergence has been achieved 

     Number of q in the star =    8
     List of q in the star:
          1  -0.333333333   0.666666667  -0.333333333
          2   0.333333333  -0.666666667   0.333333333
          3  -0.333333333  -0.666666667   0.333333333
          4  -0.333333333  -0.666666667  -0.333333333
          5  -0.333333333   0.666666667   0.333333333
          6   0.333333333   0.666666667  -0.333333333
          7  -0.666666667   0.333333333  -0.333333333
          8   0.333333333   0.666666667   0.333333333

     Diagonalizing the dynamical matrix

     q = (   -0.333333333   0.666666667  -0.333333333 ) 

 **************************************************************************
     freq (    1) =       2.262408 [THz] =      75.465808 [cm-1]
     freq (    2) =       4.741465 [THz] =     158.158254 [cm-1]
     freq (    3) =       4.741465 [THz] =     158.158254 [cm-1]
 **************************************************************************

     Mode symmetry, C_3v (3m)   point group:

     freq (  1 -  1) =         75.5  [cm-1]   --> A_1  L_1           
     freq (  2 -  3) =        158.2  [cm-1]   --> E    L_3           

     Calculation of q =    0.0000000   0.0000000   0.3333333

   Info: using nr1, nr2, nr3 values from input

   Info: using nr1, nr2, nr3 values from input

     Parallelization info
     --------------------
     sticks:   dense  smooth     PW     G-vecs:    dense   smooth      PW
     Min          59      29     10                 1171      411      87
     Max          60      30     11                 1174      415      89
     Sum         949     475    169                18749     6603    1409



     bravais-lattice index     =            3
     lattice parameter (alat)  =       7.2900  a.u.
     unit-cell volume          =     193.7102 (a.u.)^3
     number of atoms/cell      =            1
     number of atomic types    =            1
     number of electrons       =         9.00
     number of Kohn-Sham states=            9
     kinetic-energy cutoff     =      40.0000  Ry
     charge density cutoff     =     320.0000  Ry
     Exchange-correlation      = SLA  PW   PBE  PBE ( 1  4  3  4 0 0)

     celldm(1)=   7.290000  celldm(2)=   0.000000  celldm(3)=   0.000000
     celldm(4)=   0.000000  celldm(5)=   0.000000  celldm(6)=   0.000000

     crystal axes: (cart. coord. in units of alat)
               a(1) = (   0.500000   0.500000   0.500000 )  
[...]
     G cutoff =  215.3849  (    415 G-vectors)  smooth grid: ( 25, 25, 25)

     number of k points=  4400  Marzari-Vanderbilt smearing, width (Ry)=  0.0200

     PseudoPot. # 1 for Na read from file:
     /home/s1333534/quantum_espresso/qe-6.1/pseudo/Na_pbe_v1.uspp.F.UPF
     MD5 check sum: 76a99c7e9422403d3e93cbc85ab7bccb
     Pseudo is Ultrasoft, Zval =  9.0
     Generated by new atomic code, or converted to UPF format
     Using radial grid of  819 points,  5 beta functions with: 
                l(1) =   0
                l(2) =   0
                l(3) =   1
                l(4) =   1
                l(5) =   2
     Q(r) pseudized with  8 coefficients,  rinner =    1.250   1.250   1.250
                                                       1.250   1.250

     Mode symmetry, C_2v (mm2)  point group:


     Atomic displacements:
     There are   3 irreducible representations

     Representation     1      1 modes -A_1  D_1  S_1  To be done

     Representation     2      1 modes -B_1  D_3  S_3  To be done

     Representation     3      1 modes -B_2  D_4  S_4  To be done



     Alpha used in Ewald sum =   2.8000
     PHONON       :     1h14m CPU        1h22m WALL



     Representation #  1 mode #   1

     Self-consistent Calculation

      iter #   1 total cpu time :  4959.5 secs   av.it.:   5.7
      thresh= 1.000E-02 alpha_mix =  0.700 |ddv_scf|^2 =  2.384E-05

      iter #   2 total cpu time :  4967.8 secs   av.it.:   7.8
      thresh= 4.882E-04 alpha_mix =  0.700 |ddv_scf|^2 =  1.013E-06

      iter #   3 total cpu time :  4975.7 secs   av.it.:   7.6
      thresh= 1.007E-04 alpha_mix =  0.700 |ddv_scf|^2 =  2.347E-08

      iter #   4 total cpu time :  4984.4 secs   av.it.:   8.1
      thresh= 1.532E-05 alpha_mix =  0.700 |ddv_scf|^2 =  1.492E-09

      iter #   5 total cpu time :  4993.1 secs   av.it.:   8.1
      thresh= 3.863E-06 alpha_mix =  0.700 |ddv_scf|^2 =  1.300E-10

      iter #   6 total cpu time :  5001.4 secs   av.it.:   7.9
      thresh= 1.140E-06 alpha_mix =  0.700 |ddv_scf|^2 =  5.360E-13

      iter #   7 total cpu time :  5009.4 secs   av.it.:   7.8
      thresh= 7.321E-08 alpha_mix =  0.700 |ddv_scf|^2 =  4.249E-14

      iter #   8 total cpu time :  5017.7 secs   av.it.:   7.9
      thresh= 2.061E-08 alpha_mix =  0.700 |ddv_scf|^2 =  9.667E-17

     End of self-consistent calculation

     Convergence has been achieved 


     Representation #  2 mode #   2

     Self-consistent Calculation

      iter #   1 total cpu time :  5025.3 secs   av.it.:   5.5
      thresh= 1.000E-02 alpha_mix =  0.700 |ddv_scf|^2 =  2.046E-05

      iter #   2 total cpu time :  5033.2 secs   av.it.:   7.7
      thresh= 4.523E-04 alpha_mix =  0.700 |ddv_scf|^2 =  2.324E-07

      iter #   3 total cpu time :  5041.0 secs   av.it.:   7.6
      thresh= 4.821E-05 alpha_mix =  0.700 |ddv_scf|^2 =  2.204E-08

      iter #   4 total cpu time :  5049.0 secs   av.it.:   7.7
      thresh= 1.484E-05 alpha_mix =  0.700 |ddv_scf|^2 =  9.783E-11

      iter #   5 total cpu time :  5057.1 secs   av.it.:   7.5
      thresh= 9.891E-07 alpha_mix =  0.700 |ddv_scf|^2 =  4.512E-14

      iter #   6 total cpu time :  5064.4 secs   av.it.:   7.0
      thresh= 2.124E-08 alpha_mix =  0.700 |ddv_scf|^2 =  2.993E-15

      iter #   7 total cpu time :  5072.1 secs   av.it.:   7.4
      thresh= 5.471E-09 alpha_mix =  0.700 |ddv_scf|^2 =  4.778E-18

     End of self-consistent calculation

     Convergence has been achieved 


     Representation #  3 mode #   3

     Self-consistent Calculation

      iter #   1 total cpu time :  5079.5 secs   av.it.:   5.7
      thresh= 1.000E-02 alpha_mix =  0.700 |ddv_scf|^2 =  3.522E-05

      iter #   2 total cpu time :  5087.6 secs   av.it.:   7.5
      thresh= 5.935E-04 alpha_mix =  0.700 |ddv_scf|^2 =  2.429E-06

      iter #   3 total cpu time :  5095.3 secs   av.it.:   7.3
      thresh= 1.558E-04 alpha_mix =  0.700 |ddv_scf|^2 =  3.327E-08

      iter #   4 total cpu time :  5103.3 secs   av.it.:   7.8
      thresh= 1.824E-05 alpha_mix =  0.700 |ddv_scf|^2 =  9.846E-10

      iter #   5 total cpu time :  5110.9 secs   av.it.:   7.4
      thresh= 3.138E-06 alpha_mix =  0.700 |ddv_scf|^2 =  1.819E-12

      iter #   6 total cpu time :  5119.1 secs   av.it.:   7.9
      thresh= 1.349E-07 alpha_mix =  0.700 |ddv_scf|^2 =  1.179E-14

      iter #   7 total cpu time :  5127.1 secs   av.it.:   7.8
      thresh= 1.086E-08 alpha_mix =  0.700 |ddv_scf|^2 =  2.088E-16

      iter #   8 total cpu time :  5134.9 secs   av.it.:   7.5
      thresh= 1.445E-09 alpha_mix =  0.700 |ddv_scf|^2 =  3.742E-19

     End of self-consistent calculation

     Convergence has been achieved 

     Number of q in the star =   12
     List of q in the star:
          1   0.000000000   0.833333333  -0.166666667
          2   0.000000000  -0.833333333  -0.166666667
          3   0.833333333   0.000000000  -0.166666667
          4  -0.833333333   0.000000000  -0.166666667
          5  -0.166666667  -0.833333333   0.000000000
          6   0.166666667  -0.833333333   0.000000000
          7  -0.166666667   0.833333333   0.000000000
          8   0.166666667   0.833333333   0.000000000
          9   0.833333333   0.000000000   0.166666667
         10   0.000000000   0.166666667  -0.833333333
         11   0.000000000  -0.166666667  -0.833333333
         12   0.166666667   0.000000000  -0.833333333

     Diagonalizing the dynamical matrix

     q = (    0.000000000   0.833333333  -0.166666667 ) 

 **************************************************************************
     freq (    1) =       4.168682 [THz] =     139.052275 [cm-1]
     freq (    2) =       4.505386 [THz] =     150.283494 [cm-1]
     freq (    3) =       5.026551 [THz] =     167.667704 [cm-1]
 **************************************************************************

     Mode symmetry, C_2v (mm2)  point group:

     freq (  1 -  1) =        139.1  [cm-1]   --> A_1  D_1  S_1      
     freq (  2 -  2) =        150.3  [cm-1]   --> B_1  D_3  S_3      
     freq (  3 -  3) =        167.7  [cm-1]   --> B_2  D_4  S_4      

     Calculation of q =    0.0000000   0.0000000  -1.0000000

   Info: using nr1, nr2, nr3 values from input

   Info: using nr1, nr2, nr3 values from input

     Parallelization info
     --------------------
     sticks:   dense  smooth     PW     G-vecs:    dense   smooth      PW
     Min          59      29     10                 1171      411      91
     Max          60      30     11                 1173      415      95
     Sum         949     475    173                18749     6603    1505



     bravais-lattice index     =            3
     lattice parameter (alat)  =       7.2900  a.u.
     unit-cell volume          =     193.7102 (a.u.)^3
     number of atoms/cell      =            1
     number of atomic types    =            1
     number of electrons       =         9.00
     number of Kohn-Sham states=            9
     kinetic-energy cutoff     =      40.0000  Ry
     charge density cutoff     =     320.0000  Ry
     Exchange-correlation      = SLA  PW   PBE  PBE ( 1  4  3  4 0 0)

     celldm(1)=   7.290000  celldm(2)=   0.000000  celldm(3)=   0.000000
     celldm(4)=   0.000000  celldm(5)=   0.000000  celldm(6)=   0.000000

     crystal axes: (cart. coord. in units of alat)
               a(1) = (   0.500000   0.500000   0.500000 )  
               a(2) = (  -0.500000   0.500000   0.500000 )  
               a(3) = (  -0.500000  -0.500000   0.500000 )  

     reciprocal axes: (cart. coord. in units 2 pi/alat)
               b(1) = (  1.000000  0.000000  1.000000 )  
               b(2) = ( -1.000000  1.000000  0.000000 )  
               b(3) = (  0.000000 -1.000000  1.000000 )  


     PseudoPot. # 1 for Na read from file:
     /home/s1333534/quantum_espresso/qe-6.1/pseudo/Na_pbe_v1.uspp.F.UPF
     MD5 check sum: 76a99c7e9422403d3e93cbc85ab7bccb
     Pseudo is Ultrasoft, Zval =  9.0
     Generated by new atomic code, or converted to UPF format
     Using radial grid of  819 points,  5 beta functions with: 
                l(1) =   0
                l(2) =   0
                l(3) =   1
                l(4) =   1
                l(5) =   2
     Q(r) pseudized with  8 coefficients,  rinner =    1.250   1.250   1.250
                                                       1.250   1.250

     atomic species   valence    mass     pseudopotential
        Na             9.00    22.99000     Na( 1.00)

     48 Sym. Ops., with inversion, found



   Cartesian axes

     site n.     atom                  positions (alat units)
         1           Na  tau(   1) = (   0.0000000   0.0000000   0.0000000  )

     number of k points=   500  Marzari-Vanderbilt smearing, width (Ry)=  0.0200

     Number of k-points >= 100: set verbosity='high' to print them.

     Dense  grid:    18749 G-vectors     FFT dimensions: (  36,  36,  36)

     Smooth grid:     6603 G-vectors     FFT dimensions: (  25,  25,  25)

     Estimated max dynamical RAM per process >       0.64MB

     Estimated total allocated dynamical RAM >      41.20MB

     The potential is recalculated from file :
     ./_ph0/na.bcc.save/charge-density.dat

     Starting wfc are    5 atomic +    4 random wfc

     Band Structure Calculation
     Davidson diagonalization with overlap

     ethr =  1.11E-10,  avg # of iterations = 19.4

     total cpu time spent up to now is     1275.7 secs

     End of band structure calculation

     Number of k-points >= 100: set verbosity='high' to print the bands.

     the Fermi energy is     2.8307 ev

     Writing output data file na.bcc.save

                                                                                

     bravais-lattice index     =            3
     lattice parameter (alat)  =       7.2900  a.u.
     unit-cell volume          =     193.7102 (a.u.)^3
     number of atoms/cell      =            1
     number of atomic types    =            1
     kinetic-energy cut-off    =      40.0000  Ry
     charge density cut-off    =     320.0000  Ry
     convergence threshold     =      1.0E-16
     beta                      =       0.7000
     number of iterations used =            4
     Exchange-correlation      = SLA  PW   PBE  PBE ( 1  4  3  4 0 0)


     celldm(1)=    7.29000  celldm(2)=    0.00000  celldm(3)=    0.00000
     celldm(4)=    0.00000  celldm(5)=    0.00000  celldm(6)=    0.00000

     crystal axes: (cart. coord. in units of alat)
               a(1) = (  0.5000  0.5000  0.5000 )  
               a(2) = ( -0.5000  0.5000  0.5000 )  
               a(3) = ( -0.5000 -0.5000  0.5000 )  

     reciprocal axes: (cart. coord. in units 2 pi/alat)
               b(1) = (  1.0000  0.0000  1.0000 )  
               b(2) = ( -1.0000  1.0000  0.0000 )  
               b(3) = (  0.0000 -1.0000  1.0000 )  


     Atoms inside the unit cell: 

     Cartesian axes

     site n.  atom      mass           positions (alat units)
        1     Na  22.9900   tau(    1) = (    0.00000    0.00000    0.00000  )

     Computing dynamical matrix for 
                    q = (   0.0000000   0.0000000  -1.0000000 )

     49 Sym.Ops. (with q -> -q+G )


     G cutoff =  430.7698  (   1172 G-vectors)     FFT grid: ( 36, 36, 36)
     G cutoff =  215.3849  (    415 G-vectors)  smooth grid: ( 25, 25, 25)

     number of k points=   500  Marzari-Vanderbilt smearing, width (Ry)=  0.0200

     PseudoPot. # 1 for Na read from file:
     /home/s1333534/quantum_espresso/qe-6.1/pseudo/Na_pbe_v1.uspp.F.UPF
     MD5 check sum: 76a99c7e9422403d3e93cbc85ab7bccb
     Pseudo is Ultrasoft, Zval =  9.0
     Generated by new atomic code, or converted to UPF format
     Using radial grid of  819 points,  5 beta functions with: 
                l(1) =   0
                l(2) =   0
                l(3) =   1
                l(4) =   1
                l(5) =   2
     Q(r) pseudized with  8 coefficients,  rinner =    1.250   1.250   1.250
                                                       1.250   1.250

     Mode symmetry, O_h (m-3m)  point group:


     Atomic displacements:
     There are   1 irreducible representations

     Representation     1      3 modes -T_1u G_15  G_4-  To be done



     Alpha used in Ewald sum =   2.8000
     PHONON       :     1h17m CPU        1h25m WALL



     Representation #  1 modes #   1  2  3

     Self-consistent Calculation

      iter #   1 total cpu time :  5147.7 secs   av.it.:   5.7
      thresh= 1.000E-02 alpha_mix =  0.700 |ddv_scf|^2 =  2.544E-06

      iter #   2 total cpu time :  5151.5 secs   av.it.:   8.5
      thresh= 1.595E-04 alpha_mix =  0.700 |ddv_scf|^2 =  3.302E-08

      iter #   3 total cpu time :  5155.1 secs   av.it.:   8.4
      thresh= 1.817E-05 alpha_mix =  0.700 |ddv_scf|^2 =  2.842E-09

      iter #   4 total cpu time :  5159.1 secs   av.it.:   8.5
      thresh= 5.331E-06 alpha_mix =  0.700 |ddv_scf|^2 =  1.180E-11

      iter #   5 total cpu time :  5162.9 secs   av.it.:   8.3
      thresh= 3.434E-07 alpha_mix =  0.700 |ddv_scf|^2 =  4.149E-15

      iter #   6 total cpu time :  5166.3 secs   av.it.:   7.3
      thresh= 6.441E-09 alpha_mix =  0.700 |ddv_scf|^2 =  2.884E-16

      iter #   7 total cpu time :  5169.8 secs   av.it.:   7.9
      thresh= 1.698E-09 alpha_mix =  0.700 |ddv_scf|^2 =  2.140E-19

     End of self-consistent calculation

     Convergence has been achieved 

     Number of q in the star =    1
     List of q in the star:
          1   0.000000000   0.000000000  -1.000000000

     Diagonalizing the dynamical matrix

     q = (    0.000000000   0.000000000  -1.000000000 ) 

 **************************************************************************
     freq (    1) =       4.858303 [THz] =     162.055545 [cm-1]
     freq (    2) =       4.858303 [THz] =     162.055545 [cm-1]
     freq (    3) =       4.858303 [THz] =     162.055545 [cm-1]
 **************************************************************************

     Mode symmetry, O_h (m-3m)  point group:

     freq (  1 -  3) =        162.1  [cm-1]   --> T_1u G_15  G_4-    

     init_run     :      2.10s CPU      2.24s WALL (      15 calls)
     electrons    :    978.68s CPU   1045.00s WALL (      15 calls)

     Called by init_run:
     wfcinit      :      0.00s CPU      0.00s WALL (      15 calls)
     potinit      :      0.34s CPU      0.34s WALL (      15 calls)

     Called by electrons:
     c_bands      :    978.34s CPU   1044.64s WALL (      15 calls)
     v_of_rho     :      0.14s CPU      0.15s WALL (      16 calls)
     newd         :      0.12s CPU      0.13s WALL (      16 calls)

     Called by c_bands:
     init_us_2    :     22.40s CPU     24.71s WALL (  336489 calls)
     cegterg      :    759.02s CPU    816.72s WALL (   23986 calls)

     Called by sum_band:

     Called by *egterg:
     h_psi        :   2550.37s CPU   2807.08s WALL ( 3088409 calls)
     s_psi        :     87.54s CPU     98.14s WALL ( 6028089 calls)
     g_psi        :      2.59s CPU      2.80s WALL (  367748 calls)
     cdiaghg      :    240.15s CPU    256.87s WALL (  387010 calls)

     Called by h_psi:
     h_psi:pot    :   2528.48s CPU   2782.60s WALL ( 3088409 calls)
     h_psi:calbec :    178.90s CPU    196.00s WALL ( 3088409 calls)
     vloc_psi     :   2268.98s CPU   2497.73s WALL ( 3088409 calls)
     add_vuspsi   :     47.37s CPU     52.78s WALL ( 3088409 calls)

     General routines
     calbec       :    334.94s CPU    368.06s WALL ( 6571293 calls)
     fft          :      3.00s CPU      3.32s WALL (    6346 calls)
     ffts         :      3.64s CPU      4.00s WALL (   30429 calls)
     fftw         :   2474.47s CPU   2740.53s WALL (29819410 calls)
     interpolate  :      0.51s CPU      0.62s WALL (     870 calls)
     davcio       :     32.19s CPU     63.01s WALL ( 1369453 calls)

     Parallel routines
     fft_scatter  :   1435.11s CPU   1586.00s WALL (29856185 calls)

     PHONON       :     1h18m CPU        1h26m WALL

     INITIALIZATION: 
     phq_setup    :      0.70s CPU      0.73s WALL (      16 calls)
     phq_init     :     52.78s CPU     56.50s WALL (      16 calls)

     phq_init     :     52.78s CPU     56.50s WALL (      16 calls)
     init_vloc    :      0.10s CPU      0.10s WALL (      16 calls)
     init_us_1    :      1.11s CPU      1.19s WALL (      16 calls)
     newd         :      0.12s CPU      0.13s WALL (      16 calls)
     dvanqq       :      0.52s CPU      0.53s WALL (      16 calls)
     drho         :     39.45s CPU     42.43s WALL (      16 calls)

     DYNAMICAL MATRIX:
     dynmat0      :      8.63s CPU      8.98s WALL (      16 calls)
     phqscf       :   3429.06s CPU   3832.02s WALL (      16 calls)
     dynmatrix    :      0.10s CPU      0.11s WALL (      16 calls)

     phqscf       :   3429.06s CPU   3832.02s WALL (      16 calls)
     solve_linter :   3417.04s CPU   3818.49s WALL (      40 calls)
     drhodv       :     11.81s CPU     12.68s WALL (      40 calls)

     dynmat0      :      8.63s CPU      8.98s WALL (      16 calls)
     dynmat_us    :      8.59s CPU      8.92s WALL (      16 calls)
     d2ionq       :      0.01s CPU      0.01s WALL (      16 calls)

     dynmat_us    :      8.59s CPU      8.92s WALL (      16 calls)
     addusdynmat  :      0.00s CPU      0.00s WALL (      16 calls)

     phqscf       :   3429.06s CPU   3832.02s WALL (      16 calls)
     solve_linter :   3417.04s CPU   3818.49s WALL (      40 calls)

     solve_linter :   3417.04s CPU   3818.49s WALL (      40 calls)
     dvqpsi_us    :     64.40s CPU     69.98s WALL (   29082 calls)
     ortho        :     49.94s CPU     54.26s WALL (  262267 calls)
     cgsolve      :   2696.34s CPU   2986.24s WALL (  262267 calls)
     incdrhoscf   :    252.00s CPU    294.59s WALL (  262267 calls)
     addusddens   :      3.84s CPU      3.94s WALL (     381 calls)
     vpsifft      :    199.46s CPU    221.70s WALL (  233185 calls)
     dv_of_drho   :      2.25s CPU      2.43s WALL (     395 calls)
     mix_pot      :      0.58s CPU      2.04s WALL (     341 calls)
     ef_shift     :      0.02s CPU      0.05s WALL (       7 calls)
     localdos     :      0.06s CPU      0.07s WALL (       1 calls)
     psymdvscf    :     20.68s CPU     21.16s WALL (     310 calls)
     newdq        :      3.83s CPU      3.87s WALL (     341 calls)
     adddvscf     :     13.66s CPU     15.01s WALL (  233185 calls)
     drhodvus     :      0.04s CPU      0.04s WALL (      40 calls)

     dvqpsi_us    :     64.40s CPU     69.98s WALL (   29082 calls)
     dvqpsi_us_on :     13.54s CPU     14.42s WALL (   29082 calls)

     cgsolve      :   2696.34s CPU   2986.24s WALL (  262267 calls)
     ch_psi       :   2511.94s CPU   2780.84s WALL ( 2677413 calls)

     ch_psi       :   2511.94s CPU   2780.84s WALL ( 2677413 calls)
     h_psi        :   2550.37s CPU   2807.08s WALL ( 3088409 calls)
     last         :    316.32s CPU    350.32s WALL ( 2677413 calls)

     h_psi        :   2550.37s CPU   2807.08s WALL ( 3088409 calls)
     add_vuspsi   :     47.37s CPU     52.78s WALL ( 3088409 calls)

     incdrhoscf   :    252.00s CPU    294.59s WALL (  262267 calls)
     addusdbec    :     24.24s CPU     26.45s WALL (  291349 calls)

     drhodvus     :      0.04s CPU      0.04s WALL (      40 calls)

      General routines
     calbec       :    334.94s CPU    368.06s WALL ( 6571293 calls)
     fft          :      3.00s CPU      3.32s WALL (    6346 calls)
     ffts         :      3.64s CPU      4.00s WALL (   30429 calls)
     fftw         :   2474.47s CPU   2740.53s WALL (29819410 calls)
     davcio       :     32.19s CPU     63.01s WALL ( 1369453 calls)
     write_rec    :      1.23s CPU      5.18s WALL (     381 calls)


     PHONON       :     1h18m CPU        1h26m WALL


   This run was terminated on:   2:46:48  14Feb2018            

=------------------------------------------------------------------------------=
   JOB DONE.
=------------------------------------------------------------------------------=
