
     Program PWSCF v.6.1 (svn rev. 13369) starts on 21Dec2017 at 11:53: 3 

     This program is part of the open-source Quantum ESPRESSO suite
     for quantum simulation of materials; please cite
         "P. Giannozzi et al., J. Phys.:Condens. Matter 21 395502 (2009);
          URL http://www.quantum-espresso.org", 
     in publications or presentations arising from this work. More details at
     http://www.quantum-espresso.org/quote

     Parallel version (MPI), running on     4 processors
     R & G space division:  proc/nbgrp/npool/nimage =       4
     Waiting for input...
     Reading input from standard input

     Current dimensions of program PWSCF are:
     Max number of different atomic species (ntypx) = 10
     Max number of k-points (npk) =  40000
     Max angular momentum in pseudopotentials (lmaxx) =  3

     Subspace diagonalization in iterative solution of the eigenvalue problem:
     a serial algorithm will be used


     Parallelization info
     --------------------
     sticks:   dense  smooth     PW     G-vecs:    dense   smooth      PW
     Min         245     121     39                 4869     1740     312
     Max         246     122     40                 4870     1742     314
     Sum         981     487    159                19477     6963    1253



     bravais-lattice index     =            3
     lattice parameter (alat)  =       7.4109  a.u.
     unit-cell volume          =     203.5084 (a.u.)^3
     number of atoms/cell      =            1
     number of atomic types    =            1
     number of electrons       =         9.00
     number of Kohn-Sham states=            9
     kinetic-energy cutoff     =      40.0000  Ry
     charge density cutoff     =     320.0000  Ry
     convergence threshold     =      1.0E-08
     mixing beta               =       0.7000
     number of iterations used =            8  plain     mixing
     Exchange-correlation      = SLA  PW   PBE  PBE ( 1  4  3  4 0 0)

     celldm(1)=   7.410897  celldm(2)=   0.000000  celldm(3)=   0.000000
     celldm(4)=   0.000000  celldm(5)=   0.000000  celldm(6)=   0.000000

     crystal axes: (cart. coord. in units of alat)
               a(1) = (   0.500000   0.500000   0.500000 )  
               a(2) = (  -0.500000   0.500000   0.500000 )  
               a(3) = (  -0.500000  -0.500000   0.500000 )  

     reciprocal axes: (cart. coord. in units 2 pi/alat)
               b(1) = (  1.000000  0.000000  1.000000 )  
               b(2) = ( -1.000000  1.000000  0.000000 )  
               b(3) = (  0.000000 -1.000000  1.000000 )  


     PseudoPot. # 1 for Na read from file:
     /home/s1333534/quantum_espresso/qe-6.1/pseudo/Na_pbe_v1.uspp.F.UPF
     MD5 check sum: 76a99c7e9422403d3e93cbc85ab7bccb
     Pseudo is Ultrasoft, Zval =  9.0
     Generated by new atomic code, or converted to UPF format
     Using radial grid of  819 points,  5 beta functions with: 
                l(1) =   0
                l(2) =   0
                l(3) =   1
                l(4) =   1
                l(5) =   2
     Q(r) pseudized with  8 coefficients,  rinner =    1.250   1.250   1.250
                                                       1.250   1.250

     atomic species   valence    mass     pseudopotential
        Na             9.00    22.99000     Na( 1.00)

     48 Sym. Ops., with inversion, found



   Cartesian axes

     site n.     atom                  positions (alat units)
         1           Na  tau(   1) = (   0.0000000   0.0000000   0.0000000  )

     number of k points=   100  Marzari-Vanderbilt smearing, width (Ry)=  0.0200

     Number of k-points >= 100: set verbosity='high' to print them.

     Dense  grid:    19477 G-vectors     FFT dimensions: (  40,  40,  40)

     Smooth grid:     6963 G-vectors     FFT dimensions: (  25,  25,  25)

     Estimated max dynamical RAM per process >       6.36MB

     Estimated total allocated dynamical RAM >      25.43MB

     Initial potential from superposition of free atoms

     starting charge    8.99371, renormalised to    9.00000
     Starting wfc are    5 randomized atomic wfcs +    4 random wfc

     total cpu time spent up to now is        0.5 secs

     per-process dynamical memory:    10.9 Mb

     Self-consistent Calculation

     iteration #  1     ecut=    40.00 Ry     beta=0.70
     Davidson diagonalization with overlap
     ethr =  1.00E-02,  avg # of iterations =  5.7

     Threshold (ethr) on eigenvalues was too large:
     Diagonalizing with lowered threshold

     Davidson diagonalization with overlap
     ethr =  1.13E-05,  avg # of iterations =  3.9

     total cpu time spent up to now is        1.9 secs

     total energy              =     -95.10335306 Ry
     Harris-Foulkes estimate   =     -95.10368772 Ry
     estimated scf accuracy    <       0.00101460 Ry

     iteration #  2     ecut=    40.00 Ry     beta=0.70
     Davidson diagonalization with overlap
     ethr =  1.13E-05,  avg # of iterations =  2.0

     total cpu time spent up to now is        2.3 secs

     total energy              =     -95.10347916 Ry
     Harris-Foulkes estimate   =     -95.10350807 Ry
     estimated scf accuracy    <       0.00011415 Ry

     iteration #  3     ecut=    40.00 Ry     beta=0.70
     Davidson diagonalization with overlap
     ethr =  1.27E-06,  avg # of iterations =  2.0

     total cpu time spent up to now is        2.8 secs

     total energy              =     -95.10349216 Ry
     Harris-Foulkes estimate   =     -95.10349343 Ry
     estimated scf accuracy    <       0.00000693 Ry

     iteration #  4     ecut=    40.00 Ry     beta=0.70
     Davidson diagonalization with overlap
     ethr =  7.70E-08,  avg # of iterations =  1.0

     total cpu time spent up to now is        3.2 secs

     End of self-consistent calculation

     Number of k-points >= 100: set verbosity='high' to print the bands.

     the Fermi energy is     2.5790 ev

!    total energy              =     -95.10349279 Ry
     Harris-Foulkes estimate   =     -95.10349273 Ry
     estimated scf accuracy    <          9.4E-09 Ry

     The total energy is the sum of the following terms:

     one-electron contribution =     -83.50923100 Ry
     hartree contribution      =      42.47881784 Ry
     xc contribution           =     -14.29675548 Ry
     ewald contribution        =     -39.77628204 Ry
     smearing contrib. (-TS)   =      -0.00004211 Ry

     convergence has been achieved in   4 iterations


     Computing stress (Cartesian axis) and pressure

          total   stress  (Ry/bohr**3)                   (kbar)     P=   19.48
   0.00013242  -0.00000000   0.00000000         19.48     -0.00      0.00
  -0.00000000   0.00013242  -0.00000000         -0.00     19.48     -0.00
   0.00000000  -0.00000000   0.00013242          0.00     -0.00     19.48


     Writing output data file na.bcc.save

     init_run     :      0.29s CPU      0.39s WALL (       1 calls)
     electrons    :      2.46s CPU      2.69s WALL (       1 calls)
     stress       :      0.25s CPU      0.25s WALL (       1 calls)

     Called by init_run:
     wfcinit      :      0.14s CPU      0.18s WALL (       1 calls)
     potinit      :      0.02s CPU      0.03s WALL (       1 calls)

     Called by electrons:
     c_bands      :      1.93s CPU      2.13s WALL (       5 calls)
     sum_band     :      0.42s CPU      0.44s WALL (       5 calls)
     v_of_rho     :      0.06s CPU      0.07s WALL (       5 calls)
     newd         :      0.06s CPU      0.08s WALL (       5 calls)
     mix_rho      :      0.00s CPU      0.01s WALL (       5 calls)

     Called by c_bands:
     init_us_2    :      0.13s CPU      0.12s WALL (    1200 calls)
     cegterg      :      1.82s CPU      2.02s WALL (     500 calls)

     Called by sum_band:
     sum_band:bec :      0.00s CPU      0.00s WALL (     500 calls)
     addusdens    :      0.07s CPU      0.08s WALL (       5 calls)

     Called by *egterg:
     h_psi        :      1.44s CPU      1.58s WALL (    2058 calls)
     s_psi        :      0.02s CPU      0.02s WALL (    2058 calls)
     g_psi        :      0.01s CPU      0.01s WALL (    1458 calls)
     cdiaghg      :      0.30s CPU      0.35s WALL (    1858 calls)

     Called by h_psi:
     h_psi:pot    :      1.43s CPU      1.57s WALL (    2058 calls)
     h_psi:calbec :      0.04s CPU      0.05s WALL (    2058 calls)
     vloc_psi     :      1.37s CPU      1.49s WALL (    2058 calls)
     add_vuspsi   :      0.02s CPU      0.03s WALL (    2058 calls)

     General routines
     calbec       :      0.06s CPU      0.07s WALL (    2658 calls)
     fft          :      0.03s CPU      0.06s WALL (      85 calls)
     ffts         :      0.00s CPU      0.00s WALL (      10 calls)
     fftw         :      1.39s CPU      1.47s WALL (   29730 calls)
     interpolate  :      0.00s CPU      0.00s WALL (      10 calls)
     davcio       :      0.00s CPU      0.00s WALL (     100 calls)

     Parallel routines
     fft_scatter  :      0.33s CPU      0.44s WALL (   29825 calls)

     PWSCF        :     3.14s CPU         3.56s WALL


   This run was terminated on:  11:53: 7  21Dec2017            

=------------------------------------------------------------------------------=
   JOB DONE.
=------------------------------------------------------------------------------=
