
     Program PHONON v.6.1 (svn rev. 13369) starts on 21Dec2017 at 12:17:30 

     This program is part of the open-source Quantum ESPRESSO suite
     for quantum simulation of materials; please cite
         "P. Giannozzi et al., J. Phys.:Condens. Matter 21 395502 (2009);
          URL http://www.quantum-espresso.org", 
     in publications or presentations arising from this work. More details at
     http://www.quantum-espresso.org/quote

     Parallel version (MPI), running on     4 processors
     R & G space division:  proc/nbgrp/npool/nimage =       4

     Reading data from directory:
     ./na.fcc.save

   Info: using nr1, nr2, nr3 values from input

   Info: using nr1, nr2, nr3 values from input

     IMPORTANT: XC functional enforced from input :
     Exchange-correlation      = SLA  PW   PBE  PBE ( 1  4  3  4 0 0)
     Any further DFT definition will be discarded
     Please, verify this is what you really want


     Parallelization info
     --------------------
     sticks:   dense  smooth     PW     G-vecs:    dense   smooth      PW
     Min         205     105     37                 3896     1394     284
     Max         206     106     38                 3899     1395     285
     Sum         823     421    151                15593     5577    1139



     Dynamical matrices for ( 8, 8, 8)  uniform grid of q-points
     (  29q-points):
       N         xq(1)         xq(2)         xq(3) 
       1   0.000000000   0.000000000   0.000000000
       2  -0.125000000   0.125000000  -0.125000000
       3  -0.250000000   0.250000000  -0.250000000
       4  -0.375000000   0.375000000  -0.375000000
       5   0.500000000  -0.500000000   0.500000000
       6   0.000000000   0.250000000   0.000000000
       7  -0.125000000   0.375000000  -0.125000000
       8  -0.250000000   0.500000000  -0.250000000
       9   0.625000000  -0.375000000   0.625000000
      10   0.500000000  -0.250000000   0.500000000
      11   0.375000000  -0.125000000   0.375000000
      12   0.250000000   0.000000000   0.250000000
      13   0.000000000   0.500000000   0.000000000
      14  -0.125000000   0.625000000  -0.125000000
      15   0.750000000  -0.250000000   0.750000000
      16   0.625000000  -0.125000000   0.625000000
      17   0.500000000   0.000000000   0.500000000
      18   0.000000000   0.750000000   0.000000000
      19   0.875000000  -0.125000000   0.875000000
      20   0.750000000   0.000000000   0.750000000
      21   0.000000000  -1.000000000   0.000000000
      22  -0.250000000   0.500000000   0.000000000
      23   0.625000000  -0.375000000   0.875000000
      24   0.500000000  -0.250000000   0.750000000
      25   0.750000000  -0.250000000   1.000000000
      26   0.625000000  -0.125000000   0.875000000
      27   0.500000000   0.000000000   0.750000000
      28  -0.250000000  -1.000000000   0.000000000
      29  -0.500000000  -1.000000000   0.000000000

     Calculation of q =    0.0000000   0.0000000   0.0000000

                                                                                

     bravais-lattice index     =            2
     lattice parameter (alat)  =       8.6604  a.u.
     unit-cell volume          =     162.3881 (a.u.)^3
     number of atoms/cell      =            1
     number of atomic types    =            1
     kinetic-energy cut-off    =      40.0000  Ry
     charge density cut-off    =     320.0000  Ry
     convergence threshold     =      1.0E-12
     beta                      =       0.7000
     number of iterations used =            4
     Exchange-correlation      = SLA  PW   PBE  PBE ( 1  4  3  4 0 0)


     celldm(1)=    8.66040  celldm(2)=    0.00000  celldm(3)=    0.00000
     celldm(4)=    0.00000  celldm(5)=    0.00000  celldm(6)=    0.00000

     crystal axes: (cart. coord. in units of alat)
               a(1) = ( -0.5000  0.0000  0.5000 )  
               a(2) = (  0.0000  0.5000  0.5000 )  
               a(3) = ( -0.5000  0.5000  0.0000 )  

     reciprocal axes: (cart. coord. in units 2 pi/alat)
               b(1) = ( -1.0000 -1.0000  1.0000 )  
               b(2) = (  1.0000  1.0000  1.0000 )  
               b(3) = ( -1.0000  1.0000 -1.0000 )  


     Atoms inside the unit cell: 

     Cartesian axes

     site n.  atom      mass           positions (alat units)
        1     Na  22.9900   tau(    1) = (    0.00000    0.00000    0.00000  )

     Computing dynamical matrix for 
                    q = (   0.0000000   0.0000000   0.0000000 )

     49 Sym.Ops. (with q -> -q+G )


     G cutoff =  607.9479  (   3899 G-vectors)     FFT grid: ( 36, 36, 36)
     G cutoff =  303.9740  (   1394 G-vectors)  smooth grid: ( 25, 25, 25)

     number of k points=   280  Marzari-Vanderbilt smearing, width (Ry)=  0.0200

     PseudoPot. # 1 for Na read from file:
     /home/s1333534/quantum_espresso/qe-6.1/pseudo/Na_pbe_v1.uspp.F.UPF
     MD5 check sum: 76a99c7e9422403d3e93cbc85ab7bccb
     Pseudo is Ultrasoft, Zval =  9.0
     Generated by new atomic code, or converted to UPF format
     Using radial grid of  819 points,  5 beta functions with: 
                l(1) =   0
                l(2) =   0
                l(3) =   1
                l(4) =   1
                l(5) =   2
     Q(r) pseudized with  8 coefficients,  rinner =    1.250   1.250   1.250
                                                       1.250   1.250

     Mode symmetry, O_h (m-3m)  point group:


     Atomic displacements:
     There are   1 irreducible representations

     Representation     1      3 modes -T_1u G_15  G_4-  To be done



     Alpha used in Ewald sum =   2.8000
     PHONON       :     1.79s CPU         1.86s WALL



     Representation #  1 modes #   1  2  3

     Self-consistent Calculation

     Pert. #  1: Fermi energy shift (Ry) =    -6.2039E-25    -1.8808E-37
     Pert. #  2: Fermi energy shift (Ry) =     3.2743E-25    -1.5673E-38
     Pert. #  3: Fermi energy shift (Ry) =    -3.1019E-25    -2.3510E-38

      iter #   1 total cpu time :     7.0 secs   av.it.:   5.4
      thresh= 1.000E-02 alpha_mix =  0.700 |ddv_scf|^2 =  2.624E-06

     Pert. #  1: Fermi energy shift (Ry) =     0.0000E+00     7.3468E-40
     Pert. #  2: Fermi energy shift (Ry) =     1.8956E-25    -8.5713E-40
     Pert. #  3: Fermi energy shift (Ry) =     6.8932E-26     2.4489E-40

      iter #   2 total cpu time :    12.8 secs   av.it.:   8.3
      thresh= 1.620E-04 alpha_mix =  0.700 |ddv_scf|^2 =  5.180E-08

     Pert. #  1: Fermi energy shift (Ry) =    -5.1699E-26    -3.0612E-41
     Pert. #  2: Fermi energy shift (Ry) =    -1.8095E-25    -4.5918E-41
     Pert. #  3: Fermi energy shift (Ry) =    -3.8774E-26    -9.1835E-41

      iter #   3 total cpu time :    18.8 secs   av.it.:   8.5
      thresh= 2.276E-05 alpha_mix =  0.700 |ddv_scf|^2 =  5.267E-10

     Pert. #  1: Fermi energy shift (Ry) =    -2.2403E-25    -4.0178E-41
     Pert. #  2: Fermi energy shift (Ry) =    -2.3695E-26    -4.7831E-42
     Pert. #  3: Fermi energy shift (Ry) =    -4.2005E-26    -1.2436E-41

      iter #   4 total cpu time :    24.5 secs   av.it.:   7.9
      thresh= 2.295E-06 alpha_mix =  0.700 |ddv_scf|^2 =  1.723E-12

     Pert. #  1: Fermi energy shift (Ry) =    -9.0473E-26     2.2959E-41
     Pert. #  2: Fermi energy shift (Ry) =     3.1666E-25     8.6096E-42
     Pert. #  3: Fermi energy shift (Ry) =    -6.4623E-26    -5.7397E-42

      iter #   5 total cpu time :    30.3 secs   av.it.:   8.2
      thresh= 1.313E-07 alpha_mix =  0.700 |ddv_scf|^2 =  8.272E-15

     End of self-consistent calculation

     Convergence has been achieved 

     Number of q in the star =    1
     List of q in the star:
          1   0.000000000   0.000000000   0.000000000

     Diagonalizing the dynamical matrix

     q = (    0.000000000   0.000000000   0.000000000 ) 

 **************************************************************************
     freq (    1) =       0.430731 [THz] =      14.367645 [cm-1]
     freq (    2) =       0.430731 [THz] =      14.367645 [cm-1]
     freq (    3) =       0.430731 [THz] =      14.367645 [cm-1]
 **************************************************************************

     Mode symmetry, O_h (m-3m)  point group:

     freq (  1 -  3) =         14.4  [cm-1]   --> T_1u G_15  G_4- I  

     Calculation of q =   -0.1250000   0.1250000  -0.1250000

   Info: using nr1, nr2, nr3 values from input

   Info: using nr1, nr2, nr3 values from input

     Parallelization info
     --------------------
     sticks:   dense  smooth     PW     G-vecs:    dense   smooth      PW
     Min         205     105     37                 3897     1394     309
     Max         207     106     38                 3900     1395     312
     Sum         823     421    151                15593     5577    1243



     bravais-lattice index     =            2
     lattice parameter (alat)  =       8.6604  a.u.
     unit-cell volume          =     162.3881 (a.u.)^3
     number of atoms/cell      =            1
     number of atomic types    =            1
     number of electrons       =         9.00
     number of Kohn-Sham states=            9
     kinetic-energy cutoff     =      40.0000  Ry
     charge density cutoff     =     320.0000  Ry
     Exchange-correlation      = SLA  PW   PBE  PBE ( 1  4  3  4 0 0)

     celldm(1)=   8.660402  celldm(2)=   0.000000  celldm(3)=   0.000000
     celldm(4)=   0.000000  celldm(5)=   0.000000  celldm(6)=   0.000000

     crystal axes: (cart. coord. in units of alat)
               a(1) = (  -0.500000   0.000000   0.500000 )  
               a(2) = (   0.000000   0.500000   0.500000 )  
               a(3) = (  -0.500000   0.500000   0.000000 )  

     reciprocal axes: (cart. coord. in units 2 pi/alat)
               b(1) = ( -1.000000 -1.000000  1.000000 )  
               b(2) = (  1.000000  1.000000  1.000000 )  
               b(3) = ( -1.000000  1.000000 -1.000000 )  


     PseudoPot. # 1 for Na read from file:
     /home/s1333534/quantum_espresso/qe-6.1/pseudo/Na_pbe_v1.uspp.F.UPF
     MD5 check sum: 76a99c7e9422403d3e93cbc85ab7bccb
     Pseudo is Ultrasoft, Zval =  9.0
     Generated by new atomic code, or converted to UPF format
     Using radial grid of  819 points,  5 beta functions with: 
                l(1) =   0
                l(2) =   0
                l(3) =   1
                l(4) =   1
                l(5) =   2
     Q(r) pseudized with  8 coefficients,  rinner =    1.250   1.250   1.250
                                                       1.250   1.250

     atomic species   valence    mass     pseudopotential
        Na             9.00    22.99000     Na( 1.00)

     48 Sym. Ops., with inversion, found



   Cartesian axes

     site n.     atom                  positions (alat units)
         1           Na  tau(   1) = (   0.0000000   0.0000000   0.0000000  )

     number of k points=  4060  Marzari-Vanderbilt smearing, width (Ry)=  0.0200

     Number of k-points >= 100: set verbosity='high' to print them.

     Dense  grid:    15593 G-vectors     FFT dimensions: (  36,  36,  36)

     Smooth grid:     5577 G-vectors     FFT dimensions: (  25,  25,  25)

     Estimated max dynamical RAM per process >       1.53MB

     Estimated total allocated dynamical RAM >       6.13MB

     The potential is recalculated from file :
     ./_ph0/na.fcc.save/charge-density.dat

     Starting wfc are    5 atomic +    4 random wfc

     Band Structure Calculation
     Davidson diagonalization with overlap

     ethr =  1.11E-10,  avg # of iterations = 17.0

     total cpu time spent up to now is       72.5 secs

     End of band structure calculation

     Number of k-points >= 100: set verbosity='high' to print the bands.

     the Fermi energy is     3.8925 ev

     Writing output data file na.fcc.save

                                                                                

     bravais-lattice index     =            2
     lattice parameter (alat)  =       8.6604  a.u.
     unit-cell volume          =     162.3881 (a.u.)^3
     number of atoms/cell      =            1
     number of atomic types    =            1
     kinetic-energy cut-off    =      40.0000  Ry
     charge density cut-off    =     320.0000  Ry
     convergence threshold     =      1.0E-12
     beta                      =       0.7000
     number of iterations used =            4
     Exchange-correlation      = SLA  PW   PBE  PBE ( 1  4  3  4 0 0)


     celldm(1)=    8.66040  celldm(2)=    0.00000  celldm(3)=    0.00000
     celldm(4)=    0.00000  celldm(5)=    0.00000  celldm(6)=    0.00000

     crystal axes: (cart. coord. in units of alat)
               a(1) = ( -0.5000  0.0000  0.5000 )  
               a(2) = (  0.0000  0.5000  0.5000 )  
               a(3) = ( -0.5000  0.5000  0.0000 )  

     reciprocal axes: (cart. coord. in units 2 pi/alat)
               b(1) = ( -1.0000 -1.0000  1.0000 )  
               b(2) = (  1.0000  1.0000  1.0000 )  
               b(3) = ( -1.0000  1.0000 -1.0000 )  


     Atoms inside the unit cell: 

     Cartesian axes

     site n.  atom      mass           positions (alat units)
        1     Na  22.9900   tau(    1) = (    0.00000    0.00000    0.00000  )

     Computing dynamical matrix for 
                    q = (  -0.1250000   0.1250000  -0.1250000 )

      6 Sym.Ops. (no q -> -q+G )


     G cutoff =  607.9479  (   3898 G-vectors)     FFT grid: ( 36, 36, 36)
     G cutoff =  303.9740  (   1394 G-vectors)  smooth grid: ( 25, 25, 25)

     number of k points=  4060  Marzari-Vanderbilt smearing, width (Ry)=  0.0200

     PseudoPot. # 1 for Na read from file:
     /home/s1333534/quantum_espresso/qe-6.1/pseudo/Na_pbe_v1.uspp.F.UPF
     MD5 check sum: 76a99c7e9422403d3e93cbc85ab7bccb
     Pseudo is Ultrasoft, Zval =  9.0
     Generated by new atomic code, or converted to UPF format
     Using radial grid of  819 points,  5 beta functions with: 
                l(1) =   0
                l(2) =   0
                l(3) =   1
                l(4) =   1
                l(5) =   2
     Q(r) pseudized with  8 coefficients,  rinner =    1.250   1.250   1.250
                                                       1.250   1.250

     Mode symmetry, C_3v (3m)   point group:


     Atomic displacements:
     There are   2 irreducible representations

     Representation     1      1 modes -A_1  L_1  To be done

     Representation     2      2 modes -E    L_3  To be done



     Alpha used in Ewald sum =   2.8000
     PHONON       :  1m43.71s CPU     1m51.80s WALL



     Representation #  1 mode #   1

     Self-consistent Calculation

      iter #   1 total cpu time :   123.9 secs   av.it.:   5.7
      thresh= 1.000E-02 alpha_mix =  0.700 |ddv_scf|^2 =  4.416E-01

      iter #   2 total cpu time :   136.4 secs   av.it.:   7.2
      thresh= 1.000E-02 alpha_mix =  0.700 |ddv_scf|^2 =  2.075E+02

      iter #   3 total cpu time :   149.0 secs   av.it.:   7.2
      thresh= 1.000E-02 alpha_mix =  0.700 |ddv_scf|^2 =  5.854E-04

      iter #   4 total cpu time :   158.5 secs   av.it.:   5.0
      thresh= 2.420E-03 alpha_mix =  0.700 |ddv_scf|^2 =  5.801E-07

      iter #   5 total cpu time :   170.6 secs   av.it.:   7.0
      thresh= 7.617E-05 alpha_mix =  0.700 |ddv_scf|^2 =  1.056E-08

      iter #   6 total cpu time :   182.9 secs   av.it.:   7.0
      thresh= 1.027E-05 alpha_mix =  0.700 |ddv_scf|^2 =  7.214E-07

      iter #   7 total cpu time :   191.1 secs   av.it.:   4.1
      thresh= 8.493E-05 alpha_mix =  0.700 |ddv_scf|^2 =  2.372E-10

      iter #   8 total cpu time :   203.8 secs   av.it.:   7.5
      thresh= 1.540E-06 alpha_mix =  0.700 |ddv_scf|^2 =  2.829E-11

      iter #   9 total cpu time :   216.0 secs   av.it.:   7.0
      thresh= 5.319E-07 alpha_mix =  0.700 |ddv_scf|^2 =  5.231E-13

     End of self-consistent calculation

     Convergence has been achieved 


     Representation #  2 modes #   2  3

     Self-consistent Calculation

      iter #   1 total cpu time :   240.2 secs   av.it.:   5.5
      thresh= 1.000E-02 alpha_mix =  0.700 |ddv_scf|^2 =  5.968E-06

      iter #   2 total cpu time :   268.0 secs   av.it.:   8.3
      thresh= 2.443E-04 alpha_mix =  0.700 |ddv_scf|^2 =  1.159E-07

      iter #   3 total cpu time :   295.8 secs   av.it.:   8.4
      thresh= 3.404E-05 alpha_mix =  0.700 |ddv_scf|^2 =  1.303E-09

      iter #   4 total cpu time :   322.9 secs   av.it.:   8.0
      thresh= 3.610E-06 alpha_mix =  0.700 |ddv_scf|^2 =  4.289E-12

      iter #   5 total cpu time :   350.4 secs   av.it.:   8.2
      thresh= 2.071E-07 alpha_mix =  0.700 |ddv_scf|^2 =  1.827E-14

     End of self-consistent calculation

     Convergence has been achieved 

     Number of q in the star =    8
     List of q in the star:
          1  -0.125000000   0.125000000  -0.125000000
          2   0.125000000  -0.125000000  -0.125000000
          3   0.125000000  -0.125000000   0.125000000
          4  -0.125000000   0.125000000   0.125000000
          5   0.125000000   0.125000000  -0.125000000
          6  -0.125000000  -0.125000000  -0.125000000
          7  -0.125000000  -0.125000000   0.125000000
          8   0.125000000   0.125000000   0.125000000

     Diagonalizing the dynamical matrix

     q = (   -0.125000000   0.125000000  -0.125000000 ) 

 **************************************************************************
     freq (    1) =       0.816442 [THz] =      27.233566 [cm-1]
     freq (    2) =       0.816442 [THz] =      27.233566 [cm-1]
     freq (    3) =       2.788531 [THz] =      93.015392 [cm-1]
 **************************************************************************

     Mode symmetry, C_3v (3m)   point group:

     freq (  1 -  2) =         27.2  [cm-1]   --> E    L_3           
     freq (  3 -  3) =         93.0  [cm-1]   --> A_1  L_1           

     Calculation of q =   -0.2500000   0.2500000  -0.2500000

   Info: using nr1, nr2, nr3 values from input

   Info: using nr1, nr2, nr3 values from input

     Parallelization info
     --------------------
     sticks:   dense  smooth     PW     G-vecs:    dense   smooth      PW
     Min         205     105     37                 3897     1394     309
     Max         207     106     38                 3900     1395     312
     Sum         823     421    151                15593     5577    1243



     bravais-lattice index     =            2
     lattice parameter (alat)  =       8.6604  a.u.
     unit-cell volume          =     162.3881 (a.u.)^3
     number of atoms/cell      =            1
     number of atomic types    =            1
     number of electrons       =         9.00
     number of Kohn-Sham states=            9
     kinetic-energy cutoff     =      40.0000  Ry
     charge density cutoff     =     320.0000  Ry
     Exchange-correlation      = SLA  PW   PBE  PBE ( 1  4  3  4 0 0)

     celldm(1)=   8.660402  celldm(2)=   0.000000  celldm(3)=   0.000000
     celldm(4)=   0.000000  celldm(5)=   0.000000  celldm(6)=   0.000000

     crystal axes: (cart. coord. in units of alat)
               a(1) = (  -0.500000   0.000000   0.500000 )  
               a(2) = (   0.000000   0.500000   0.500000 )  
               a(3) = (  -0.500000   0.500000   0.000000 )  

     reciprocal axes: (cart. coord. in units 2 pi/alat)
               b(1) = ( -1.000000 -1.000000  1.000000 )  
               b(2) = (  1.000000  1.000000  1.000000 )  
               b(3) = ( -1.000000  1.000000 -1.000000 )  


     PseudoPot. # 1 for Na read from file:
     /home/s1333534/quantum_espresso/qe-6.1/pseudo/Na_pbe_v1.uspp.F.UPF
     MD5 check sum: 76a99c7e9422403d3e93cbc85ab7bccb
     Pseudo is Ultrasoft, Zval =  9.0
     Generated by new atomic code, or converted to UPF format
     Using radial grid of  819 points,  5 beta functions with: 
                l(1) =   0
                l(2) =   0
                l(3) =   1
                l(4) =   1
                l(5) =   2
     Q(r) pseudized with  8 coefficients,  rinner =    1.250   1.250   1.250
                                                       1.250   1.250

     atomic species   valence    mass     pseudopotential
        Na             9.00    22.99000     Na( 1.00)

     48 Sym. Ops., with inversion, found



   Cartesian axes

     site n.     atom                  positions (alat units)
         1           Na  tau(   1) = (   0.0000000   0.0000000   0.0000000  )

     number of k points=  4060  Marzari-Vanderbilt smearing, width (Ry)=  0.0200

     Number of k-points >= 100: set verbosity='high' to print them.

     Dense  grid:    15593 G-vectors     FFT dimensions: (  36,  36,  36)

     Smooth grid:     5577 G-vectors     FFT dimensions: (  25,  25,  25)

     Estimated max dynamical RAM per process >       1.53MB

     Estimated total allocated dynamical RAM >       6.13MB

     The potential is recalculated from file :
     ./_ph0/na.fcc.save/charge-density.dat

     Starting wfc are    5 atomic +    4 random wfc

     Band Structure Calculation
     Davidson diagonalization with overlap

     ethr =  1.11E-10,  avg # of iterations = 17.1

     total cpu time spent up to now is      148.6 secs

     End of band structure calculation

     Number of k-points >= 100: set verbosity='high' to print the bands.

     the Fermi energy is     3.8925 ev

     Writing output data file na.fcc.save

                                                                                

     bravais-lattice index     =            2
     lattice parameter (alat)  =       8.6604  a.u.
     unit-cell volume          =     162.3881 (a.u.)^3
     number of atoms/cell      =            1
     number of atomic types    =            1
     kinetic-energy cut-off    =      40.0000  Ry
     charge density cut-off    =     320.0000  Ry
     convergence threshold     =      1.0E-12
     beta                      =       0.7000
     number of iterations used =            4
     Exchange-correlation      = SLA  PW   PBE  PBE ( 1  4  3  4 0 0)


     celldm(1)=    8.66040  celldm(2)=    0.00000  celldm(3)=    0.00000
     celldm(4)=    0.00000  celldm(5)=    0.00000  celldm(6)=    0.00000

     crystal axes: (cart. coord. in units of alat)
               a(1) = ( -0.5000  0.0000  0.5000 )  
               a(2) = (  0.0000  0.5000  0.5000 )  
               a(3) = ( -0.5000  0.5000  0.0000 )  

     reciprocal axes: (cart. coord. in units 2 pi/alat)
               b(1) = ( -1.0000 -1.0000  1.0000 )  
               b(2) = (  1.0000  1.0000  1.0000 )  
               b(3) = ( -1.0000  1.0000 -1.0000 )  


     Atoms inside the unit cell: 

     Cartesian axes

     site n.  atom      mass           positions (alat units)
        1     Na  22.9900   tau(    1) = (    0.00000    0.00000    0.00000  )

     Computing dynamical matrix for 
                    q = (  -0.2500000   0.2500000  -0.2500000 )

      6 Sym.Ops. (no q -> -q+G )


     G cutoff =  607.9479  (   3898 G-vectors)     FFT grid: ( 36, 36, 36)
     G cutoff =  303.9740  (   1394 G-vectors)  smooth grid: ( 25, 25, 25)

     number of k points=  4060  Marzari-Vanderbilt smearing, width (Ry)=  0.0200

     PseudoPot. # 1 for Na read from file:
     /home/s1333534/quantum_espresso/qe-6.1/pseudo/Na_pbe_v1.uspp.F.UPF
     MD5 check sum: 76a99c7e9422403d3e93cbc85ab7bccb
     Pseudo is Ultrasoft, Zval =  9.0
     Generated by new atomic code, or converted to UPF format
     Using radial grid of  819 points,  5 beta functions with: 
                l(1) =   0
                l(2) =   0
                l(3) =   1
                l(4) =   1
                l(5) =   2
     Q(r) pseudized with  8 coefficients,  rinner =    1.250   1.250   1.250
                                                       1.250   1.250

     Mode symmetry, C_3v (3m)   point group:


     Atomic displacements:
     There are   2 irreducible representations

     Representation     1      1 modes -A_1  L_1  To be done

     Representation     2      2 modes -E    L_3  To be done



     Alpha used in Ewald sum =   2.8000
     PHONON       :  6m35.32s CPU     7m12.90s WALL



     Representation #  1 mode #   1

     Self-consistent Calculation

      iter #   1 total cpu time :   445.0 secs   av.it.:   5.7
      thresh= 1.000E-02 alpha_mix =  0.700 |ddv_scf|^2 =  7.000E-03

      iter #   2 total cpu time :   456.3 secs   av.it.:   6.2
      thresh= 8.367E-03 alpha_mix =  0.700 |ddv_scf|^2 =  1.584E-01

      iter #   3 total cpu time :   467.6 secs   av.it.:   6.0
      thresh= 1.000E-02 alpha_mix =  0.700 |ddv_scf|^2 =  5.494E-06

      iter #   4 total cpu time :   480.2 secs   av.it.:   7.2
      thresh= 2.344E-04 alpha_mix =  0.700 |ddv_scf|^2 =  1.944E-08

      iter #   5 total cpu time :   493.6 secs   av.it.:   8.0
      thresh= 1.394E-05 alpha_mix =  0.700 |ddv_scf|^2 =  3.851E-09

      iter #   6 total cpu time :   506.7 secs   av.it.:   7.5
      thresh= 6.206E-06 alpha_mix =  0.700 |ddv_scf|^2 =  4.263E-11

      iter #   7 total cpu time :   519.7 secs   av.it.:   7.6
      thresh= 6.529E-07 alpha_mix =  0.700 |ddv_scf|^2 =  6.431E-12

      iter #   8 total cpu time :   532.1 secs   av.it.:   7.1
      thresh= 2.536E-07 alpha_mix =  0.700 |ddv_scf|^2 =  3.297E-11

      iter #   9 total cpu time :   543.0 secs   av.it.:   5.9
      thresh= 5.742E-07 alpha_mix =  0.700 |ddv_scf|^2 =  2.539E-12

      iter #  10 total cpu time :   555.1 secs   av.it.:   7.0
      thresh= 1.593E-07 alpha_mix =  0.700 |ddv_scf|^2 =  4.435E-14

     End of self-consistent calculation

     Convergence has been achieved 


     Representation #  2 modes #   2  3

     Self-consistent Calculation

      iter #   1 total cpu time :   580.0 secs   av.it.:   5.6
      thresh= 1.000E-02 alpha_mix =  0.700 |ddv_scf|^2 =  6.119E-06

      iter #   2 total cpu time :   607.9 secs   av.it.:   8.3
      thresh= 2.474E-04 alpha_mix =  0.700 |ddv_scf|^2 =  1.147E-07

      iter #   3 total cpu time :   636.0 secs   av.it.:   8.4
      thresh= 3.386E-05 alpha_mix =  0.700 |ddv_scf|^2 =  1.573E-09

      iter #   4 total cpu time :   663.1 secs   av.it.:   8.0
      thresh= 3.966E-06 alpha_mix =  0.700 |ddv_scf|^2 =  5.281E-12

      iter #   5 total cpu time :   690.6 secs   av.it.:   8.3
      thresh= 2.298E-07 alpha_mix =  0.700 |ddv_scf|^2 =  1.754E-14

     End of self-consistent calculation

     Convergence has been achieved 

     Number of q in the star =    8
     List of q in the star:
          1  -0.250000000   0.250000000  -0.250000000
          2   0.250000000  -0.250000000  -0.250000000
          3   0.250000000  -0.250000000   0.250000000
          4  -0.250000000   0.250000000   0.250000000
          5   0.250000000   0.250000000  -0.250000000
          6  -0.250000000  -0.250000000  -0.250000000
          7  -0.250000000  -0.250000000   0.250000000
          8   0.250000000   0.250000000   0.250000000

     Diagonalizing the dynamical matrix

     q = (   -0.250000000   0.250000000  -0.250000000 ) 

 **************************************************************************
     freq (    1) =       1.475644 [THz] =      49.222189 [cm-1]
     freq (    2) =       1.475644 [THz] =      49.222189 [cm-1]
     freq (    3) =       4.808210 [THz] =     160.384614 [cm-1]
 **************************************************************************

     Mode symmetry, C_3v (3m)   point group:

     freq (  1 -  2) =         49.2  [cm-1]   --> E    L_3           
     freq (  3 -  3) =        160.4  [cm-1]   --> A_1  L_1           

     Calculation of q =   -0.3750000   0.3750000  -0.3750000

   Info: using nr1, nr2, nr3 values from input

   Info: using nr1, nr2, nr3 values from input

     Parallelization info
     --------------------
     sticks:   dense  smooth     PW     G-vecs:    dense   smooth      PW
     Min         205     105     40                 3896     1394     340
     Max         206     106     41                 3899     1395     342
     Sum         823     421    163                15593     5577    1363



     bravais-lattice index     =            2
     lattice parameter (alat)  =       8.6604  a.u.
     unit-cell volume          =     162.3881 (a.u.)^3
     number of atoms/cell      =            1
     number of atomic types    =            1
     number of electrons       =         9.00
     number of Kohn-Sham states=            9
     kinetic-energy cutoff     =      40.0000  Ry
     charge density cutoff     =     320.0000  Ry
     Exchange-correlation      = SLA  PW   PBE  PBE ( 1  4  3  4 0 0)

     celldm(1)=   8.660402  celldm(2)=   0.000000  celldm(3)=   0.000000
     celldm(4)=   0.000000  celldm(5)=   0.000000  celldm(6)=   0.000000

     crystal axes: (cart. coord. in units of alat)
               a(1) = (  -0.500000   0.000000   0.500000 )  
               a(2) = (   0.000000   0.500000   0.500000 )  
               a(3) = (  -0.500000   0.500000   0.000000 )  

     reciprocal axes: (cart. coord. in units 2 pi/alat)
               b(1) = ( -1.000000 -1.000000  1.000000 )  
               b(2) = (  1.000000  1.000000  1.000000 )  
               b(3) = ( -1.000000  1.000000 -1.000000 )  


     PseudoPot. # 1 for Na read from file:
     /home/s1333534/quantum_espresso/qe-6.1/pseudo/Na_pbe_v1.uspp.F.UPF
     MD5 check sum: 76a99c7e9422403d3e93cbc85ab7bccb
     Pseudo is Ultrasoft, Zval =  9.0
     Generated by new atomic code, or converted to UPF format
     Using radial grid of  819 points,  5 beta functions with: 
                l(1) =   0
                l(2) =   0
                l(3) =   1
                l(4) =   1
                l(5) =   2
     Q(r) pseudized with  8 coefficients,  rinner =    1.250   1.250   1.250
                                                       1.250   1.250

     atomic species   valence    mass     pseudopotential
        Na             9.00    22.99000     Na( 1.00)

     48 Sym. Ops., with inversion, found



   Cartesian axes

     site n.     atom                  positions (alat units)
         1           Na  tau(   1) = (   0.0000000   0.0000000   0.0000000  )

     number of k points=  4060  Marzari-Vanderbilt smearing, width (Ry)=  0.0200

     Number of k-points >= 100: set verbosity='high' to print them.

     Dense  grid:    15593 G-vectors     FFT dimensions: (  36,  36,  36)

     Smooth grid:     5577 G-vectors     FFT dimensions: (  25,  25,  25)

     Estimated max dynamical RAM per process >       1.53MB

     Estimated total allocated dynamical RAM >       6.13MB

     The potential is recalculated from file :
     ./_ph0/na.fcc.save/charge-density.dat

     Starting wfc are    5 atomic +    4 random wfc

     Band Structure Calculation
     Davidson diagonalization with overlap

     ethr =  1.11E-10,  avg # of iterations = 17.0

     total cpu time spent up to now is      223.6 secs

     End of band structure calculation

     Number of k-points >= 100: set verbosity='high' to print the bands.

     the Fermi energy is     3.8925 ev

     Writing output data file na.fcc.save

                                                                                

     bravais-lattice index     =            2
     lattice parameter (alat)  =       8.6604  a.u.
     unit-cell volume          =     162.3881 (a.u.)^3
     number of atoms/cell      =            1
     number of atomic types    =            1
     kinetic-energy cut-off    =      40.0000  Ry
     charge density cut-off    =     320.0000  Ry
     convergence threshold     =      1.0E-12
     beta                      =       0.7000
     number of iterations used =            4
     Exchange-correlation      = SLA  PW   PBE  PBE ( 1  4  3  4 0 0)


     celldm(1)=    8.66040  celldm(2)=    0.00000  celldm(3)=    0.00000
     celldm(4)=    0.00000  celldm(5)=    0.00000  celldm(6)=    0.00000

     crystal axes: (cart. coord. in units of alat)
               a(1) = ( -0.5000  0.0000  0.5000 )  
               a(2) = (  0.0000  0.5000  0.5000 )  
               a(3) = ( -0.5000  0.5000  0.0000 )  

     reciprocal axes: (cart. coord. in units 2 pi/alat)
               b(1) = ( -1.0000 -1.0000  1.0000 )  
               b(2) = (  1.0000  1.0000  1.0000 )  
               b(3) = ( -1.0000  1.0000 -1.0000 )  


     Atoms inside the unit cell: 

     Cartesian axes

     site n.  atom      mass           positions (alat units)
        1     Na  22.9900   tau(    1) = (    0.00000    0.00000    0.00000  )

     Computing dynamical matrix for 
                    q = (  -0.3750000   0.3750000  -0.3750000 )

      6 Sym.Ops. (no q -> -q+G )


     G cutoff =  607.9479  (   3899 G-vectors)     FFT grid: ( 36, 36, 36)
     G cutoff =  303.9740  (   1394 G-vectors)  smooth grid: ( 25, 25, 25)

     number of k points=  4060  Marzari-Vanderbilt smearing, width (Ry)=  0.0200

     PseudoPot. # 1 for Na read from file:
     /home/s1333534/quantum_espresso/qe-6.1/pseudo/Na_pbe_v1.uspp.F.UPF
     MD5 check sum: 76a99c7e9422403d3e93cbc85ab7bccb
     Pseudo is Ultrasoft, Zval =  9.0
     Generated by new atomic code, or converted to UPF format
     Using radial grid of  819 points,  5 beta functions with: 
                l(1) =   0
                l(2) =   0
                l(3) =   1
                l(4) =   1
                l(5) =   2
     Q(r) pseudized with  8 coefficients,  rinner =    1.250   1.250   1.250
                                                       1.250   1.250

     Mode symmetry, C_3v (3m)   point group:


     Atomic displacements:
     There are   2 irreducible representations

     Representation     1      1 modes -A_1  L_1  To be done

     Representation     2      2 modes -E    L_3  To be done



     Alpha used in Ewald sum =   2.8000
     PHONON       : 11m43.62s CPU    12m53.14s WALL



     Representation #  1 mode #   1

     Self-consistent Calculation

      iter #   1 total cpu time :   785.4 secs   av.it.:   5.8
      thresh= 1.000E-02 alpha_mix =  0.700 |ddv_scf|^2 =  7.187E-04

      iter #   2 total cpu time :   797.3 secs   av.it.:   6.6
      thresh= 2.681E-03 alpha_mix =  0.700 |ddv_scf|^2 =  2.099E-03

      iter #   3 total cpu time :   808.4 secs   av.it.:   6.1
      thresh= 4.582E-03 alpha_mix =  0.700 |ddv_scf|^2 =  8.729E-07

      iter #   4 total cpu time :   821.6 secs   av.it.:   7.7
      thresh= 9.343E-05 alpha_mix =  0.700 |ddv_scf|^2 =  2.163E-08

      iter #   5 total cpu time :   835.3 secs   av.it.:   8.1
      thresh= 1.471E-05 alpha_mix =  0.700 |ddv_scf|^2 =  9.961E-10

      iter #   6 total cpu time :   848.9 secs   av.it.:   7.8
      thresh= 3.156E-06 alpha_mix =  0.700 |ddv_scf|^2 =  3.412E-11

      iter #   7 total cpu time :   861.8 secs   av.it.:   7.5
      thresh= 5.841E-07 alpha_mix =  0.700 |ddv_scf|^2 =  1.959E-12

      iter #   8 total cpu time :   875.0 secs   av.it.:   7.7
      thresh= 1.399E-07 alpha_mix =  0.700 |ddv_scf|^2 =  6.652E-15

     End of self-consistent calculation

     Convergence has been achieved 


     Representation #  2 modes #   2  3

     Self-consistent Calculation

      iter #   1 total cpu time :   899.3 secs   av.it.:   5.6
      thresh= 1.000E-02 alpha_mix =  0.700 |ddv_scf|^2 =  6.263E-06

      iter #   2 total cpu time :   928.4 secs   av.it.:   8.3
      thresh= 2.503E-04 alpha_mix =  0.700 |ddv_scf|^2 =  1.137E-07

      iter #   3 total cpu time :   957.2 secs   av.it.:   8.3
      thresh= 3.373E-05 alpha_mix =  0.700 |ddv_scf|^2 =  1.808E-09

      iter #   4 total cpu time :   984.5 secs   av.it.:   8.0
      thresh= 4.252E-06 alpha_mix =  0.700 |ddv_scf|^2 =  6.158E-12

      iter #   5 total cpu time :  1012.9 secs   av.it.:   8.3
      thresh= 2.481E-07 alpha_mix =  0.700 |ddv_scf|^2 =  1.725E-14

     End of self-consistent calculation

     Convergence has been achieved 

     Number of q in the star =    8
     List of q in the star:
          1  -0.375000000   0.375000000  -0.375000000
          2   0.375000000  -0.375000000  -0.375000000
          3   0.375000000  -0.375000000   0.375000000
          4  -0.375000000   0.375000000   0.375000000
          5   0.375000000   0.375000000  -0.375000000
          6  -0.375000000  -0.375000000  -0.375000000
          7  -0.375000000  -0.375000000   0.375000000
          8   0.375000000   0.375000000   0.375000000

     Diagonalizing the dynamical matrix

     q = (   -0.375000000   0.375000000  -0.375000000 ) 

 **************************************************************************
     freq (    1) =       1.961137 [THz] =      65.416504 [cm-1]
     freq (    2) =       1.961137 [THz] =      65.416504 [cm-1]
     freq (    3) =       6.309191 [THz] =     210.451943 [cm-1]
 **************************************************************************

     Mode symmetry, C_3v (3m)   point group:

     freq (  1 -  2) =         65.4  [cm-1]   --> E    L_3           
     freq (  3 -  3) =        210.5  [cm-1]   --> A_1  L_1           

     Calculation of q =    0.5000000  -0.5000000   0.5000000

   Info: using nr1, nr2, nr3 values from input

   Info: using nr1, nr2, nr3 values from input

     Parallelization info
     --------------------
     sticks:   dense  smooth     PW     G-vecs:    dense   smooth      PW
     Min         205     105     40                 3896     1394     351
     Max         206     106     41                 3899     1395     354
     Sum         823     421    163                15593     5577    1411



     bravais-lattice index     =            2
     lattice parameter (alat)  =       8.6604  a.u.
     unit-cell volume          =     162.3881 (a.u.)^3
     number of atoms/cell      =            1
     number of atomic types    =            1
     number of electrons       =         9.00
     number of Kohn-Sham states=            9
     kinetic-energy cutoff     =      40.0000  Ry
     charge density cutoff     =     320.0000  Ry
     Exchange-correlation      = SLA  PW   PBE  PBE ( 1  4  3  4 0 0)

     celldm(1)=   8.660402  celldm(2)=   0.000000  celldm(3)=   0.000000
     celldm(4)=   0.000000  celldm(5)=   0.000000  celldm(6)=   0.000000

     crystal axes: (cart. coord. in units of alat)
               a(1) = (  -0.500000   0.000000   0.500000 )  
               a(2) = (   0.000000   0.500000   0.500000 )  
               a(3) = (  -0.500000   0.500000   0.000000 )  

     reciprocal axes: (cart. coord. in units 2 pi/alat)
               b(1) = ( -1.000000 -1.000000  1.000000 )  
               b(2) = (  1.000000  1.000000  1.000000 )  
               b(3) = ( -1.000000  1.000000 -1.000000 )  


     PseudoPot. # 1 for Na read from file:
     /home/s1333534/quantum_espresso/qe-6.1/pseudo/Na_pbe_v1.uspp.F.UPF
     MD5 check sum: 76a99c7e9422403d3e93cbc85ab7bccb
     Pseudo is Ultrasoft, Zval =  9.0
     Generated by new atomic code, or converted to UPF format
     Using radial grid of  819 points,  5 beta functions with: 
                l(1) =   0
                l(2) =   0
                l(3) =   1
                l(4) =   1
                l(5) =   2
     Q(r) pseudized with  8 coefficients,  rinner =    1.250   1.250   1.250
                                                       1.250   1.250

     atomic species   valence    mass     pseudopotential
        Na             9.00    22.99000     Na( 1.00)

     48 Sym. Ops., with inversion, found



   Cartesian axes

     site n.     atom                  positions (alat units)
         1           Na  tau(   1) = (   0.0000000   0.0000000   0.0000000  )

     number of k points=  2030  Marzari-Vanderbilt smearing, width (Ry)=  0.0200

     Number of k-points >= 100: set verbosity='high' to print them.

     Dense  grid:    15593 G-vectors     FFT dimensions: (  36,  36,  36)

     Smooth grid:     5577 G-vectors     FFT dimensions: (  25,  25,  25)

     Estimated max dynamical RAM per process >       1.53MB

     Estimated total allocated dynamical RAM >       6.13MB

     The potential is recalculated from file :
     ./_ph0/na.fcc.save/charge-density.dat

     Starting wfc are    5 atomic +    4 random wfc

     Band Structure Calculation
     Davidson diagonalization with overlap

     ethr =  1.11E-10,  avg # of iterations = 17.0

     total cpu time spent up to now is      262.6 secs

     End of band structure calculation

     Number of k-points >= 100: set verbosity='high' to print the bands.

     the Fermi energy is     3.8925 ev

     Writing output data file na.fcc.save

                                                                                

     bravais-lattice index     =            2
     lattice parameter (alat)  =       8.6604  a.u.
     unit-cell volume          =     162.3881 (a.u.)^3
     number of atoms/cell      =            1
     number of atomic types    =            1
     kinetic-energy cut-off    =      40.0000  Ry
     charge density cut-off    =     320.0000  Ry
     convergence threshold     =      1.0E-12
     beta                      =       0.7000
     number of iterations used =            4
     Exchange-correlation      = SLA  PW   PBE  PBE ( 1  4  3  4 0 0)


     celldm(1)=    8.66040  celldm(2)=    0.00000  celldm(3)=    0.00000
     celldm(4)=    0.00000  celldm(5)=    0.00000  celldm(6)=    0.00000

     crystal axes: (cart. coord. in units of alat)
               a(1) = ( -0.5000  0.0000  0.5000 )  
               a(2) = (  0.0000  0.5000  0.5000 )  
               a(3) = ( -0.5000  0.5000  0.0000 )  

     reciprocal axes: (cart. coord. in units 2 pi/alat)
               b(1) = ( -1.0000 -1.0000  1.0000 )  
               b(2) = (  1.0000  1.0000  1.0000 )  
               b(3) = ( -1.0000  1.0000 -1.0000 )  


     Atoms inside the unit cell: 

     Cartesian axes

     site n.  atom      mass           positions (alat units)
        1     Na  22.9900   tau(    1) = (    0.00000    0.00000    0.00000  )

     Computing dynamical matrix for 
                    q = (   0.5000000  -0.5000000   0.5000000 )

     13 Sym.Ops. (with q -> -q+G )


     G cutoff =  607.9479  (   3899 G-vectors)     FFT grid: ( 36, 36, 36)
     G cutoff =  303.9740  (   1394 G-vectors)  smooth grid: ( 25, 25, 25)

     number of k points=  2030  Marzari-Vanderbilt smearing, width (Ry)=  0.0200

     PseudoPot. # 1 for Na read from file:
     /home/s1333534/quantum_espresso/qe-6.1/pseudo/Na_pbe_v1.uspp.F.UPF
     MD5 check sum: 76a99c7e9422403d3e93cbc85ab7bccb
     Pseudo is Ultrasoft, Zval =  9.0
     Generated by new atomic code, or converted to UPF format
     Using radial grid of  819 points,  5 beta functions with: 
                l(1) =   0
                l(2) =   0
                l(3) =   1
                l(4) =   1
                l(5) =   2
     Q(r) pseudized with  8 coefficients,  rinner =    1.250   1.250   1.250
                                                       1.250   1.250

     Mode symmetry, D_3d (-3m)  point group:


     Atomic displacements:
     There are   2 irreducible representations

     Representation     1      1 modes -A_2u L_2'  To be done

     Representation     2      2 modes -E_u  L_3'  To be done



     Alpha used in Ewald sum =   2.8000
     PHONON       : 15m55.95s CPU    17m34.06s WALL



     Representation #  1 mode #   1

     Self-consistent Calculation

      iter #   1 total cpu time :  1060.3 secs   av.it.:   5.8
      thresh= 1.000E-02 alpha_mix =  0.700 |ddv_scf|^2 =  2.742E-04

      iter #   2 total cpu time :  1066.3 secs   av.it.:   6.7
      thresh= 1.656E-03 alpha_mix =  0.700 |ddv_scf|^2 =  1.550E-04

      iter #   3 total cpu time :  1072.3 secs   av.it.:   6.6
      thresh= 1.245E-03 alpha_mix =  0.700 |ddv_scf|^2 =  1.550E-07

      iter #   4 total cpu time :  1078.9 secs   av.it.:   7.7
      thresh= 3.937E-05 alpha_mix =  0.700 |ddv_scf|^2 =  5.762E-10

      iter #   5 total cpu time :  1084.9 secs   av.it.:   6.7
      thresh= 2.400E-06 alpha_mix =  0.700 |ddv_scf|^2 =  1.445E-11

      iter #   6 total cpu time :  1091.2 secs   av.it.:   6.3
      thresh= 3.801E-07 alpha_mix =  0.700 |ddv_scf|^2 =  2.429E-14

     End of self-consistent calculation

     Convergence has been achieved 


     Representation #  2 modes #   2  3

     Self-consistent Calculation

      iter #   1 total cpu time :  1103.2 secs   av.it.:   5.5
      thresh= 1.000E-02 alpha_mix =  0.700 |ddv_scf|^2 =  6.319E-06

      iter #   2 total cpu time :  1117.0 secs   av.it.:   8.2
      thresh= 2.514E-04 alpha_mix =  0.700 |ddv_scf|^2 =  1.136E-07

      iter #   3 total cpu time :  1131.3 secs   av.it.:   8.3
      thresh= 3.371E-05 alpha_mix =  0.700 |ddv_scf|^2 =  1.899E-09

      iter #   4 total cpu time :  1144.5 secs   av.it.:   7.7
      thresh= 4.358E-06 alpha_mix =  0.700 |ddv_scf|^2 =  6.414E-12

      iter #   5 total cpu time :  1158.1 secs   av.it.:   8.0
      thresh= 2.533E-07 alpha_mix =  0.700 |ddv_scf|^2 =  1.724E-14

     End of self-consistent calculation

     Convergence has been achieved 

     Number of q in the star =    4
     List of q in the star:
          1   0.500000000  -0.500000000   0.500000000
          2   0.500000000   0.500000000   0.500000000
          3  -0.500000000   0.500000000   0.500000000
          4   0.500000000   0.500000000  -0.500000000

     Diagonalizing the dynamical matrix

     q = (    0.500000000  -0.500000000   0.500000000 ) 

 **************************************************************************
     freq (    1) =       2.194722 [THz] =      73.208042 [cm-1]
     freq (    2) =       2.194722 [THz] =      73.208042 [cm-1]
     freq (    3) =       6.869007 [THz] =     229.125406 [cm-1]
 **************************************************************************

     Mode symmetry, D_3d (-3m)  point group:

     freq (  1 -  2) =         73.2  [cm-1]   --> E_u  L_3'          
     freq (  3 -  3) =        229.1  [cm-1]   --> A_2u L_2'          

     Calculation of q =    0.0000000   0.2500000   0.0000000

   Info: using nr1, nr2, nr3 values from input

   Info: using nr1, nr2, nr3 values from input

     Parallelization info
     --------------------
     sticks:   dense  smooth     PW     G-vecs:    dense   smooth      PW
     Min         205     105     37                 3897     1394     309
     Max         207     106     38                 3900     1395     312
     Sum         823     421    151                15593     5577    1243



     bravais-lattice index     =            2
     lattice parameter (alat)  =       8.6604  a.u.
     unit-cell volume          =     162.3881 (a.u.)^3
     number of atoms/cell      =            1
     number of atomic types    =            1
     number of electrons       =         9.00
     number of Kohn-Sham states=            9
     kinetic-energy cutoff     =      40.0000  Ry
     charge density cutoff     =     320.0000  Ry
     Exchange-correlation      = SLA  PW   PBE  PBE ( 1  4  3  4 0 0)

     celldm(1)=   8.660402  celldm(2)=   0.000000  celldm(3)=   0.000000
     celldm(4)=   0.000000  celldm(5)=   0.000000  celldm(6)=   0.000000

     crystal axes: (cart. coord. in units of alat)
               a(1) = (  -0.500000   0.000000   0.500000 )  
               a(2) = (   0.000000   0.500000   0.500000 )  
               a(3) = (  -0.500000   0.500000   0.000000 )  

     reciprocal axes: (cart. coord. in units 2 pi/alat)
               b(1) = ( -1.000000 -1.000000  1.000000 )  
               b(2) = (  1.000000  1.000000  1.000000 )  
               b(3) = ( -1.000000  1.000000 -1.000000 )  


     PseudoPot. # 1 for Na read from file:
     /home/s1333534/quantum_espresso/qe-6.1/pseudo/Na_pbe_v1.uspp.F.UPF
     MD5 check sum: 76a99c7e9422403d3e93cbc85ab7bccb
     Pseudo is Ultrasoft, Zval =  9.0
     Generated by new atomic code, or converted to UPF format
     Using radial grid of  819 points,  5 beta functions with: 
                l(1) =   0
                l(2) =   0
                l(3) =   1
                l(4) =   1
                l(5) =   2
     Q(r) pseudized with  8 coefficients,  rinner =    1.250   1.250   1.250
                                                       1.250   1.250

     atomic species   valence    mass     pseudopotential
        Na             9.00    22.99000     Na( 1.00)

     48 Sym. Ops., with inversion, found



   Cartesian axes

     site n.     atom                  positions (alat units)
         1           Na  tau(   1) = (   0.0000000   0.0000000   0.0000000  )

     number of k points=  2940  Marzari-Vanderbilt smearing, width (Ry)=  0.0200

     Number of k-points >= 100: set verbosity='high' to print them.

     Dense  grid:    15593 G-vectors     FFT dimensions: (  36,  36,  36)

     Smooth grid:     5577 G-vectors     FFT dimensions: (  25,  25,  25)

     Estimated max dynamical RAM per process >       1.53MB

     Estimated total allocated dynamical RAM >       6.13MB

     The potential is recalculated from file :
     ./_ph0/na.fcc.save/charge-density.dat

     Starting wfc are    5 atomic +    4 random wfc

     Band Structure Calculation
     Davidson diagonalization with overlap

     ethr =  1.11E-10,  avg # of iterations = 17.0

     total cpu time spent up to now is      316.3 secs

     End of band structure calculation

     Number of k-points >= 100: set verbosity='high' to print the bands.

     the Fermi energy is     3.8925 ev

     Writing output data file na.fcc.save

                                                                                

     bravais-lattice index     =            2
     lattice parameter (alat)  =       8.6604  a.u.
     unit-cell volume          =     162.3881 (a.u.)^3
     number of atoms/cell      =            1
     number of atomic types    =            1
     kinetic-energy cut-off    =      40.0000  Ry
     charge density cut-off    =     320.0000  Ry
     convergence threshold     =      1.0E-12
     beta                      =       0.7000
     number of iterations used =            4
     Exchange-correlation      = SLA  PW   PBE  PBE ( 1  4  3  4 0 0)


     celldm(1)=    8.66040  celldm(2)=    0.00000  celldm(3)=    0.00000
     celldm(4)=    0.00000  celldm(5)=    0.00000  celldm(6)=    0.00000

     crystal axes: (cart. coord. in units of alat)
               a(1) = ( -0.5000  0.0000  0.5000 )  
               a(2) = (  0.0000  0.5000  0.5000 )  
               a(3) = ( -0.5000  0.5000  0.0000 )  

     reciprocal axes: (cart. coord. in units 2 pi/alat)
               b(1) = ( -1.0000 -1.0000  1.0000 )  
               b(2) = (  1.0000  1.0000  1.0000 )  
               b(3) = ( -1.0000  1.0000 -1.0000 )  


     Atoms inside the unit cell: 

     Cartesian axes

     site n.  atom      mass           positions (alat units)
        1     Na  22.9900   tau(    1) = (    0.00000    0.00000    0.00000  )

     Computing dynamical matrix for 
                    q = (   0.0000000   0.2500000   0.0000000 )

      8 Sym.Ops. (no q -> -q+G )


     G cutoff =  607.9479  (   3898 G-vectors)     FFT grid: ( 36, 36, 36)
     G cutoff =  303.9740  (   1394 G-vectors)  smooth grid: ( 25, 25, 25)

     number of k points=  2940  Marzari-Vanderbilt smearing, width (Ry)=  0.0200

     PseudoPot. # 1 for Na read from file:
     /home/s1333534/quantum_espresso/qe-6.1/pseudo/Na_pbe_v1.uspp.F.UPF
     MD5 check sum: 76a99c7e9422403d3e93cbc85ab7bccb
     Pseudo is Ultrasoft, Zval =  9.0
     Generated by new atomic code, or converted to UPF format
     Using radial grid of  819 points,  5 beta functions with: 
                l(1) =   0
                l(2) =   0
                l(3) =   1
                l(4) =   1
                l(5) =   2
     Q(r) pseudized with  8 coefficients,  rinner =    1.250   1.250   1.250
                                                       1.250   1.250

     Mode symmetry, C_4v (4mm)  point group:


     Atomic displacements:
     There are   2 irreducible representations

     Representation     1      1 modes -A_1  G_1 D_1  To be done

     Representation     2      2 modes -E    G_5 D_5  To be done



     Alpha used in Ewald sum =   2.8000
     PHONON       : 18m25.33s CPU    20m17.13s WALL



     Representation #  1 mode #   1

     Self-consistent Calculation

      iter #   1 total cpu time :  1225.8 secs   av.it.:   5.6
      thresh= 1.000E-02 alpha_mix =  0.700 |ddv_scf|^2 =  1.978E-01

      iter #   2 total cpu time :  1234.8 secs   av.it.:   7.0
      thresh= 1.000E-02 alpha_mix =  0.700 |ddv_scf|^2 =  5.424E+01

      iter #   3 total cpu time :  1243.7 secs   av.it.:   7.0
      thresh= 1.000E-02 alpha_mix =  0.700 |ddv_scf|^2 =  4.609E-05

      iter #   4 total cpu time :  1252.3 secs   av.it.:   6.3
      thresh= 6.789E-04 alpha_mix =  0.700 |ddv_scf|^2 =  4.499E-07

      iter #   5 total cpu time :  1261.2 secs   av.it.:   7.1
      thresh= 6.708E-05 alpha_mix =  0.700 |ddv_scf|^2 =  1.615E-08

      iter #   6 total cpu time :  1269.2 secs   av.it.:   6.1
      thresh= 1.271E-05 alpha_mix =  0.700 |ddv_scf|^2 =  2.401E-07

      iter #   7 total cpu time :  1276.4 secs   av.it.:   5.3
      thresh= 4.900E-05 alpha_mix =  0.700 |ddv_scf|^2 =  7.910E-11

      iter #   8 total cpu time :  1286.2 secs   av.it.:   7.8
      thresh= 8.894E-07 alpha_mix =  0.700 |ddv_scf|^2 =  1.810E-11

      iter #   9 total cpu time :  1295.1 secs   av.it.:   7.1
      thresh= 4.254E-07 alpha_mix =  0.700 |ddv_scf|^2 =  1.561E-13

     End of self-consistent calculation

     Convergence has been achieved 


     Representation #  2 modes #   2  3

     Self-consistent Calculation

      iter #   1 total cpu time :  1312.4 secs   av.it.:   5.5
      thresh= 1.000E-02 alpha_mix =  0.700 |ddv_scf|^2 =  6.170E-06

      iter #   2 total cpu time :  1332.4 secs   av.it.:   8.2
      thresh= 2.484E-04 alpha_mix =  0.700 |ddv_scf|^2 =  1.126E-07

      iter #   3 total cpu time :  1353.3 secs   av.it.:   8.4
      thresh= 3.356E-05 alpha_mix =  0.700 |ddv_scf|^2 =  1.762E-09

      iter #   4 total cpu time :  1372.6 secs   av.it.:   7.9
      thresh= 4.198E-06 alpha_mix =  0.700 |ddv_scf|^2 =  5.691E-12

      iter #   5 total cpu time :  1392.4 secs   av.it.:   8.2
      thresh= 2.386E-07 alpha_mix =  0.700 |ddv_scf|^2 =  1.577E-14

     End of self-consistent calculation

     Convergence has been achieved 

     Number of q in the star =    6
     List of q in the star:
          1   0.000000000   0.250000000   0.000000000
          2   0.000000000  -0.250000000   0.000000000
          3   0.250000000   0.000000000   0.000000000
          4   0.000000000   0.000000000   0.250000000
          5   0.000000000   0.000000000  -0.250000000
          6  -0.250000000   0.000000000   0.000000000

     Diagonalizing the dynamical matrix

     q = (    0.000000000   0.250000000   0.000000000 ) 

 **************************************************************************
     freq (    1) =       1.492289 [THz] =      49.777403 [cm-1]
     freq (    2) =       1.492289 [THz] =      49.777403 [cm-1]
     freq (    3) =       2.643770 [THz] =      88.186681 [cm-1]
 **************************************************************************

     Mode symmetry, C_4v (4mm)  point group:

     freq (  1 -  2) =         49.8  [cm-1]   --> E    G_5 D_5       
     freq (  3 -  3) =         88.2  [cm-1]   --> A_1  G_1 D_1       

     Calculation of q =   -0.1250000   0.3750000  -0.1250000

   Info: using nr1, nr2, nr3 values from input

   Info: using nr1, nr2, nr3 values from input

     Parallelization info
     --------------------
     sticks:   dense  smooth     PW     G-vecs:    dense   smooth      PW
     Min         205     105     37                 3897     1394     309
     Max         207     106     38                 3900     1395     312
     Sum         823     421    151                15593     5577    1243



     bravais-lattice index     =            2
     lattice parameter (alat)  =       8.6604  a.u.
     unit-cell volume          =     162.3881 (a.u.)^3
     number of atoms/cell      =            1
     number of atomic types    =            1
     number of electrons       =         9.00
     number of Kohn-Sham states=            9
     kinetic-energy cutoff     =      40.0000  Ry
     charge density cutoff     =     320.0000  Ry
     Exchange-correlation      = SLA  PW   PBE  PBE ( 1  4  3  4 0 0)

     celldm(1)=   8.660402  celldm(2)=   0.000000  celldm(3)=   0.000000
     celldm(4)=   0.000000  celldm(5)=   0.000000  celldm(6)=   0.000000

     crystal axes: (cart. coord. in units of alat)
               a(1) = (  -0.500000   0.000000   0.500000 )  
               a(2) = (   0.000000   0.500000   0.500000 )  
               a(3) = (  -0.500000   0.500000   0.000000 )  

     reciprocal axes: (cart. coord. in units 2 pi/alat)
               b(1) = ( -1.000000 -1.000000  1.000000 )  
               b(2) = (  1.000000  1.000000  1.000000 )  
               b(3) = ( -1.000000  1.000000 -1.000000 )  


     PseudoPot. # 1 for Na read from file:
     /home/s1333534/quantum_espresso/qe-6.1/pseudo/Na_pbe_v1.uspp.F.UPF
     MD5 check sum: 76a99c7e9422403d3e93cbc85ab7bccb
     Pseudo is Ultrasoft, Zval =  9.0
     Generated by new atomic code, or converted to UPF format
     Using radial grid of  819 points,  5 beta functions with: 
                l(1) =   0
                l(2) =   0
                l(3) =   1
                l(4) =   1
                l(5) =   2
     Q(r) pseudized with  8 coefficients,  rinner =    1.250   1.250   1.250
                                                       1.250   1.250

     atomic species   valence    mass     pseudopotential
        Na             9.00    22.99000     Na( 1.00)

     48 Sym. Ops., with inversion, found



   Cartesian axes

     site n.     atom                  positions (alat units)
         1           Na  tau(   1) = (   0.0000000   0.0000000   0.0000000  )

     number of k points= 11368  Marzari-Vanderbilt smearing, width (Ry)=  0.0200

     Number of k-points >= 100: set verbosity='high' to print them.

     Dense  grid:    15593 G-vectors     FFT dimensions: (  36,  36,  36)

     Smooth grid:     5577 G-vectors     FFT dimensions: (  25,  25,  25)

     Estimated max dynamical RAM per process >       1.53MB

     Estimated total allocated dynamical RAM >       6.13MB

     The potential is recalculated from file :
     ./_ph0/na.fcc.save/charge-density.dat

     Starting wfc are    5 atomic +    4 random wfc

     Band Structure Calculation
     Davidson diagonalization with overlap

     ethr =  1.11E-10,  avg # of iterations = 16.9

     total cpu time spent up to now is      519.2 secs

     End of band structure calculation

     Number of k-points >= 100: set verbosity='high' to print the bands.

     the Fermi energy is     3.8925 ev

     Writing output data file na.fcc.save

                                                                                

     bravais-lattice index     =            2
     lattice parameter (alat)  =       8.6604  a.u.
     unit-cell volume          =     162.3881 (a.u.)^3
     number of atoms/cell      =            1
     number of atomic types    =            1
     kinetic-energy cut-off    =      40.0000  Ry
     charge density cut-off    =     320.0000  Ry
     convergence threshold     =      1.0E-12
     beta                      =       0.7000
     number of iterations used =            4
     Exchange-correlation      = SLA  PW   PBE  PBE ( 1  4  3  4 0 0)


     celldm(1)=    8.66040  celldm(2)=    0.00000  celldm(3)=    0.00000
     celldm(4)=    0.00000  celldm(5)=    0.00000  celldm(6)=    0.00000

     crystal axes: (cart. coord. in units of alat)
               a(1) = ( -0.5000  0.0000  0.5000 )  
               a(2) = (  0.0000  0.5000  0.5000 )  
               a(3) = ( -0.5000  0.5000  0.0000 )  

     reciprocal axes: (cart. coord. in units 2 pi/alat)
               b(1) = ( -1.0000 -1.0000  1.0000 )  
               b(2) = (  1.0000  1.0000  1.0000 )  
               b(3) = ( -1.0000  1.0000 -1.0000 )  


     Atoms inside the unit cell: 

     Cartesian axes

     site n.  atom      mass           positions (alat units)
        1     Na  22.9900   tau(    1) = (    0.00000    0.00000    0.00000  )

     Computing dynamical matrix for 
                    q = (  -0.1250000   0.3750000  -0.1250000 )

      2 Sym.Ops. (no q -> -q+G )


     G cutoff =  607.9479  (   3898 G-vectors)     FFT grid: ( 36, 36, 36)
     G cutoff =  303.9740  (   1394 G-vectors)  smooth grid: ( 25, 25, 25)

     number of k points= 11368  Marzari-Vanderbilt smearing, width (Ry)=  0.0200

     PseudoPot. # 1 for Na read from file:
     /home/s1333534/quantum_espresso/qe-6.1/pseudo/Na_pbe_v1.uspp.F.UPF
     MD5 check sum: 76a99c7e9422403d3e93cbc85ab7bccb
     Pseudo is Ultrasoft, Zval =  9.0
     Generated by new atomic code, or converted to UPF format
     Using radial grid of  819 points,  5 beta functions with: 
                l(1) =   0
                l(2) =   0
                l(3) =   1
                l(4) =   1
                l(5) =   2
     Q(r) pseudized with  8 coefficients,  rinner =    1.250   1.250   1.250
                                                       1.250   1.250

     Mode symmetry, C_s (m)     point group:


     Atomic displacements:
     There are   3 irreducible representations

     Representation     1      1 modes -A'  To be done

     Representation     2      1 modes -A'  To be done

     Representation     3      1 modes -A''  To be done



     Alpha used in Ewald sum =   2.8000
     PHONON       : 24m33.36s CPU    26m57.82s WALL



     Representation #  1 mode #   1

     Self-consistent Calculation

      iter #   1 total cpu time :  1652.9 secs   av.it.:   5.8
      thresh= 1.000E-02 alpha_mix =  0.700 |ddv_scf|^2 =  7.976E-03

      iter #   2 total cpu time :  1684.4 secs   av.it.:   6.3
      thresh= 8.931E-03 alpha_mix =  0.700 |ddv_scf|^2 =  2.248E-01

      iter #   3 total cpu time :  1715.8 secs   av.it.:   6.1
      thresh= 1.000E-02 alpha_mix =  0.700 |ddv_scf|^2 =  4.957E-06

      iter #   4 total cpu time :  1751.6 secs   av.it.:   7.4
      thresh= 2.227E-04 alpha_mix =  0.700 |ddv_scf|^2 =  4.310E-08

      iter #   5 total cpu time :  1789.0 secs   av.it.:   7.7
      thresh= 2.076E-05 alpha_mix =  0.700 |ddv_scf|^2 =  2.976E-09

      iter #   6 total cpu time :  1825.6 secs   av.it.:   7.6
      thresh= 5.456E-06 alpha_mix =  0.700 |ddv_scf|^2 =  1.876E-10

      iter #   7 total cpu time :  1861.7 secs   av.it.:   7.6
      thresh= 1.370E-06 alpha_mix =  0.700 |ddv_scf|^2 =  2.489E-09

      iter #   8 total cpu time :  1890.1 secs   av.it.:   5.3
      thresh= 4.989E-06 alpha_mix =  0.700 |ddv_scf|^2 =  1.047E-12

      iter #   9 total cpu time :  1926.2 secs   av.it.:   7.5
      thresh= 1.023E-07 alpha_mix =  0.700 |ddv_scf|^2 =  5.993E-14

     End of self-consistent calculation

     Convergence has been achieved 


     Representation #  2 mode #   2

     Self-consistent Calculation

      iter #   1 total cpu time :  1961.8 secs   av.it.:   5.7
      thresh= 1.000E-02 alpha_mix =  0.700 |ddv_scf|^2 =  1.230E-03

      iter #   2 total cpu time :  1995.4 secs   av.it.:   6.8
      thresh= 3.508E-03 alpha_mix =  0.700 |ddv_scf|^2 =  3.407E-02

      iter #   3 total cpu time :  2023.4 secs   av.it.:   5.2
      thresh= 1.000E-02 alpha_mix =  0.700 |ddv_scf|^2 =  5.688E-07

      iter #   4 total cpu time :  2061.0 secs   av.it.:   7.8
      thresh= 7.542E-05 alpha_mix =  0.700 |ddv_scf|^2 =  1.138E-08

      iter #   5 total cpu time :  2098.4 secs   av.it.:   7.8
      thresh= 1.067E-05 alpha_mix =  0.700 |ddv_scf|^2 =  8.030E-10

      iter #   6 total cpu time :  2135.6 secs   av.it.:   7.7
      thresh= 2.834E-06 alpha_mix =  0.700 |ddv_scf|^2 =  1.512E-10

      iter #   7 total cpu time :  2170.8 secs   av.it.:   7.2
      thresh= 1.229E-06 alpha_mix =  0.700 |ddv_scf|^2 =  9.539E-10

      iter #   8 total cpu time :  2201.2 secs   av.it.:   5.9
      thresh= 3.089E-06 alpha_mix =  0.700 |ddv_scf|^2 =  4.236E-11

      iter #   9 total cpu time :  2233.5 secs   av.it.:   6.5
      thresh= 6.509E-07 alpha_mix =  0.700 |ddv_scf|^2 =  1.144E-11

      iter #  10 total cpu time :  2268.0 secs   av.it.:   7.1
      thresh= 3.382E-07 alpha_mix =  0.700 |ddv_scf|^2 =  6.001E-14

     End of self-consistent calculation

     Convergence has been achieved 


     Representation #  3 mode #   3

     Self-consistent Calculation

      iter #   1 total cpu time :  2303.0 secs   av.it.:   5.4
      thresh= 1.000E-02 alpha_mix =  0.700 |ddv_scf|^2 =  2.580E-05

      iter #   2 total cpu time :  2339.7 secs   av.it.:   7.4
      thresh= 5.079E-04 alpha_mix =  0.700 |ddv_scf|^2 =  4.352E-07

      iter #   3 total cpu time :  2376.6 secs   av.it.:   7.7
      thresh= 6.597E-05 alpha_mix =  0.700 |ddv_scf|^2 =  9.828E-09

      iter #   4 total cpu time :  2412.3 secs   av.it.:   7.4
      thresh= 9.914E-06 alpha_mix =  0.700 |ddv_scf|^2 =  3.205E-11

      iter #   5 total cpu time :  2449.0 secs   av.it.:   7.6
      thresh= 5.661E-07 alpha_mix =  0.700 |ddv_scf|^2 =  5.748E-14

     End of self-consistent calculation

     Convergence has been achieved 

     Number of q in the star =   24
     List of q in the star:
          1  -0.125000000   0.375000000  -0.125000000
          2  -0.125000000   0.375000000   0.125000000
          3   0.125000000   0.375000000  -0.125000000
          4   0.125000000   0.375000000   0.125000000
          5   0.125000000  -0.375000000   0.125000000
          6   0.375000000  -0.125000000   0.125000000
          7   0.125000000  -0.125000000   0.375000000
          8  -0.125000000  -0.375000000  -0.125000000
          9   0.125000000  -0.375000000  -0.125000000
         10  -0.125000000  -0.375000000   0.125000000
         11   0.125000000  -0.125000000  -0.375000000
         12   0.375000000  -0.125000000  -0.125000000
         13  -0.375000000  -0.125000000   0.125000000
         14   0.375000000   0.125000000   0.125000000
         15  -0.125000000  -0.125000000   0.375000000
         16   0.125000000   0.125000000   0.375000000
         17  -0.375000000   0.125000000  -0.125000000
         18  -0.125000000   0.125000000  -0.375000000
         19  -0.375000000  -0.125000000  -0.125000000
         20   0.125000000   0.125000000  -0.375000000
         21   0.375000000   0.125000000  -0.125000000
         22  -0.125000000  -0.125000000  -0.375000000
         23  -0.375000000   0.125000000   0.125000000
         24  -0.125000000   0.125000000   0.375000000

     Diagonalizing the dynamical matrix

     q = (   -0.125000000   0.375000000  -0.125000000 ) 

 **************************************************************************
     freq (    1) =       2.106076 [THz] =      70.251142 [cm-1]
     freq (    2) =       2.112957 [THz] =      70.480672 [cm-1]
     freq (    3) =       4.329758 [THz] =     144.425177 [cm-1]
 **************************************************************************

     Mode symmetry, C_s (m)     point group:

     freq (  1 -  1) =         70.3  [cm-1]   --> A''                
     freq (  2 -  2) =         70.5  [cm-1]   --> A'                 
     freq (  3 -  3) =        144.4  [cm-1]   --> A'                 

     Calculation of q =   -0.2500000   0.5000000  -0.2500000

   Info: using nr1, nr2, nr3 values from input

   Info: using nr1, nr2, nr3 values from input

     Parallelization info
     --------------------
     sticks:   dense  smooth     PW     G-vecs:    dense   smooth      PW
     Min         205     105     40                 3896     1394     340
     Max         206     106     41                 3899     1395     342
     Sum         823     421    163                15593     5577    1363



     bravais-lattice index     =            2
     lattice parameter (alat)  =       8.6604  a.u.
     unit-cell volume          =     162.3881 (a.u.)^3
     number of atoms/cell      =            1
     number of atomic types    =            1
     number of electrons       =         9.00
     number of Kohn-Sham states=            9
     kinetic-energy cutoff     =      40.0000  Ry
     charge density cutoff     =     320.0000  Ry
     Exchange-correlation      = SLA  PW   PBE  PBE ( 1  4  3  4 0 0)

     celldm(1)=   8.660402  celldm(2)=   0.000000  celldm(3)=   0.000000
     celldm(4)=   0.000000  celldm(5)=   0.000000  celldm(6)=   0.000000

     crystal axes: (cart. coord. in units of alat)
               a(1) = (  -0.500000   0.000000   0.500000 )  
               a(2) = (   0.000000   0.500000   0.500000 )  
               a(3) = (  -0.500000   0.500000   0.000000 )  

     reciprocal axes: (cart. coord. in units 2 pi/alat)
               b(1) = ( -1.000000 -1.000000  1.000000 )  
               b(2) = (  1.000000  1.000000  1.000000 )  
               b(3) = ( -1.000000  1.000000 -1.000000 )  


     PseudoPot. # 1 for Na read from file:
     /home/s1333534/quantum_espresso/qe-6.1/pseudo/Na_pbe_v1.uspp.F.UPF
     MD5 check sum: 76a99c7e9422403d3e93cbc85ab7bccb
     Pseudo is Ultrasoft, Zval =  9.0
     Generated by new atomic code, or converted to UPF format
     Using radial grid of  819 points,  5 beta functions with: 
                l(1) =   0
                l(2) =   0
                l(3) =   1
                l(4) =   1
                l(5) =   2
     Q(r) pseudized with  8 coefficients,  rinner =    1.250   1.250   1.250
                                                       1.250   1.250

     atomic species   valence    mass     pseudopotential
        Na             9.00    22.99000     Na( 1.00)

     48 Sym. Ops., with inversion, found



   Cartesian axes

     site n.     atom                  positions (alat units)
         1           Na  tau(   1) = (   0.0000000   0.0000000   0.0000000  )

     number of k points= 11368  Marzari-Vanderbilt smearing, width (Ry)=  0.0200

     Number of k-points >= 100: set verbosity='high' to print them.

     Dense  grid:    15593 G-vectors     FFT dimensions: (  36,  36,  36)

     Smooth grid:     5577 G-vectors     FFT dimensions: (  25,  25,  25)

     Estimated max dynamical RAM per process >       1.53MB

     Estimated total allocated dynamical RAM >       6.13MB

     The potential is recalculated from file :
     ./_ph0/na.fcc.save/charge-density.dat

     Starting wfc are    5 atomic +    4 random wfc

     Band Structure Calculation
     Davidson diagonalization with overlap

     ethr =  1.11E-10,  avg # of iterations = 16.9

     total cpu time spent up to now is      728.2 secs

     End of band structure calculation

     Number of k-points >= 100: set verbosity='high' to print the bands.

     the Fermi energy is     3.8925 ev

     Writing output data file na.fcc.save

                                                                                

     bravais-lattice index     =            2
     lattice parameter (alat)  =       8.6604  a.u.
     unit-cell volume          =     162.3881 (a.u.)^3
     number of atoms/cell      =            1
     number of atomic types    =            1
     kinetic-energy cut-off    =      40.0000  Ry
     charge density cut-off    =     320.0000  Ry
     convergence threshold     =      1.0E-12
     beta                      =       0.7000
     number of iterations used =            4
     Exchange-correlation      = SLA  PW   PBE  PBE ( 1  4  3  4 0 0)


     celldm(1)=    8.66040  celldm(2)=    0.00000  celldm(3)=    0.00000
     celldm(4)=    0.00000  celldm(5)=    0.00000  celldm(6)=    0.00000

     crystal axes: (cart. coord. in units of alat)
               a(1) = ( -0.5000  0.0000  0.5000 )  
               a(2) = (  0.0000  0.5000  0.5000 )  
               a(3) = ( -0.5000  0.5000  0.0000 )  

     reciprocal axes: (cart. coord. in units 2 pi/alat)
               b(1) = ( -1.0000 -1.0000  1.0000 )  
               b(2) = (  1.0000  1.0000  1.0000 )  
               b(3) = ( -1.0000  1.0000 -1.0000 )  


     Atoms inside the unit cell: 

     Cartesian axes

     site n.  atom      mass           positions (alat units)
        1     Na  22.9900   tau(    1) = (    0.00000    0.00000    0.00000  )

     Computing dynamical matrix for 
                    q = (  -0.2500000   0.5000000  -0.2500000 )

      2 Sym.Ops. (no q -> -q+G )


     G cutoff =  607.9479  (   3899 G-vectors)     FFT grid: ( 36, 36, 36)
     G cutoff =  303.9740  (   1394 G-vectors)  smooth grid: ( 25, 25, 25)

     number of k points= 11368  Marzari-Vanderbilt smearing, width (Ry)=  0.0200

     PseudoPot. # 1 for Na read from file:
     /home/s1333534/quantum_espresso/qe-6.1/pseudo/Na_pbe_v1.uspp.F.UPF
     MD5 check sum: 76a99c7e9422403d3e93cbc85ab7bccb
     Pseudo is Ultrasoft, Zval =  9.0
     Generated by new atomic code, or converted to UPF format
     Using radial grid of  819 points,  5 beta functions with: 
                l(1) =   0
                l(2) =   0
                l(3) =   1
                l(4) =   1
                l(5) =   2
     Q(r) pseudized with  8 coefficients,  rinner =    1.250   1.250   1.250
                                                       1.250   1.250

     Mode symmetry, C_s (m)     point group:


     Atomic displacements:
     There are   3 irreducible representations

     Representation     1      1 modes -A'  To be done

     Representation     2      1 modes -A'  To be done

     Representation     3      1 modes -A''  To be done



     Alpha used in Ewald sum =   2.8000
     PHONON       : 40m27.16s CPU    44m35.40s WALL



     Representation #  1 mode #   1

     Self-consistent Calculation

      iter #   1 total cpu time :  2711.0 secs   av.it.:   5.8
      thresh= 1.000E-02 alpha_mix =  0.700 |ddv_scf|^2 =  7.769E-04

      iter #   2 total cpu time :  2745.5 secs   av.it.:   6.8
      thresh= 2.787E-03 alpha_mix =  0.700 |ddv_scf|^2 =  3.206E-03

      iter #   3 total cpu time :  2776.2 secs   av.it.:   5.9
      thresh= 5.662E-03 alpha_mix =  0.700 |ddv_scf|^2 =  7.454E-07

      iter #   4 total cpu time :  2813.9 secs   av.it.:   7.8
      thresh= 8.634E-05 alpha_mix =  0.700 |ddv_scf|^2 =  9.474E-09

      iter #   5 total cpu time :  2853.3 secs   av.it.:   8.2
      thresh= 9.733E-06 alpha_mix =  0.700 |ddv_scf|^2 =  1.278E-09

      iter #   6 total cpu time :  2891.4 secs   av.it.:   7.8
      thresh= 3.575E-06 alpha_mix =  0.700 |ddv_scf|^2 =  5.011E-11

      iter #   7 total cpu time :  2928.8 secs   av.it.:   7.8
      thresh= 7.079E-07 alpha_mix =  0.700 |ddv_scf|^2 =  1.328E-11

      iter #   8 total cpu time :  2963.6 secs   av.it.:   7.0
      thresh= 3.644E-07 alpha_mix =  0.700 |ddv_scf|^2 =  1.532E-11

      iter #   9 total cpu time :  2996.3 secs   av.it.:   6.4
      thresh= 3.914E-07 alpha_mix =  0.700 |ddv_scf|^2 =  5.553E-13

     End of self-consistent calculation

     Convergence has been achieved 


     Representation #  2 mode #   2

     Self-consistent Calculation

      iter #   1 total cpu time :  3033.0 secs   av.it.:   5.8
      thresh= 1.000E-02 alpha_mix =  0.700 |ddv_scf|^2 =  2.250E-04

      iter #   2 total cpu time :  3069.8 secs   av.it.:   7.3
      thresh= 1.500E-03 alpha_mix =  0.700 |ddv_scf|^2 =  8.250E-04

      iter #   3 total cpu time :  3100.9 secs   av.it.:   5.9
      thresh= 2.872E-03 alpha_mix =  0.700 |ddv_scf|^2 =  5.348E-07

      iter #   4 total cpu time :  3138.8 secs   av.it.:   7.8
      thresh= 7.313E-05 alpha_mix =  0.700 |ddv_scf|^2 =  1.379E-08

      iter #   5 total cpu time :  3177.4 secs   av.it.:   8.1
      thresh= 1.174E-05 alpha_mix =  0.700 |ddv_scf|^2 =  6.831E-10

      iter #   6 total cpu time :  3215.8 secs   av.it.:   8.0
      thresh= 2.614E-06 alpha_mix =  0.700 |ddv_scf|^2 =  6.151E-11

      iter #   7 total cpu time :  3253.2 secs   av.it.:   7.7
      thresh= 7.843E-07 alpha_mix =  0.700 |ddv_scf|^2 =  7.823E-13

     End of self-consistent calculation

     Convergence has been achieved 


     Representation #  3 mode #   3

     Self-consistent Calculation

      iter #   1 total cpu time :  3287.4 secs   av.it.:   5.5
      thresh= 1.000E-02 alpha_mix =  0.700 |ddv_scf|^2 =  2.649E-05

      iter #   2 total cpu time :  3323.9 secs   av.it.:   7.5
      thresh= 5.147E-04 alpha_mix =  0.700 |ddv_scf|^2 =  4.289E-07

      iter #   3 total cpu time :  3361.3 secs   av.it.:   7.7
      thresh= 6.549E-05 alpha_mix =  0.700 |ddv_scf|^2 =  1.138E-08

      iter #   4 total cpu time :  3397.4 secs   av.it.:   7.4
      thresh= 1.067E-05 alpha_mix =  0.700 |ddv_scf|^2 =  3.852E-11

      iter #   5 total cpu time :  3434.4 secs   av.it.:   7.6
      thresh= 6.207E-07 alpha_mix =  0.700 |ddv_scf|^2 =  5.729E-14

     End of self-consistent calculation

     Convergence has been achieved 

     Number of q in the star =   24
     List of q in the star:
          1  -0.250000000   0.500000000  -0.250000000
          2  -0.250000000   0.500000000   0.250000000
          3   0.250000000   0.500000000  -0.250000000
          4   0.250000000   0.500000000   0.250000000
          5   0.250000000  -0.500000000   0.250000000
          6   0.500000000  -0.250000000   0.250000000
          7   0.250000000  -0.250000000   0.500000000
          8  -0.250000000  -0.500000000  -0.250000000
          9   0.250000000  -0.500000000  -0.250000000
         10  -0.250000000  -0.500000000   0.250000000
         11   0.250000000  -0.250000000  -0.500000000
         12   0.500000000  -0.250000000  -0.250000000
         13  -0.500000000  -0.250000000   0.250000000
         14   0.500000000   0.250000000   0.250000000
         15  -0.250000000  -0.250000000   0.500000000
         16   0.250000000   0.250000000   0.500000000
         17  -0.500000000   0.250000000  -0.250000000
         18  -0.250000000   0.250000000  -0.500000000
         19  -0.500000000  -0.250000000  -0.250000000
         20   0.250000000   0.250000000  -0.500000000
         21   0.500000000   0.250000000  -0.250000000
         22  -0.250000000  -0.250000000  -0.500000000
         23  -0.500000000   0.250000000   0.250000000
         24  -0.250000000   0.250000000   0.500000000

     Diagonalizing the dynamical matrix

     q = (   -0.250000000   0.500000000  -0.250000000 ) 

 **************************************************************************
     freq (    1) =       2.458961 [THz] =      82.022102 [cm-1]
     freq (    2) =       2.691801 [THz] =      89.788819 [cm-1]
     freq (    3) =       6.028312 [THz] =     201.082828 [cm-1]
 **************************************************************************

     Mode symmetry, C_s (m)     point group:

     freq (  1 -  1) =         82.0  [cm-1]   --> A''                
     freq (  2 -  2) =         89.8  [cm-1]   --> A'                 
     freq (  3 -  3) =        201.1  [cm-1]   --> A'                 

     Calculation of q =    0.6250000  -0.3750000   0.6250000

   Info: using nr1, nr2, nr3 values from input

   Info: using nr1, nr2, nr3 values from input

     Parallelization info
     --------------------
     sticks:   dense  smooth     PW     G-vecs:    dense   smooth      PW
     Min         205     105     40                 3896     1393     362
     Max         206     106     41                 3899     1395     366
     Sum         823     421    163                15593     5577    1459



     bravais-lattice index     =            2
     lattice parameter (alat)  =       8.6604  a.u.
     unit-cell volume          =     162.3881 (a.u.)^3
     number of atoms/cell      =            1
     number of atomic types    =            1
     number of electrons       =         9.00
     number of Kohn-Sham states=            9
     kinetic-energy cutoff     =      40.0000  Ry
     charge density cutoff     =     320.0000  Ry
     Exchange-correlation      = SLA  PW   PBE  PBE ( 1  4  3  4 0 0)

     celldm(1)=   8.660402  celldm(2)=   0.000000  celldm(3)=   0.000000
     celldm(4)=   0.000000  celldm(5)=   0.000000  celldm(6)=   0.000000

     crystal axes: (cart. coord. in units of alat)
               a(1) = (  -0.500000   0.000000   0.500000 )  
[...]

     PseudoPot. # 1 for Na read from file:
     /home/s1333534/quantum_espresso/qe-6.1/pseudo/Na_pbe_v1.uspp.F.UPF
     MD5 check sum: 76a99c7e9422403d3e93cbc85ab7bccb
     Pseudo is Ultrasoft, Zval =  9.0
     Generated by new atomic code, or converted to UPF format
     Using radial grid of  819 points,  5 beta functions with: 
                l(1) =   0
                l(2) =   0
                l(3) =   1
                l(4) =   1
                l(5) =   2
     Q(r) pseudized with  8 coefficients,  rinner =    1.250   1.250   1.250
                                                       1.250   1.250

     Mode symmetry, C_2v (mm2)  point group:


     Atomic displacements:
     There are   3 irreducible representations

     Representation     1      1 modes -A_1  D_1  S_1  To be done

     Representation     2      1 modes -B_1  D_3  S_3  To be done

     Representation     3      1 modes -B_2  D_4  S_4  To be done



     Alpha used in Ewald sum =   2.8000
     PHONON       :     5h 2m CPU        5h33m WALL



     Representation #  1 mode #   1

     Self-consistent Calculation

      iter #   1 total cpu time : 20028.3 secs   av.it.:   5.6
      thresh= 1.000E-02 alpha_mix =  0.700 |ddv_scf|^2 =  3.891E-05

      iter #   2 total cpu time : 20046.0 secs   av.it.:   7.6
      thresh= 6.238E-04 alpha_mix =  0.700 |ddv_scf|^2 =  1.105E-06

      iter #   3 total cpu time : 20064.5 secs   av.it.:   7.6
      thresh= 1.051E-04 alpha_mix =  0.700 |ddv_scf|^2 =  4.529E-08

      iter #   4 total cpu time : 20082.5 secs   av.it.:   7.7
      thresh= 2.128E-05 alpha_mix =  0.700 |ddv_scf|^2 =  2.404E-09

      iter #   5 total cpu time : 20100.8 secs   av.it.:   7.8
      thresh= 4.903E-06 alpha_mix =  0.700 |ddv_scf|^2 =  1.178E-10

      iter #   6 total cpu time : 20119.3 secs   av.it.:   7.9
      thresh= 1.085E-06 alpha_mix =  0.700 |ddv_scf|^2 =  8.146E-12

      iter #   7 total cpu time : 20137.3 secs   av.it.:   7.7
      thresh= 2.854E-07 alpha_mix =  0.700 |ddv_scf|^2 =  2.651E-13

     End of self-consistent calculation

     Convergence has been achieved 


     Representation #  2 mode #   2

     Self-consistent Calculation

      iter #   1 total cpu time : 20154.4 secs   av.it.:   5.6
      thresh= 1.000E-02 alpha_mix =  0.700 |ddv_scf|^2 =  4.007E-05

      iter #   2 total cpu time : 20172.1 secs   av.it.:   7.5
      thresh= 6.330E-04 alpha_mix =  0.700 |ddv_scf|^2 =  4.777E-07

      iter #   3 total cpu time : 20190.5 secs   av.it.:   7.7
      thresh= 6.912E-05 alpha_mix =  0.700 |ddv_scf|^2 =  3.129E-08

      iter #   4 total cpu time : 20208.5 secs   av.it.:   7.7
      thresh= 1.769E-05 alpha_mix =  0.700 |ddv_scf|^2 =  3.557E-10

      iter #   5 total cpu time : 20225.5 secs   av.it.:   7.2
      thresh= 1.886E-06 alpha_mix =  0.700 |ddv_scf|^2 =  3.517E-13

     End of self-consistent calculation

     Convergence has been achieved 


     Representation #  3 mode #   3

     Self-consistent Calculation

      iter #   1 total cpu time : 20242.4 secs   av.it.:   5.7
      thresh= 1.000E-02 alpha_mix =  0.700 |ddv_scf|^2 =  1.051E-04

      iter #   2 total cpu time : 20259.7 secs   av.it.:   7.2
      thresh= 1.025E-03 alpha_mix =  0.700 |ddv_scf|^2 =  1.172E-05

      iter #   3 total cpu time : 20276.8 secs   av.it.:   7.2
      thresh= 3.424E-04 alpha_mix =  0.700 |ddv_scf|^2 =  8.675E-08

      iter #   4 total cpu time : 20295.3 secs   av.it.:   7.8
      thresh= 2.945E-05 alpha_mix =  0.700 |ddv_scf|^2 =  3.119E-10

      iter #   5 total cpu time : 20312.6 secs   av.it.:   6.9
      thresh= 1.766E-06 alpha_mix =  0.700 |ddv_scf|^2 =  5.615E-13

     End of self-consistent calculation

     Convergence has been achieved 

     Number of q in the star =   12
     List of q in the star:
          1  -0.250000000  -1.000000000   0.000000000
          2   0.000000000  -1.000000000   0.250000000
          3   0.000000000  -1.000000000  -0.250000000
          4   0.250000000  -1.000000000   0.000000000
          5  -1.000000000   0.000000000  -0.250000000
          6   1.000000000   0.000000000   0.250000000
          7  -1.000000000  -0.250000000   0.000000000
          8   0.000000000  -0.250000000  -1.000000000
          9   0.000000000   0.250000000  -1.000000000
         10   1.000000000   0.250000000   0.000000000
         11  -0.250000000   0.000000000   1.000000000
         12   0.250000000   0.000000000   1.000000000

     Diagonalizing the dynamical matrix

     q = (   -0.250000000  -1.000000000   0.000000000 ) 

 **************************************************************************
     freq (    1) =       4.183983 [THz] =     139.562652 [cm-1]
     freq (    2) =       4.788184 [THz] =     159.716625 [cm-1]
     freq (    3) =       6.750287 [THz] =     225.165354 [cm-1]
 **************************************************************************

     Mode symmetry, C_2v (mm2)  point group:

     freq (  1 -  1) =        139.6  [cm-1]   --> A_1  D_1  S_1      
     freq (  2 -  2) =        159.7  [cm-1]   --> B_1  D_3  S_3      
     freq (  3 -  3) =        225.2  [cm-1]   --> B_2  D_4  S_4      

     Calculation of q =   -0.5000000  -1.0000000   0.0000000

   Info: using nr1, nr2, nr3 values from input

   Info: using nr1, nr2, nr3 values from input

     Parallelization info
     --------------------
     sticks:   dense  smooth     PW     G-vecs:    dense   smooth      PW
     Min         205     105     40                 3896     1393     362
     Max         206     106     41                 3899     1395     366
     Sum         823     421    163                15593     5577    1459



     bravais-lattice index     =            2
     lattice parameter (alat)  =       8.6604  a.u.
     unit-cell volume          =     162.3881 (a.u.)^3
     number of atoms/cell      =            1
     number of atomic types    =            1
     number of electrons       =         9.00
     number of Kohn-Sham states=            9
     kinetic-energy cutoff     =      40.0000  Ry
     charge density cutoff     =     320.0000  Ry
     Exchange-correlation      = SLA  PW   PBE  PBE ( 1  4  3  4 0 0)

     celldm(1)=   8.660402  celldm(2)=   0.000000  celldm(3)=   0.000000
     celldm(4)=   0.000000  celldm(5)=   0.000000  celldm(6)=   0.000000

     crystal axes: (cart. coord. in units of alat)
               a(1) = (  -0.500000   0.000000   0.500000 )  
               a(2) = (   0.000000   0.500000   0.500000 )  
               a(3) = (  -0.500000   0.500000   0.000000 )  

     reciprocal axes: (cart. coord. in units 2 pi/alat)
               b(1) = ( -1.000000 -1.000000  1.000000 )  
               b(2) = (  1.000000  1.000000  1.000000 )  
               b(3) = ( -1.000000  1.000000 -1.000000 )  


     PseudoPot. # 1 for Na read from file:
     /home/s1333534/quantum_espresso/qe-6.1/pseudo/Na_pbe_v1.uspp.F.UPF
     MD5 check sum: 76a99c7e9422403d3e93cbc85ab7bccb
     Pseudo is Ultrasoft, Zval =  9.0
     Generated by new atomic code, or converted to UPF format
     Using radial grid of  819 points,  5 beta functions with: 
                l(1) =   0
                l(2) =   0
                l(3) =   1
                l(4) =   1
                l(5) =   2
     Q(r) pseudized with  8 coefficients,  rinner =    1.250   1.250   1.250
                                                       1.250   1.250

     atomic species   valence    mass     pseudopotential
        Na             9.00    22.99000     Na( 1.00)

     48 Sym. Ops., with inversion, found



   Cartesian axes

     site n.     atom                  positions (alat units)
         1           Na  tau(   1) = (   0.0000000   0.0000000   0.0000000  )

     number of k points=  2744  Marzari-Vanderbilt smearing, width (Ry)=  0.0200

     Number of k-points >= 100: set verbosity='high' to print them.

     Dense  grid:    15593 G-vectors     FFT dimensions: (  36,  36,  36)

     Smooth grid:     5577 G-vectors     FFT dimensions: (  25,  25,  25)

     Estimated max dynamical RAM per process >       1.53MB

     Estimated total allocated dynamical RAM >       6.13MB

     The potential is recalculated from file :
     ./_ph0/na.fcc.save/charge-density.dat

     Starting wfc are    5 atomic +    4 random wfc

     Band Structure Calculation
     Davidson diagonalization with overlap

     ethr =  1.11E-10,  avg # of iterations = 16.9

     total cpu time spent up to now is     4433.1 secs

     End of band structure calculation

     Number of k-points >= 100: set verbosity='high' to print the bands.

     the Fermi energy is     3.8925 ev

     Writing output data file na.fcc.save

                                                                                

     bravais-lattice index     =            2
     lattice parameter (alat)  =       8.6604  a.u.
     unit-cell volume          =     162.3881 (a.u.)^3
     number of atoms/cell      =            1
     number of atomic types    =            1
     kinetic-energy cut-off    =      40.0000  Ry
     charge density cut-off    =     320.0000  Ry
     convergence threshold     =      1.0E-12
     beta                      =       0.7000
     number of iterations used =            4
     Exchange-correlation      = SLA  PW   PBE  PBE ( 1  4  3  4 0 0)


     celldm(1)=    8.66040  celldm(2)=    0.00000  celldm(3)=    0.00000
     celldm(4)=    0.00000  celldm(5)=    0.00000  celldm(6)=    0.00000

     crystal axes: (cart. coord. in units of alat)
               a(1) = ( -0.5000  0.0000  0.5000 )  
               a(2) = (  0.0000  0.5000  0.5000 )  
               a(3) = ( -0.5000  0.5000  0.0000 )  

     reciprocal axes: (cart. coord. in units 2 pi/alat)
               b(1) = ( -1.0000 -1.0000  1.0000 )  
               b(2) = (  1.0000  1.0000  1.0000 )  
               b(3) = ( -1.0000  1.0000 -1.0000 )  


     Atoms inside the unit cell: 

     Cartesian axes

     site n.  atom      mass           positions (alat units)
        1     Na  22.9900   tau(    1) = (    0.00000    0.00000    0.00000  )

     Computing dynamical matrix for 
                    q = (  -0.5000000  -1.0000000   0.0000000 )

      8 Sym.Ops. (no q -> -q+G )


     G cutoff =  607.9479  (   3899 G-vectors)     FFT grid: ( 36, 36, 36)
     G cutoff =  303.9740  (   1395 G-vectors)  smooth grid: ( 25, 25, 25)

     number of k points=  2744  Marzari-Vanderbilt smearing, width (Ry)=  0.0200

     PseudoPot. # 1 for Na read from file:
     /home/s1333534/quantum_espresso/qe-6.1/pseudo/Na_pbe_v1.uspp.F.UPF
     MD5 check sum: 76a99c7e9422403d3e93cbc85ab7bccb
     Pseudo is Ultrasoft, Zval =  9.0
     Generated by new atomic code, or converted to UPF format
     Using radial grid of  819 points,  5 beta functions with: 
                l(1) =   0
                l(2) =   0
                l(3) =   1
                l(4) =   1
                l(5) =   2
     Q(r) pseudized with  8 coefficients,  rinner =    1.250   1.250   1.250
                                                       1.250   1.250

     Mode symmetry, D_2d (-42m) point group:


     Atomic displacements:
     There are   2 irreducible representations

     Representation     1      1 modes -B_2  X_3  W_2  To be done

     Representation     2      2 modes -E    X_5  W_3  To be done



     Alpha used in Ewald sum =   2.8000
     PHONON       :     5h 7m CPU        5h39m WALL



     Representation #  1 mode #   1

     Self-consistent Calculation

      iter #   1 total cpu time : 20376.7 secs   av.it.:   5.6
      thresh= 1.000E-02 alpha_mix =  0.700 |ddv_scf|^2 =  4.480E-05

      iter #   2 total cpu time : 20385.6 secs   av.it.:   7.5
      thresh= 6.694E-04 alpha_mix =  0.700 |ddv_scf|^2 =  1.470E-06

      iter #   3 total cpu time : 20394.5 secs   av.it.:   7.6
      thresh= 1.212E-04 alpha_mix =  0.700 |ddv_scf|^2 =  3.349E-08

      iter #   4 total cpu time : 20403.8 secs   av.it.:   7.9
      thresh= 1.830E-05 alpha_mix =  0.700 |ddv_scf|^2 =  5.916E-10

      iter #   5 total cpu time : 20412.4 secs   av.it.:   7.3
      thresh= 2.432E-06 alpha_mix =  0.700 |ddv_scf|^2 =  8.096E-13

     End of self-consistent calculation

     Convergence has been achieved 


     Representation #  2 modes #   2  3

     Self-consistent Calculation

      iter #   1 total cpu time : 20429.0 secs   av.it.:   5.7
      thresh= 1.000E-02 alpha_mix =  0.700 |ddv_scf|^2 =  1.628E-05

      iter #   2 total cpu time : 20448.2 secs   av.it.:   8.1
      thresh= 4.035E-04 alpha_mix =  0.700 |ddv_scf|^2 =  6.601E-07

      iter #   3 total cpu time : 20466.2 secs   av.it.:   7.7
      thresh= 8.125E-05 alpha_mix =  0.700 |ddv_scf|^2 =  1.420E-08

      iter #   4 total cpu time : 20485.6 secs   av.it.:   8.4
      thresh= 1.192E-05 alpha_mix =  0.700 |ddv_scf|^2 =  8.215E-11

      iter #   5 total cpu time : 20503.2 secs   av.it.:   7.5
      thresh= 9.064E-07 alpha_mix =  0.700 |ddv_scf|^2 =  5.307E-14

     End of self-consistent calculation

     Convergence has been achieved 

     Number of q in the star =    6
     List of q in the star:
          1  -0.500000000  -1.000000000   0.000000000
          2   0.000000000   1.000000000   0.500000000
          3   0.500000000  -1.000000000   0.000000000
          4   0.000000000   1.000000000  -0.500000000
          5  -1.000000000  -0.500000000   0.000000000
          6   0.000000000  -0.500000000  -1.000000000

     Diagonalizing the dynamical matrix

     q = (   -0.500000000  -1.000000000   0.000000000 ) 

 **************************************************************************
     freq (    1) =       4.500441 [THz] =     150.118555 [cm-1]
     freq (    2) =       5.762119 [THz] =     192.203609 [cm-1]
     freq (    3) =       5.762119 [THz] =     192.203609 [cm-1]
 **************************************************************************

     Mode symmetry, D_2d (-42m) point group:

     freq (  1 -  1) =        150.1  [cm-1]   --> B_2  X_3  W_2      
     freq (  2 -  3) =        192.2  [cm-1]   --> E    X_5  W_3      

     init_run     :      7.29s CPU      7.35s WALL (      28 calls)
     electrons    :   3955.93s CPU   4260.03s WALL (      28 calls)

     Called by init_run:
     wfcinit      :      0.00s CPU      0.00s WALL (      28 calls)
     potinit      :      0.30s CPU      0.31s WALL (      28 calls)

     Called by electrons:
     c_bands      :   3954.80s CPU   4258.89s WALL (      28 calls)
     v_of_rho     :      0.24s CPU      0.24s WALL (      29 calls)
     newd         :      0.28s CPU      0.28s WALL (      29 calls)

     Called by c_bands:
     init_us_2    :    273.71s CPU    255.12s WALL ( 3435194 calls)
     cegterg      :   3626.24s CPU   3894.50s WALL (  266531 calls)

     Called by sum_band:

     Called by *egterg:
     h_psi        :  12154.13s CPU  13372.19s WALL (28197036 calls)
     s_psi        :    403.49s CPU    434.39s WALL (54267437 calls)
     g_psi        :     16.90s CPU     30.08s WALL ( 4058958 calls)
     cdiaghg      :    922.70s CPU    877.77s WALL ( 4298862 calls)

     Called by h_psi:
     h_psi:pot    :  12078.85s CPU  13281.68s WALL (28197036 calls)
     h_psi:calbec :    291.82s CPU    362.56s WALL (28197036 calls)
     vloc_psi     :  11504.40s CPU  12574.05s WALL (28197036 calls)
     add_vuspsi   :    222.89s CPU    263.55s WALL (28197036 calls)

     General routines
     calbec       :    625.95s CPU    699.56s WALL (60192083 calls)
     fft          :      2.04s CPU      2.19s WALL (    9082 calls)
     ffts         :     22.09s CPU     23.79s WALL (  363585 calls)
     fftw         :  12483.70s CPU  13458.87s WALL (******** calls)
     interpolate  :      0.36s CPU      0.43s WALL (    1259 calls)
     davcio       :     98.93s CPU    291.85s WALL (13017578 calls)

     Parallel routines
     fft_scatter  :   3200.52s CPU   3721.59s WALL (******** calls)

     PHONON       :     5h 9m CPU        5h41m WALL

     INITIALIZATION: 
     phq_setup    :      0.81s CPU      0.82s WALL (      29 calls)
     phq_init     :    324.47s CPU    344.38s WALL (      29 calls)

     phq_init     :    324.47s CPU    344.38s WALL (      29 calls)
     init_vloc    :      0.08s CPU      0.08s WALL (      29 calls)
     init_us_1    :      3.14s CPU      3.15s WALL (      29 calls)
     newd         :      0.28s CPU      0.28s WALL (      29 calls)
     dvanqq       :      1.07s CPU      1.09s WALL (      29 calls)
     drho         :    262.77s CPU    279.54s WALL (      29 calls)

     DYNAMICAL MATRIX:
     dynmat0      :     40.20s CPU     41.53s WALL (      29 calls)
     phqscf       :  14107.25s CPU  15717.75s WALL (      29 calls)
     dynmatrix    :      0.03s CPU      0.04s WALL (      29 calls)

     phqscf       :  14107.25s CPU  15717.75s WALL (      29 calls)
     solve_linter :  14041.53s CPU  15648.67s WALL (      76 calls)
     drhodv       :     65.63s CPU     68.94s WALL (      76 calls)

     dynmat0      :     40.20s CPU     41.53s WALL (      29 calls)
     dynmat_us    :     40.16s CPU     41.49s WALL (      29 calls)
     d2ionq       :      0.02s CPU      0.02s WALL (      29 calls)

     dynmat_us    :     40.16s CPU     41.49s WALL (      29 calls)
     addusdynmat  :      0.00s CPU      0.00s WALL (      29 calls)

     phqscf       :  14107.25s CPU  15717.75s WALL (      29 calls)
     solve_linter :  14041.53s CPU  15648.67s WALL (      76 calls)

     solve_linter :  14041.53s CPU  15648.67s WALL (      76 calls)
     dvqpsi_us    :    423.40s CPU    458.93s WALL (  360696 calls)
     ortho        :    126.33s CPU    147.25s WALL ( 2438758 calls)
     cgsolve      :  10894.92s CPU  11994.21s WALL ( 2438758 calls)
     incdrhoscf   :   1240.96s CPU   1380.45s WALL ( 2438758 calls)
     addusddens   :      8.54s CPU      8.61s WALL (     578 calls)
     vpsifft      :    950.31s CPU   1069.98s WALL ( 2078062 calls)
     dv_of_drho   :      2.40s CPU      2.48s WALL (     557 calls)
     mix_pot      :      0.35s CPU      0.70s WALL (     502 calls)
     ef_shift     :      0.01s CPU      0.02s WALL (       6 calls)
     localdos     :      0.12s CPU      0.15s WALL (       1 calls)
     psymdvscf    :      5.05s CPU      5.15s WALL (     459 calls)
     newdq        :      7.71s CPU      7.77s WALL (     502 calls)
     adddvscf     :     49.60s CPU     54.48s WALL ( 2078062 calls)
     drhodvus     :      0.02s CPU      0.02s WALL (      76 calls)

     dvqpsi_us    :    423.40s CPU    458.93s WALL (  360696 calls)
     dvqpsi_us_on :     82.02s CPU     78.05s WALL (  360696 calls)

     cgsolve      :  10894.92s CPU  11994.21s WALL ( 2438758 calls)
     ch_psi       :  10640.73s CPU  11735.34s WALL (23631643 calls)

     ch_psi       :  10640.73s CPU  11735.34s WALL (23631643 calls)
     h_psi        :  12154.13s CPU  13372.19s WALL (28197036 calls)
     last         :    726.43s CPU    820.55s WALL (23631643 calls)

     h_psi        :  12154.13s CPU  13372.19s WALL (28197036 calls)
     add_vuspsi   :    222.89s CPU    263.55s WALL (28197036 calls)

     incdrhoscf   :   1240.96s CPU   1380.45s WALL ( 2438758 calls)
     addusdbec    :     59.61s CPU     62.43s WALL ( 2799454 calls)

     drhodvus     :      0.02s CPU      0.02s WALL (      76 calls)

      General routines
     calbec       :    625.95s CPU    699.56s WALL (60192083 calls)
     fft          :      2.04s CPU      2.19s WALL (    9082 calls)
     ffts         :     22.09s CPU     23.79s WALL (  363585 calls)
     fftw         :  12483.70s CPU  13458.87s WALL (******** calls)
     davcio       :     98.93s CPU    291.85s WALL (13017578 calls)
     write_rec    :      0.41s CPU      1.52s WALL (     578 calls)


     PHONON       :     5h 9m CPU        5h41m WALL


   This run was terminated on:  17:59:13  21Dec2017            

=------------------------------------------------------------------------------=
   JOB DONE.
=------------------------------------------------------------------------------=
