
     Program PHONON v.6.1 (svn rev. 13369) starts on 21Dec2017 at 11:54:32 

     This program is part of the open-source Quantum ESPRESSO suite
     for quantum simulation of materials; please cite
         "P. Giannozzi et al., J. Phys.:Condens. Matter 21 395502 (2009);
          URL http://www.quantum-espresso.org", 
     in publications or presentations arising from this work. More details at
     http://www.quantum-espresso.org/quote

     Parallel version (MPI), running on     4 processors
     R & G space division:  proc/nbgrp/npool/nimage =       4

     Reading data from directory:
     ./na.bcc.save

   Info: using nr1, nr2, nr3 values from input

   Info: using nr1, nr2, nr3 values from input

     IMPORTANT: XC functional enforced from input :
     Exchange-correlation      = SLA  PW   PBE  PBE ( 1  4  3  4 0 0)
     Any further DFT definition will be discarded
     Please, verify this is what you really want


     Parallelization info
     --------------------
     sticks:   dense  smooth     PW     G-vecs:    dense   smooth      PW
     Min         305     154     45                 6736     2399     400
     Max         306     155     46                 6737     2400     401
     Sum        1223     619    181                26947     9597    1601



     Dynamical matrices for ( 8, 8, 8)  uniform grid of q-points
     (  29q-points):
       N         xq(1)         xq(2)         xq(3) 
       1   0.000000000   0.000000000   0.000000000
       2   0.000000000  -0.125000000   0.125000000
       3   0.000000000  -0.250000000   0.250000000
       4   0.000000000  -0.375000000   0.375000000
       5   0.000000000   0.500000000  -0.500000000
       6  -0.125000000  -0.125000000   0.250000000
       7  -0.125000000  -0.250000000   0.375000000
       8  -0.125000000   0.625000000  -0.500000000
       9  -0.250000000   0.750000000  -0.500000000
      10  -0.250000000   0.625000000  -0.375000000
      11   0.000000000   0.000000000   0.250000000
      12   0.000000000  -0.125000000   0.375000000
      13   0.000000000  -0.250000000   0.500000000
      14   0.000000000   0.625000000  -0.375000000
      15  -0.125000000  -0.125000000   0.500000000
      16  -0.125000000   0.750000000  -0.375000000
      17  -0.250000000   0.250000000   0.250000000
      18  -0.250000000   0.750000000  -0.250000000
      19   0.625000000  -0.625000000   0.250000000
      20   0.500000000  -0.500000000   0.250000000
      21   0.500000000  -0.625000000   0.375000000
      22   0.000000000   0.000000000   0.500000000
      23   0.000000000  -0.125000000   0.625000000
      24   0.000000000   0.750000000  -0.250000000
      25  -0.125000000   0.875000000  -0.250000000
      26   0.500000000  -0.500000000   0.500000000
      27   0.000000000   0.000000000   0.750000000
      28   0.000000000   0.875000000  -0.125000000
      29   0.000000000   0.000000000  -1.000000000

     Calculation of q =    0.0000000   0.0000000   0.0000000

                                                                                

     bravais-lattice index     =            3
     lattice parameter (alat)  =       8.2356  a.u.
     unit-cell volume          =     279.2936 (a.u.)^3
     number of atoms/cell      =            1
     number of atomic types    =            1
     kinetic-energy cut-off    =      40.0000  Ry
     charge density cut-off    =     320.0000  Ry
     convergence threshold     =      1.0E-12
     beta                      =       0.7000
     number of iterations used =            4
     Exchange-correlation      = SLA  PW   PBE  PBE ( 1  4  3  4 0 0)


     celldm(1)=    8.23563  celldm(2)=    0.00000  celldm(3)=    0.00000
     celldm(4)=    0.00000  celldm(5)=    0.00000  celldm(6)=    0.00000

     crystal axes: (cart. coord. in units of alat)
               a(1) = (  0.5000  0.5000  0.5000 )  
               a(2) = ( -0.5000  0.5000  0.5000 )  
               a(3) = ( -0.5000 -0.5000  0.5000 )  

     reciprocal axes: (cart. coord. in units 2 pi/alat)
               b(1) = (  1.0000  0.0000  1.0000 )  
               b(2) = ( -1.0000  1.0000  0.0000 )  
               b(3) = (  0.0000 -1.0000  1.0000 )  


     Atoms inside the unit cell: 

     Cartesian axes

     site n.  atom      mass           positions (alat units)
        1     Na  22.9900   tau(    1) = (    0.00000    0.00000    0.00000  )

     Computing dynamical matrix for 
                    q = (   0.0000000   0.0000000   0.0000000 )

     49 Sym.Ops. (with q -> -q+G )


     G cutoff =  549.7740  (   6737 G-vectors)     FFT grid: ( 45, 45, 45)
     G cutoff =  274.8870  (   2400 G-vectors)  smooth grid: ( 30, 30, 30)

     number of k points=   100  Marzari-Vanderbilt smearing, width (Ry)=  0.0200

     PseudoPot. # 1 for Na read from file:
     /home/s1333534/quantum_espresso/qe-6.1/pseudo/Na_pbe_v1.uspp.F.UPF
     MD5 check sum: 76a99c7e9422403d3e93cbc85ab7bccb
     Pseudo is Ultrasoft, Zval =  9.0
     Generated by new atomic code, or converted to UPF format
     Using radial grid of  819 points,  5 beta functions with: 
                l(1) =   0
                l(2) =   0
                l(3) =   1
                l(4) =   1
                l(5) =   2
     Q(r) pseudized with  8 coefficients,  rinner =    1.250   1.250   1.250
                                                       1.250   1.250

     Mode symmetry, O_h (m-3m)  point group:


     Atomic displacements:
     There are   1 irreducible representations

     Representation     1      3 modes -T_1u G_15  G_4-  To be done



     Alpha used in Ewald sum =   2.8000
     PHONON       :     1.26s CPU         1.31s WALL



     Representation #  1 modes #   1  2  3

     Self-consistent Calculation

     Pert. #  1: Fermi energy shift (Ry) =    -1.3786E-25     2.2726E-37
     Pert. #  2: Fermi energy shift (Ry) =     2.0680E-25    -8.2285E-38
     Pert. #  3: Fermi energy shift (Ry) =     6.8932E-25     1.4106E-37

      iter #   1 total cpu time :     5.4 secs   av.it.:   5.4
      thresh= 1.000E-02 alpha_mix =  0.700 |ddv_scf|^2 =  8.082E-07

     Pert. #  1: Fermi energy shift (Ry) =    -2.2403E-25     6.1224E-41
     Pert. #  2: Fermi energy shift (Ry) =     6.2039E-25     2.4796E-39
     Pert. #  3: Fermi energy shift (Ry) =    -1.8956E-25    -3.6734E-40

      iter #   2 total cpu time :    10.1 secs   av.it.:   8.5
      thresh= 8.990E-05 alpha_mix =  0.700 |ddv_scf|^2 =  1.513E-08

     Pert. #  1: Fermi energy shift (Ry) =    -2.6711E-25    -3.0612E-41
     Pert. #  2: Fermi energy shift (Ry) =    -8.6380E-25     2.7551E-40
     Pert. #  3: Fermi energy shift (Ry) =     2.8004E-25    -6.1224E-41

      iter #   3 total cpu time :    14.9 secs   av.it.:   8.6
      thresh= 1.230E-05 alpha_mix =  0.700 |ddv_scf|^2 =  3.691E-10

     Pert. #  1: Fermi energy shift (Ry) =     2.2403E-25    -1.6645E-40
     Pert. #  2: Fermi energy shift (Ry) =    -3.3604E-25    -1.2436E-41
     Pert. #  3: Fermi energy shift (Ry) =    -8.1856E-26    -9.5662E-41

      iter #   4 total cpu time :    19.5 secs   av.it.:   8.0
      thresh= 1.921E-06 alpha_mix =  0.700 |ddv_scf|^2 =  1.313E-12

     Pert. #  1: Fermi energy shift (Ry) =    -1.0340E-25    -1.5306E-41
     Pert. #  2: Fermi energy shift (Ry) =    -5.3853E-25     1.1671E-40
     Pert. #  3: Fermi energy shift (Ry) =     2.7573E-25    -2.8699E-41

      iter #   5 total cpu time :    24.3 secs   av.it.:   8.5
      thresh= 1.146E-07 alpha_mix =  0.700 |ddv_scf|^2 =  2.482E-15

     End of self-consistent calculation

     Convergence has been achieved 

     Number of q in the star =    1
     List of q in the star:
          1   0.000000000   0.000000000   0.000000000

     Diagonalizing the dynamical matrix

     q = (    0.000000000   0.000000000   0.000000000 ) 

 **************************************************************************
     freq (    1) =       0.303011 [THz] =      10.107362 [cm-1]
     freq (    2) =       0.303011 [THz] =      10.107362 [cm-1]
     freq (    3) =       0.303011 [THz] =      10.107362 [cm-1]
 **************************************************************************

     Mode symmetry, O_h (m-3m)  point group:

     freq (  1 -  3) =         10.1  [cm-1]   --> T_1u G_15  G_4- I  

     Calculation of q =    0.0000000  -0.1250000   0.1250000

   Info: using nr1, nr2, nr3 values from input

   Info: using nr1, nr2, nr3 values from input

     Parallelization info
     --------------------
     sticks:   dense  smooth     PW     G-vecs:    dense   smooth      PW
     Min         305     154     50                 6736     2399     436
     Max         306     156     51                 6737     2400     437
     Sum        1223     619    201                26947     9597    1745



     bravais-lattice index     =            3
     lattice parameter (alat)  =       8.2356  a.u.
     unit-cell volume          =     279.2936 (a.u.)^3
     number of atoms/cell      =            1
     number of atomic types    =            1
     number of electrons       =         9.00
     number of Kohn-Sham states=            9
     kinetic-energy cutoff     =      40.0000  Ry
     charge density cutoff     =     320.0000  Ry
     Exchange-correlation      = SLA  PW   PBE  PBE ( 1  4  3  4 0 0)

     celldm(1)=   8.235633  celldm(2)=   0.000000  celldm(3)=   0.000000
     celldm(4)=   0.000000  celldm(5)=   0.000000  celldm(6)=   0.000000

     crystal axes: (cart. coord. in units of alat)
               a(1) = (   0.500000   0.500000   0.500000 )  
               a(2) = (  -0.500000   0.500000   0.500000 )  
               a(3) = (  -0.500000  -0.500000   0.500000 )  

     reciprocal axes: (cart. coord. in units 2 pi/alat)
               b(1) = (  1.000000  0.000000  1.000000 )  
               b(2) = ( -1.000000  1.000000  0.000000 )  
               b(3) = (  0.000000 -1.000000  1.000000 )  


     PseudoPot. # 1 for Na read from file:
     /home/s1333534/quantum_espresso/qe-6.1/pseudo/Na_pbe_v1.uspp.F.UPF
     MD5 check sum: 76a99c7e9422403d3e93cbc85ab7bccb
     Pseudo is Ultrasoft, Zval =  9.0
     Generated by new atomic code, or converted to UPF format
     Using radial grid of  819 points,  5 beta functions with: 
                l(1) =   0
                l(2) =   0
                l(3) =   1
                l(4) =   1
                l(5) =   2
     Q(r) pseudized with  8 coefficients,  rinner =    1.250   1.250   1.250
                                                       1.250   1.250

     atomic species   valence    mass     pseudopotential
        Na             9.00    22.99000     Na( 1.00)

     48 Sym. Ops., with inversion, found



   Cartesian axes

     site n.     atom                  positions (alat units)
         1           Na  tau(   1) = (   0.0000000   0.0000000   0.0000000  )

     number of k points=  1568  Marzari-Vanderbilt smearing, width (Ry)=  0.0200

     Number of k-points >= 100: set verbosity='high' to print them.

     Dense  grid:    26947 G-vectors     FFT dimensions: (  45,  45,  45)

     Smooth grid:     9597 G-vectors     FFT dimensions: (  30,  30,  30)

     Estimated max dynamical RAM per process >       2.87MB

     Estimated total allocated dynamical RAM >      11.48MB

     The potential is recalculated from file :
     ./_ph0/na.bcc.save/charge-density.dat

     Starting wfc are    5 atomic +    4 random wfc

     Band Structure Calculation
     Davidson diagonalization with overlap

     ethr =  1.11E-10,  avg # of iterations = 23.2

     total cpu time spent up to now is       60.1 secs

     End of band structure calculation

     Number of k-points >= 100: set verbosity='high' to print the bands.

     the Fermi energy is     1.1809 ev

     Writing output data file na.bcc.save

                                                                                

     bravais-lattice index     =            3
     lattice parameter (alat)  =       8.2356  a.u.
     unit-cell volume          =     279.2936 (a.u.)^3
     number of atoms/cell      =            1
     number of atomic types    =            1
     kinetic-energy cut-off    =      40.0000  Ry
     charge density cut-off    =     320.0000  Ry
     convergence threshold     =      1.0E-12
     beta                      =       0.7000
     number of iterations used =            4
     Exchange-correlation      = SLA  PW   PBE  PBE ( 1  4  3  4 0 0)


     celldm(1)=    8.23563  celldm(2)=    0.00000  celldm(3)=    0.00000
     celldm(4)=    0.00000  celldm(5)=    0.00000  celldm(6)=    0.00000

     crystal axes: (cart. coord. in units of alat)
               a(1) = (  0.5000  0.5000  0.5000 )  
               a(2) = ( -0.5000  0.5000  0.5000 )  
               a(3) = ( -0.5000 -0.5000  0.5000 )  

     reciprocal axes: (cart. coord. in units 2 pi/alat)
               b(1) = (  1.0000  0.0000  1.0000 )  
               b(2) = ( -1.0000  1.0000  0.0000 )  
               b(3) = (  0.0000 -1.0000  1.0000 )  


     Atoms inside the unit cell: 

     Cartesian axes

     site n.  atom      mass           positions (alat units)
        1     Na  22.9900   tau(    1) = (    0.00000    0.00000    0.00000  )

     Computing dynamical matrix for 
                    q = (   0.0000000  -0.1250000   0.1250000 )

      4 Sym.Ops. (no q -> -q+G )


     G cutoff =  549.7740  (   6737 G-vectors)     FFT grid: ( 45, 45, 45)
     G cutoff =  274.8870  (   2399 G-vectors)  smooth grid: ( 30, 30, 30)

     number of k points=  1568  Marzari-Vanderbilt smearing, width (Ry)=  0.0200

     PseudoPot. # 1 for Na read from file:
     /home/s1333534/quantum_espresso/qe-6.1/pseudo/Na_pbe_v1.uspp.F.UPF
     MD5 check sum: 76a99c7e9422403d3e93cbc85ab7bccb
     Pseudo is Ultrasoft, Zval =  9.0
     Generated by new atomic code, or converted to UPF format
     Using radial grid of  819 points,  5 beta functions with: 
                l(1) =   0
                l(2) =   0
                l(3) =   1
                l(4) =   1
                l(5) =   2
     Q(r) pseudized with  8 coefficients,  rinner =    1.250   1.250   1.250
                                                       1.250   1.250

     Mode symmetry, C_2v (mm2)  point group:


     Atomic displacements:
     There are   3 irreducible representations

     Representation     1      1 modes -A_1  D_1  S_1  To be done

     Representation     2      1 modes -B_1  D_3  S_3  To be done

     Representation     3      1 modes -B_2  D_4  S_4  To be done



     Alpha used in Ewald sum =   2.8000
     PHONON       :  1m25.65s CPU     1m29.82s WALL



     Representation #  1 mode #   1

     Self-consistent Calculation

      iter #   1 total cpu time :    99.3 secs   av.it.:   5.6
      thresh= 1.000E-02 alpha_mix =  0.700 |ddv_scf|^2 =  9.627E-02

      iter #   2 total cpu time :   108.7 secs   av.it.:   6.8
      thresh= 1.000E-02 alpha_mix =  0.700 |ddv_scf|^2 =  4.775E+01

      iter #   3 total cpu time :   118.1 secs   av.it.:   6.8
      thresh= 1.000E-02 alpha_mix =  0.700 |ddv_scf|^2 =  1.512E-04

      iter #   4 total cpu time :   126.4 secs   av.it.:   5.5
      thresh= 1.230E-03 alpha_mix =  0.700 |ddv_scf|^2 =  8.258E-08

      iter #   5 total cpu time :   136.4 secs   av.it.:   7.5
      thresh= 2.874E-05 alpha_mix =  0.700 |ddv_scf|^2 =  2.704E-09

      iter #   6 total cpu time :   146.6 secs   av.it.:   7.5
      thresh= 5.200E-06 alpha_mix =  0.700 |ddv_scf|^2 =  1.547E-07

      iter #   7 total cpu time :   153.0 secs   av.it.:   3.8
      thresh= 3.934E-05 alpha_mix =  0.700 |ddv_scf|^2 =  1.110E-10

      iter #   8 total cpu time :   163.3 secs   av.it.:   7.7
      thresh= 1.054E-06 alpha_mix =  0.700 |ddv_scf|^2 =  6.163E-13

     End of self-consistent calculation

     Convergence has been achieved 


     Representation #  2 mode #   2

     Self-consistent Calculation

      iter #   1 total cpu time :   172.5 secs   av.it.:   5.4
      thresh= 1.000E-02 alpha_mix =  0.700 |ddv_scf|^2 =  7.315E-06

      iter #   2 total cpu time :   182.7 secs   av.it.:   7.7
      thresh= 2.705E-04 alpha_mix =  0.700 |ddv_scf|^2 =  1.355E-07

      iter #   3 total cpu time :   193.3 secs   av.it.:   7.8
      thresh= 3.682E-05 alpha_mix =  0.700 |ddv_scf|^2 =  3.448E-09

      iter #   4 total cpu time :   203.6 secs   av.it.:   7.5
      thresh= 5.872E-06 alpha_mix =  0.700 |ddv_scf|^2 =  1.221E-11

      iter #   5 total cpu time :   214.0 secs   av.it.:   7.7
      thresh= 3.495E-07 alpha_mix =  0.700 |ddv_scf|^2 =  2.192E-14

     End of self-consistent calculation

     Convergence has been achieved 


     Representation #  3 mode #   3

     Self-consistent Calculation

      iter #   1 total cpu time :   223.4 secs   av.it.:   5.4
      thresh= 1.000E-02 alpha_mix =  0.700 |ddv_scf|^2 =  7.454E-06

      iter #   2 total cpu time :   233.6 secs   av.it.:   7.6
      thresh= 2.730E-04 alpha_mix =  0.700 |ddv_scf|^2 =  1.351E-07

      iter #   3 total cpu time :   244.0 secs   av.it.:   7.8
      thresh= 3.675E-05 alpha_mix =  0.700 |ddv_scf|^2 =  3.929E-09

      iter #   4 total cpu time :   254.1 secs   av.it.:   7.5
      thresh= 6.268E-06 alpha_mix =  0.700 |ddv_scf|^2 =  1.391E-11

      iter #   5 total cpu time :   264.6 secs   av.it.:   7.8
      thresh= 3.729E-07 alpha_mix =  0.700 |ddv_scf|^2 =  2.258E-14

     End of self-consistent calculation

     Convergence has been achieved 

     Number of q in the star =   12
     List of q in the star:
          1   0.000000000  -0.125000000   0.125000000
          2   0.125000000   0.000000000   0.125000000
          3  -0.125000000   0.000000000   0.125000000
          4   0.000000000   0.125000000   0.125000000
          5   0.125000000  -0.125000000   0.000000000
          6  -0.125000000   0.000000000  -0.125000000
          7   0.125000000   0.000000000  -0.125000000
          8   0.000000000  -0.125000000  -0.125000000
          9  -0.125000000  -0.125000000   0.000000000
         10  -0.125000000   0.125000000   0.000000000
         11   0.125000000   0.125000000   0.000000000
         12   0.000000000   0.125000000  -0.125000000

     Diagonalizing the dynamical matrix

     q = (    0.000000000  -0.125000000   0.125000000 ) 

 **************************************************************************
     freq (    1) =      -0.373310 [THz] =     -12.452273 [cm-1]
     freq (    2) =       0.633681 [THz] =      21.137320 [cm-1]
     freq (    3) =       2.651597 [THz] =      88.447749 [cm-1]
 **************************************************************************

     Mode symmetry, C_2v (mm2)  point group:

     freq (  1 -  1) =        -12.5  [cm-1]   --> B_1  D_3  S_3      
     freq (  2 -  2) =         21.1  [cm-1]   --> B_2  D_4  S_4      
     freq (  3 -  3) =         88.4  [cm-1]   --> A_1  D_1  S_1      

     Calculation of q =    0.0000000  -0.2500000   0.2500000

   Info: using nr1, nr2, nr3 values from input

   Info: using nr1, nr2, nr3 values from input

     Parallelization info
     --------------------
     sticks:   dense  smooth     PW     G-vecs:    dense   smooth      PW
     Min         305     154     51                 6736     2399     466
     Max         306     155     52                 6737     2400     467
     Sum        1223     619    205                26947     9597    1865



     bravais-lattice index     =            3
     lattice parameter (alat)  =       8.2356  a.u.
     unit-cell volume          =     279.2936 (a.u.)^3
     number of atoms/cell      =            1
     number of atomic types    =            1
     number of electrons       =         9.00
     number of Kohn-Sham states=            9
     kinetic-energy cutoff     =      40.0000  Ry
     charge density cutoff     =     320.0000  Ry
     Exchange-correlation      = SLA  PW   PBE  PBE ( 1  4  3  4 0 0)

     celldm(1)=   8.235633  celldm(2)=   0.000000  celldm(3)=   0.000000
     celldm(4)=   0.000000  celldm(5)=   0.000000  celldm(6)=   0.000000

     crystal axes: (cart. coord. in units of alat)
               a(1) = (   0.500000   0.500000   0.500000 )  
               a(2) = (  -0.500000   0.500000   0.500000 )  
               a(3) = (  -0.500000  -0.500000   0.500000 )  

     reciprocal axes: (cart. coord. in units 2 pi/alat)
               b(1) = (  1.000000  0.000000  1.000000 )  
               b(2) = ( -1.000000  1.000000  0.000000 )  
               b(3) = (  0.000000 -1.000000  1.000000 )  


     PseudoPot. # 1 for Na read from file:
     /home/s1333534/quantum_espresso/qe-6.1/pseudo/Na_pbe_v1.uspp.F.UPF
     MD5 check sum: 76a99c7e9422403d3e93cbc85ab7bccb
     Pseudo is Ultrasoft, Zval =  9.0
     Generated by new atomic code, or converted to UPF format
     Using radial grid of  819 points,  5 beta functions with: 
                l(1) =   0
                l(2) =   0
                l(3) =   1
                l(4) =   1
                l(5) =   2
     Q(r) pseudized with  8 coefficients,  rinner =    1.250   1.250   1.250
                                                       1.250   1.250

     atomic species   valence    mass     pseudopotential
        Na             9.00    22.99000     Na( 1.00)

     48 Sym. Ops., with inversion, found



   Cartesian axes

     site n.     atom                  positions (alat units)
         1           Na  tau(   1) = (   0.0000000   0.0000000   0.0000000  )

     number of k points=  1568  Marzari-Vanderbilt smearing, width (Ry)=  0.0200

     Number of k-points >= 100: set verbosity='high' to print them.

     Dense  grid:    26947 G-vectors     FFT dimensions: (  45,  45,  45)

     Smooth grid:     9597 G-vectors     FFT dimensions: (  30,  30,  30)

     Estimated max dynamical RAM per process >       2.87MB

     Estimated total allocated dynamical RAM >      11.48MB

     The potential is recalculated from file :
     ./_ph0/na.bcc.save/charge-density.dat

     Starting wfc are    5 atomic +    4 random wfc

     Band Structure Calculation
     Davidson diagonalization with overlap

     ethr =  1.11E-10,  avg # of iterations = 23.4

     total cpu time spent up to now is      121.7 secs

     End of band structure calculation

     Number of k-points >= 100: set verbosity='high' to print the bands.

     the Fermi energy is     1.1809 ev

     Writing output data file na.bcc.save

                                                                                

     bravais-lattice index     =            3
     lattice parameter (alat)  =       8.2356  a.u.
     unit-cell volume          =     279.2936 (a.u.)^3
     number of atoms/cell      =            1
     number of atomic types    =            1
     kinetic-energy cut-off    =      40.0000  Ry
     charge density cut-off    =     320.0000  Ry
     convergence threshold     =      1.0E-12
     beta                      =       0.7000
     number of iterations used =            4
     Exchange-correlation      = SLA  PW   PBE  PBE ( 1  4  3  4 0 0)


     celldm(1)=    8.23563  celldm(2)=    0.00000  celldm(3)=    0.00000
     celldm(4)=    0.00000  celldm(5)=    0.00000  celldm(6)=    0.00000

     crystal axes: (cart. coord. in units of alat)
               a(1) = (  0.5000  0.5000  0.5000 )  
               a(2) = ( -0.5000  0.5000  0.5000 )  
               a(3) = ( -0.5000 -0.5000  0.5000 )  

     reciprocal axes: (cart. coord. in units 2 pi/alat)
               b(1) = (  1.0000  0.0000  1.0000 )  
               b(2) = ( -1.0000  1.0000  0.0000 )  
               b(3) = (  0.0000 -1.0000  1.0000 )  


     Atoms inside the unit cell: 

     Cartesian axes

     site n.  atom      mass           positions (alat units)
        1     Na  22.9900   tau(    1) = (    0.00000    0.00000    0.00000  )

     Computing dynamical matrix for 
                    q = (   0.0000000  -0.2500000   0.2500000 )

      4 Sym.Ops. (no q -> -q+G )


     G cutoff =  549.7740  (   6737 G-vectors)     FFT grid: ( 45, 45, 45)
     G cutoff =  274.8870  (   2400 G-vectors)  smooth grid: ( 30, 30, 30)

     number of k points=  1568  Marzari-Vanderbilt smearing, width (Ry)=  0.0200

     PseudoPot. # 1 for Na read from file:
     /home/s1333534/quantum_espresso/qe-6.1/pseudo/Na_pbe_v1.uspp.F.UPF
     MD5 check sum: 76a99c7e9422403d3e93cbc85ab7bccb
     Pseudo is Ultrasoft, Zval =  9.0
     Generated by new atomic code, or converted to UPF format
     Using radial grid of  819 points,  5 beta functions with: 
                l(1) =   0
                l(2) =   0
                l(3) =   1
                l(4) =   1
                l(5) =   2
     Q(r) pseudized with  8 coefficients,  rinner =    1.250   1.250   1.250
                                                       1.250   1.250

     Mode symmetry, C_2v (mm2)  point group:


     Atomic displacements:
     There are   3 irreducible representations

     Representation     1      1 modes -A_1  D_1  S_1  To be done

     Representation     2      1 modes -B_1  D_3  S_3  To be done

     Representation     3      1 modes -B_2  D_4  S_4  To be done



     Alpha used in Ewald sum =   2.8000
     PHONON       :  5m12.90s CPU     5m30.72s WALL



     Representation #  1 mode #   1

     Self-consistent Calculation

      iter #   1 total cpu time :   340.1 secs   av.it.:   5.7
      thresh= 1.000E-02 alpha_mix =  0.700 |ddv_scf|^2 =  1.558E-03

      iter #   2 total cpu time :   349.1 secs   av.it.:   6.4
      thresh= 3.947E-03 alpha_mix =  0.700 |ddv_scf|^2 =  3.774E-02

      iter #   3 total cpu time :   357.3 secs   av.it.:   5.6
      thresh= 1.000E-02 alpha_mix =  0.700 |ddv_scf|^2 =  1.182E-06

      iter #   4 total cpu time :   367.7 secs   av.it.:   7.6
      thresh= 1.087E-04 alpha_mix =  0.700 |ddv_scf|^2 =  6.896E-09

      iter #   5 total cpu time :   378.5 secs   av.it.:   8.2
      thresh= 8.304E-06 alpha_mix =  0.700 |ddv_scf|^2 =  5.638E-10

      iter #   6 total cpu time :   389.1 secs   av.it.:   8.1
      thresh= 2.375E-06 alpha_mix =  0.700 |ddv_scf|^2 =  2.164E-11

      iter #   7 total cpu time :   400.1 secs   av.it.:   8.3
      thresh= 4.652E-07 alpha_mix =  0.700 |ddv_scf|^2 =  1.111E-10

      iter #   8 total cpu time :   408.7 secs   av.it.:   6.0
      thresh= 1.054E-06 alpha_mix =  0.700 |ddv_scf|^2 =  3.558E-12

      iter #   9 total cpu time :   418.8 secs   av.it.:   7.6
      thresh= 1.886E-07 alpha_mix =  0.700 |ddv_scf|^2 =  3.738E-13

     End of self-consistent calculation

     Convergence has been achieved 


     Representation #  2 mode #   2

     Self-consistent Calculation

      iter #   1 total cpu time :   428.1 secs   av.it.:   5.5
      thresh= 1.000E-02 alpha_mix =  0.700 |ddv_scf|^2 =  7.435E-06

      iter #   2 total cpu time :   438.4 secs   av.it.:   7.7
      thresh= 2.727E-04 alpha_mix =  0.700 |ddv_scf|^2 =  1.333E-07

      iter #   3 total cpu time :   448.9 secs   av.it.:   7.8
      thresh= 3.651E-05 alpha_mix =  0.700 |ddv_scf|^2 =  3.867E-09

      iter #   4 total cpu time :   459.0 secs   av.it.:   7.5
      thresh= 6.218E-06 alpha_mix =  0.700 |ddv_scf|^2 =  1.341E-11

      iter #   5 total cpu time :   469.5 secs   av.it.:   7.8
      thresh= 3.662E-07 alpha_mix =  0.700 |ddv_scf|^2 =  2.037E-14

     End of self-consistent calculation

     Convergence has been achieved 


     Representation #  3 mode #   3

     Self-consistent Calculation

      iter #   1 total cpu time :   478.8 secs   av.it.:   5.4
      thresh= 1.000E-02 alpha_mix =  0.700 |ddv_scf|^2 =  7.923E-06

      iter #   2 total cpu time :   489.1 secs   av.it.:   7.7
      thresh= 2.815E-04 alpha_mix =  0.700 |ddv_scf|^2 =  1.323E-07

      iter #   3 total cpu time :   499.6 secs   av.it.:   7.8
      thresh= 3.637E-05 alpha_mix =  0.700 |ddv_scf|^2 =  5.683E-09

      iter #   4 total cpu time :   509.9 secs   av.it.:   7.6
      thresh= 7.539E-06 alpha_mix =  0.700 |ddv_scf|^2 =  1.997E-11

      iter #   5 total cpu time :   520.3 secs   av.it.:   7.8
      thresh= 4.469E-07 alpha_mix =  0.700 |ddv_scf|^2 =  2.395E-14

     End of self-consistent calculation

     Convergence has been achieved 

     Number of q in the star =   12
     List of q in the star:
          1   0.000000000  -0.250000000   0.250000000
          2   0.250000000   0.000000000   0.250000000
          3  -0.250000000   0.000000000   0.250000000
          4   0.000000000   0.250000000   0.250000000
          5   0.250000000  -0.250000000   0.000000000
          6  -0.250000000   0.000000000  -0.250000000
          7   0.250000000   0.000000000  -0.250000000
          8   0.000000000  -0.250000000  -0.250000000
          9  -0.250000000  -0.250000000   0.000000000
         10  -0.250000000   0.250000000   0.000000000
         11   0.250000000   0.250000000   0.000000000
         12   0.000000000   0.250000000  -0.250000000

     Diagonalizing the dynamical matrix

     q = (    0.000000000  -0.250000000   0.250000000 ) 

 **************************************************************************
     freq (    1) =       0.462410 [THz] =      15.424324 [cm-1]
     freq (    2) =       1.510278 [THz] =      50.377440 [cm-1]
     freq (    3) =       2.354668 [THz] =      78.543265 [cm-1]
 **************************************************************************

     Mode symmetry, C_2v (mm2)  point group:

     freq (  1 -  1) =         15.4  [cm-1]   --> B_1  D_3  S_3      
     freq (  2 -  2) =         50.4  [cm-1]   --> B_2  D_4  S_4      
     freq (  3 -  3) =         78.5  [cm-1]   --> A_1  D_1  S_1      

     Calculation of q =    0.0000000  -0.3750000   0.3750000

   Info: using nr1, nr2, nr3 values from input

   Info: using nr1, nr2, nr3 values from input

     Parallelization info
     --------------------
     sticks:   dense  smooth     PW     G-vecs:    dense   smooth      PW
     Min         305     154     53                 6736     2399     490
     Max         306     155     54                 6737     2400     491
     Sum        1223     619    213                26947     9597    1961



     bravais-lattice index     =            3
     lattice parameter (alat)  =       8.2356  a.u.
     unit-cell volume          =     279.2936 (a.u.)^3
     number of atoms/cell      =            1
     number of atomic types    =            1
     number of electrons       =         9.00
     number of Kohn-Sham states=            9
     kinetic-energy cutoff     =      40.0000  Ry
     charge density cutoff     =     320.0000  Ry
     Exchange-correlation      = SLA  PW   PBE  PBE ( 1  4  3  4 0 0)

     celldm(1)=   8.235633  celldm(2)=   0.000000  celldm(3)=   0.000000
     celldm(4)=   0.000000  celldm(5)=   0.000000  celldm(6)=   0.000000

     crystal axes: (cart. coord. in units of alat)
               a(1) = (   0.500000   0.500000   0.500000 )  
               a(2) = (  -0.500000   0.500000   0.500000 )  
               a(3) = (  -0.500000  -0.500000   0.500000 )  

     reciprocal axes: (cart. coord. in units 2 pi/alat)
               b(1) = (  1.000000  0.000000  1.000000 )  
               b(2) = ( -1.000000  1.000000  0.000000 )  
               b(3) = (  0.000000 -1.000000  1.000000 )  


     PseudoPot. # 1 for Na read from file:
     /home/s1333534/quantum_espresso/qe-6.1/pseudo/Na_pbe_v1.uspp.F.UPF
     MD5 check sum: 76a99c7e9422403d3e93cbc85ab7bccb
     Pseudo is Ultrasoft, Zval =  9.0
     Generated by new atomic code, or converted to UPF format
     Using radial grid of  819 points,  5 beta functions with: 
                l(1) =   0
                l(2) =   0
                l(3) =   1
                l(4) =   1
                l(5) =   2
     Q(r) pseudized with  8 coefficients,  rinner =    1.250   1.250   1.250
                                                       1.250   1.250

     atomic species   valence    mass     pseudopotential
        Na             9.00    22.99000     Na( 1.00)

     48 Sym. Ops., with inversion, found



   Cartesian axes

     site n.     atom                  positions (alat units)
         1           Na  tau(   1) = (   0.0000000   0.0000000   0.0000000  )

     number of k points=  1568  Marzari-Vanderbilt smearing, width (Ry)=  0.0200

     Number of k-points >= 100: set verbosity='high' to print them.

     Dense  grid:    26947 G-vectors     FFT dimensions: (  45,  45,  45)

     Smooth grid:     9597 G-vectors     FFT dimensions: (  30,  30,  30)

     Estimated max dynamical RAM per process >       2.87MB

     Estimated total allocated dynamical RAM >      11.48MB

     The potential is recalculated from file :
     ./_ph0/na.bcc.save/charge-density.dat

     Starting wfc are    5 atomic +    4 random wfc

     Band Structure Calculation
     Davidson diagonalization with overlap

     ethr =  1.11E-10,  avg # of iterations = 23.1

     total cpu time spent up to now is      184.3 secs

     End of band structure calculation

     Number of k-points >= 100: set verbosity='high' to print the bands.

     the Fermi energy is     1.1809 ev

     Writing output data file na.bcc.save

                                                                                

     bravais-lattice index     =            3
     lattice parameter (alat)  =       8.2356  a.u.
     unit-cell volume          =     279.2936 (a.u.)^3
     number of atoms/cell      =            1
     number of atomic types    =            1
     kinetic-energy cut-off    =      40.0000  Ry
     charge density cut-off    =     320.0000  Ry
     convergence threshold     =      1.0E-12
     beta                      =       0.7000
     number of iterations used =            4
     Exchange-correlation      = SLA  PW   PBE  PBE ( 1  4  3  4 0 0)


     celldm(1)=    8.23563  celldm(2)=    0.00000  celldm(3)=    0.00000
     celldm(4)=    0.00000  celldm(5)=    0.00000  celldm(6)=    0.00000

     crystal axes: (cart. coord. in units of alat)
               a(1) = (  0.5000  0.5000  0.5000 )  
               a(2) = ( -0.5000  0.5000  0.5000 )  
               a(3) = ( -0.5000 -0.5000  0.5000 )  

     reciprocal axes: (cart. coord. in units 2 pi/alat)
               b(1) = (  1.0000  0.0000  1.0000 )  
               b(2) = ( -1.0000  1.0000  0.0000 )  
               b(3) = (  0.0000 -1.0000  1.0000 )  


     Atoms inside the unit cell: 

     Cartesian axes

     site n.  atom      mass           positions (alat units)
        1     Na  22.9900   tau(    1) = (    0.00000    0.00000    0.00000  )

     Computing dynamical matrix for 
                    q = (   0.0000000  -0.3750000   0.3750000 )

      4 Sym.Ops. (no q -> -q+G )


     G cutoff =  549.7740  (   6737 G-vectors)     FFT grid: ( 45, 45, 45)
     G cutoff =  274.8870  (   2400 G-vectors)  smooth grid: ( 30, 30, 30)

     number of k points=  1568  Marzari-Vanderbilt smearing, width (Ry)=  0.0200

     PseudoPot. # 1 for Na read from file:
     /home/s1333534/quantum_espresso/qe-6.1/pseudo/Na_pbe_v1.uspp.F.UPF
     MD5 check sum: 76a99c7e9422403d3e93cbc85ab7bccb
     Pseudo is Ultrasoft, Zval =  9.0
     Generated by new atomic code, or converted to UPF format
     Using radial grid of  819 points,  5 beta functions with: 
                l(1) =   0
                l(2) =   0
                l(3) =   1
                l(4) =   1
                l(5) =   2
     Q(r) pseudized with  8 coefficients,  rinner =    1.250   1.250   1.250
                                                       1.250   1.250

     Mode symmetry, C_2v (mm2)  point group:


     Atomic displacements:
     There are   3 irreducible representations

     Representation     1      1 modes -A_1  D_1  S_1  To be done

     Representation     2      1 modes -B_1  D_3  S_3  To be done

     Representation     3      1 modes -B_2  D_4  S_4  To be done



     Alpha used in Ewald sum =   2.8000
     PHONON       :  9m15.04s CPU     9m48.22s WALL



     Representation #  1 mode #   1

     Self-consistent Calculation

      iter #   1 total cpu time :   597.7 secs   av.it.:   5.7
      thresh= 1.000E-02 alpha_mix =  0.700 |ddv_scf|^2 =  1.638E-04

      iter #   2 total cpu time :   607.3 secs   av.it.:   6.9
      thresh= 1.280E-03 alpha_mix =  0.700 |ddv_scf|^2 =  5.152E-04

      iter #   3 total cpu time :   616.2 secs   av.it.:   6.2
      thresh= 2.270E-03 alpha_mix =  0.700 |ddv_scf|^2 =  2.319E-07

      iter #   4 total cpu time :   627.4 secs   av.it.:   8.0
      thresh= 4.816E-05 alpha_mix =  0.700 |ddv_scf|^2 =  7.125E-09

      iter #   5 total cpu time :   638.5 secs   av.it.:   8.4
      thresh= 8.441E-06 alpha_mix =  0.700 |ddv_scf|^2 =  2.004E-10

      iter #   6 total cpu time :   649.4 secs   av.it.:   8.3
      thresh= 1.416E-06 alpha_mix =  0.700 |ddv_scf|^2 =  1.210E-11

      iter #   7 total cpu time :   660.3 secs   av.it.:   8.1
      thresh= 3.479E-07 alpha_mix =  0.700 |ddv_scf|^2 =  7.004E-13

     End of self-consistent calculation

     Convergence has been achieved 


     Representation #  2 mode #   2

     Self-consistent Calculation

      iter #   1 total cpu time :   669.7 secs   av.it.:   5.5
      thresh= 1.000E-02 alpha_mix =  0.700 |ddv_scf|^2 =  7.581E-06

      iter #   2 total cpu time :   680.1 secs   av.it.:   7.7
      thresh= 2.753E-04 alpha_mix =  0.700 |ddv_scf|^2 =  1.305E-07

      iter #   3 total cpu time :   691.0 secs   av.it.:   7.8
      thresh= 3.612E-05 alpha_mix =  0.700 |ddv_scf|^2 =  4.451E-09

      iter #   4 total cpu time :   701.4 secs   av.it.:   7.5
      thresh= 6.672E-06 alpha_mix =  0.700 |ddv_scf|^2 =  1.495E-11

      iter #   5 total cpu time :   712.0 secs   av.it.:   7.8
      thresh= 3.866E-07 alpha_mix =  0.700 |ddv_scf|^2 =  1.822E-14

     End of self-consistent calculation

     Convergence has been achieved 


     Representation #  3 mode #   3

     Self-consistent Calculation

      iter #   1 total cpu time :   721.5 secs   av.it.:   5.5
      thresh= 1.000E-02 alpha_mix =  0.700 |ddv_scf|^2 =  8.444E-06

      iter #   2 total cpu time :   731.9 secs   av.it.:   7.7
      thresh= 2.906E-04 alpha_mix =  0.700 |ddv_scf|^2 =  1.302E-07

      iter #   3 total cpu time :   742.5 secs   av.it.:   7.8
      thresh= 3.608E-05 alpha_mix =  0.700 |ddv_scf|^2 =  7.898E-09

      iter #   4 total cpu time :   752.8 secs   av.it.:   7.6
      thresh= 8.887E-06 alpha_mix =  0.700 |ddv_scf|^2 =  2.780E-11

      iter #   5 total cpu time :   763.3 secs   av.it.:   7.8
      thresh= 5.273E-07 alpha_mix =  0.700 |ddv_scf|^2 =  2.701E-14

     End of self-consistent calculation

     Convergence has been achieved 

     Number of q in the star =   12
     List of q in the star:
          1   0.000000000  -0.375000000   0.375000000
          2   0.375000000   0.000000000   0.375000000
          3  -0.375000000   0.000000000   0.375000000
          4   0.000000000   0.375000000   0.375000000
          5   0.375000000  -0.375000000   0.000000000
          6  -0.375000000   0.000000000  -0.375000000
          7   0.375000000   0.000000000  -0.375000000
          8   0.000000000  -0.375000000  -0.375000000
          9  -0.375000000  -0.375000000   0.000000000
         10  -0.375000000   0.375000000   0.000000000
         11   0.375000000   0.375000000   0.000000000
         12   0.000000000   0.375000000  -0.375000000

     Diagonalizing the dynamical matrix

     q = (    0.000000000  -0.375000000   0.375000000 ) 

 **************************************************************************
     freq (    1) =       0.374237 [THz] =      12.483197 [cm-1]
     freq (    2) =       1.983056 [THz] =      66.147629 [cm-1]
     freq (    3) =       3.893861 [THz] =     129.885229 [cm-1]
 **************************************************************************

     Mode symmetry, C_2v (mm2)  point group:

     freq (  1 -  1) =         12.5  [cm-1]   --> B_1  D_3  S_3      
     freq (  2 -  2) =         66.1  [cm-1]   --> B_2  D_4  S_4      
     freq (  3 -  3) =        129.9  [cm-1]   --> A_1  D_1  S_1      

     Calculation of q =    0.0000000   0.5000000  -0.5000000

   Info: using nr1, nr2, nr3 values from input

   Info: using nr1, nr2, nr3 values from input

     Parallelization info
     --------------------
     sticks:   dense  smooth     PW     G-vecs:    dense   smooth      PW
     Min         305     154     54                 6736     2399     496
     Max         307     155     55                 6737     2400     497
     Sum        1223     619    217                26947     9597    1985



     bravais-lattice index     =            3
     lattice parameter (alat)  =       8.2356  a.u.
     unit-cell volume          =     279.2936 (a.u.)^3
     number of atoms/cell      =            1
     number of atomic types    =            1
     number of electrons       =         9.00
     number of Kohn-Sham states=            9
     kinetic-energy cutoff     =      40.0000  Ry
     charge density cutoff     =     320.0000  Ry
     Exchange-correlation      = SLA  PW   PBE  PBE ( 1  4  3  4 0 0)

     celldm(1)=   8.235633  celldm(2)=   0.000000  celldm(3)=   0.000000
     celldm(4)=   0.000000  celldm(5)=   0.000000  celldm(6)=   0.000000

     crystal axes: (cart. coord. in units of alat)
               a(1) = (   0.500000   0.500000   0.500000 )  
               a(2) = (  -0.500000   0.500000   0.500000 )  
               a(3) = (  -0.500000  -0.500000   0.500000 )  

     reciprocal axes: (cart. coord. in units 2 pi/alat)
               b(1) = (  1.000000  0.000000  1.000000 )  
               b(2) = ( -1.000000  1.000000  0.000000 )  
               b(3) = (  0.000000 -1.000000  1.000000 )  


     PseudoPot. # 1 for Na read from file:
     /home/s1333534/quantum_espresso/qe-6.1/pseudo/Na_pbe_v1.uspp.F.UPF
     MD5 check sum: 76a99c7e9422403d3e93cbc85ab7bccb
     Pseudo is Ultrasoft, Zval =  9.0
     Generated by new atomic code, or converted to UPF format
     Using radial grid of  819 points,  5 beta functions with: 
                l(1) =   0
                l(2) =   0
                l(3) =   1
                l(4) =   1
                l(5) =   2
     Q(r) pseudized with  8 coefficients,  rinner =    1.250   1.250   1.250
                                                       1.250   1.250

     atomic species   valence    mass     pseudopotential
        Na             9.00    22.99000     Na( 1.00)

     48 Sym. Ops., with inversion, found



   Cartesian axes

     site n.     atom                  positions (alat units)
         1           Na  tau(   1) = (   0.0000000   0.0000000   0.0000000  )

     number of k points=   840  Marzari-Vanderbilt smearing, width (Ry)=  0.0200

     Number of k-points >= 100: set verbosity='high' to print them.

     Dense  grid:    26947 G-vectors     FFT dimensions: (  45,  45,  45)

     Smooth grid:     9597 G-vectors     FFT dimensions: (  30,  30,  30)

     Estimated max dynamical RAM per process >       2.87MB

     Estimated total allocated dynamical RAM >      11.48MB

     The potential is recalculated from file :
     ./_ph0/na.bcc.save/charge-density.dat

     Starting wfc are    5 atomic +    4 random wfc

     Band Structure Calculation
     Davidson diagonalization with overlap

     ethr =  1.11E-10,  avg # of iterations = 23.1

     total cpu time spent up to now is      218.1 secs

     End of band structure calculation

     Number of k-points >= 100: set verbosity='high' to print the bands.

     the Fermi energy is     1.1809 ev

     Writing output data file na.bcc.save

                                                                                

     bravais-lattice index     =            3
     lattice parameter (alat)  =       8.2356  a.u.
     unit-cell volume          =     279.2936 (a.u.)^3
     number of atoms/cell      =            1
     number of atomic types    =            1
     kinetic-energy cut-off    =      40.0000  Ry
     charge density cut-off    =     320.0000  Ry
     convergence threshold     =      1.0E-12
     beta                      =       0.7000
     number of iterations used =            4
     Exchange-correlation      = SLA  PW   PBE  PBE ( 1  4  3  4 0 0)


     celldm(1)=    8.23563  celldm(2)=    0.00000  celldm(3)=    0.00000
     celldm(4)=    0.00000  celldm(5)=    0.00000  celldm(6)=    0.00000

     crystal axes: (cart. coord. in units of alat)
               a(1) = (  0.5000  0.5000  0.5000 )  
               a(2) = ( -0.5000  0.5000  0.5000 )  
               a(3) = ( -0.5000 -0.5000  0.5000 )  

     reciprocal axes: (cart. coord. in units 2 pi/alat)
               b(1) = (  1.0000  0.0000  1.0000 )  
               b(2) = ( -1.0000  1.0000  0.0000 )  
               b(3) = (  0.0000 -1.0000  1.0000 )  


     Atoms inside the unit cell: 

     Cartesian axes

     site n.  atom      mass           positions (alat units)
        1     Na  22.9900   tau(    1) = (    0.00000    0.00000    0.00000  )

     Computing dynamical matrix for 
                    q = (   0.0000000   0.5000000  -0.5000000 )

      9 Sym.Ops. (with q -> -q+G )


     G cutoff =  549.7740  (   6737 G-vectors)     FFT grid: ( 45, 45, 45)
     G cutoff =  274.8870  (   2400 G-vectors)  smooth grid: ( 30, 30, 30)

     number of k points=   840  Marzari-Vanderbilt smearing, width (Ry)=  0.0200

     PseudoPot. # 1 for Na read from file:
     /home/s1333534/quantum_espresso/qe-6.1/pseudo/Na_pbe_v1.uspp.F.UPF
     MD5 check sum: 76a99c7e9422403d3e93cbc85ab7bccb
     Pseudo is Ultrasoft, Zval =  9.0
     Generated by new atomic code, or converted to UPF format
     Using radial grid of  819 points,  5 beta functions with: 
                l(1) =   0
                l(2) =   0
                l(3) =   1
                l(4) =   1
                l(5) =   2
     Q(r) pseudized with  8 coefficients,  rinner =    1.250   1.250   1.250
                                                       1.250   1.250

     Mode symmetry, D_2h (mmm)  point group:


     Atomic displacements:
     There are   3 irreducible representations

     Representation     1      1 modes -B_1u  To be done

     Representation     2      1 modes -B_2u  To be done

     Representation     3      1 modes -B_3u  To be done



     Alpha used in Ewald sum =   2.8000
     PHONON       : 12m33.34s CPU    13m19.22s WALL



     Representation #  1 mode #   1

     Self-consistent Calculation

      iter #   1 total cpu time :   804.2 secs   av.it.:   5.5
      thresh= 1.000E-02 alpha_mix =  0.700 |ddv_scf|^2 =  8.677E-06

      iter #   2 total cpu time :   809.8 secs   av.it.:   7.7
      thresh= 2.946E-04 alpha_mix =  0.700 |ddv_scf|^2 =  1.292E-07

      iter #   3 total cpu time :   815.4 secs   av.it.:   7.7
      thresh= 3.595E-05 alpha_mix =  0.700 |ddv_scf|^2 =  8.863E-09

      iter #   4 total cpu time :   820.8 secs   av.it.:   7.3
      thresh= 9.414E-06 alpha_mix =  0.700 |ddv_scf|^2 =  3.137E-11

      iter #   5 total cpu time :   826.4 secs   av.it.:   7.6
      thresh= 5.601E-07 alpha_mix =  0.700 |ddv_scf|^2 =  2.848E-14

     End of self-consistent calculation

     Convergence has been achieved 


     Representation #  2 mode #   2

     Self-consistent Calculation

      iter #   1 total cpu time :   832.2 secs   av.it.:   5.5
      thresh= 1.000E-02 alpha_mix =  0.700 |ddv_scf|^2 =  7.651E-06

      iter #   2 total cpu time :   837.8 secs   av.it.:   7.7
      thresh= 2.766E-04 alpha_mix =  0.700 |ddv_scf|^2 =  1.289E-07

      iter #   3 total cpu time :   843.5 secs   av.it.:   7.8
      thresh= 3.590E-05 alpha_mix =  0.700 |ddv_scf|^2 =  4.697E-09

      iter #   4 total cpu time :   848.9 secs   av.it.:   7.3
      thresh= 6.854E-06 alpha_mix =  0.700 |ddv_scf|^2 =  1.557E-11

      iter #   5 total cpu time :   854.5 secs   av.it.:   7.6
      thresh= 3.946E-07 alpha_mix =  0.700 |ddv_scf|^2 =  1.699E-14

     End of self-consistent calculation

     Convergence has been achieved 


     Representation #  3 mode #   3

     Self-consistent Calculation

      iter #   1 total cpu time :   859.7 secs   av.it.:   5.6
      thresh= 1.000E-02 alpha_mix =  0.700 |ddv_scf|^2 =  6.127E-05

      iter #   2 total cpu time :   865.2 secs   av.it.:   6.9
      thresh= 7.828E-04 alpha_mix =  0.700 |ddv_scf|^2 =  3.134E-05

      iter #   3 total cpu time :   870.2 secs   av.it.:   6.5
      thresh= 5.598E-04 alpha_mix =  0.700 |ddv_scf|^2 =  5.050E-08

      iter #   4 total cpu time :   875.9 secs   av.it.:   7.8
      thresh= 2.247E-05 alpha_mix =  0.700 |ddv_scf|^2 =  2.076E-10

      iter #   5 total cpu time :   881.0 secs   av.it.:   6.8
      thresh= 1.441E-06 alpha_mix =  0.700 |ddv_scf|^2 =  2.944E-12

      iter #   6 total cpu time :   886.2 secs   av.it.:   6.8
      thresh= 1.716E-07 alpha_mix =  0.700 |ddv_scf|^2 =  1.426E-14

     End of self-consistent calculation

     Convergence has been achieved 

     Number of q in the star =    6
     List of q in the star:
          1   0.000000000   0.500000000  -0.500000000
          2  -0.500000000   0.500000000   0.000000000
          3   0.500000000   0.000000000   0.500000000
          4   0.500000000   0.000000000  -0.500000000
          5   0.000000000   0.500000000   0.500000000
          6   0.500000000   0.500000000   0.000000000

     Diagonalizing the dynamical matrix

     q = (    0.000000000   0.500000000  -0.500000000 ) 

 **************************************************************************
     freq (    1) =       0.256947 [THz] =       8.570828 [cm-1]
     freq (    2) =       2.148662 [THz] =      71.671641 [cm-1]
     freq (    3) =       3.342562 [THz] =     111.495870 [cm-1]
 **************************************************************************

     Mode symmetry, D_2h (mmm)  point group:

     freq (  1 -  1) =          8.6  [cm-1]   --> B_2u               
     freq (  2 -  2) =         71.7  [cm-1]   --> B_1u               
     freq (  3 -  3) =        111.5  [cm-1]   --> B_3u               

     Calculation of q =   -0.1250000  -0.1250000   0.2500000

   Info: using nr1, nr2, nr3 values from input

   Info: using nr1, nr2, nr3 values from input

     Parallelization info
     --------------------
     sticks:   dense  smooth     PW     G-vecs:    dense   smooth      PW
     Min         305     154     51                 6736     2399     466
     Max         306     155     52                 6737     2400     467
     Sum        1223     619    205                26947     9597    1865



     bravais-lattice index     =            3
     lattice parameter (alat)  =       8.2356  a.u.
     unit-cell volume          =     279.2936 (a.u.)^3
     number of atoms/cell      =            1
     number of atomic types    =            1
     number of electrons       =         9.00
     number of Kohn-Sham states=            9
     kinetic-energy cutoff     =      40.0000  Ry
     charge density cutoff     =     320.0000  Ry
     Exchange-correlation      = SLA  PW   PBE  PBE ( 1  4  3  4 0 0)

     celldm(1)=   8.235633  celldm(2)=   0.000000  celldm(3)=   0.000000
     celldm(4)=   0.000000  celldm(5)=   0.000000  celldm(6)=   0.000000

     crystal axes: (cart. coord. in units of alat)
               a(1) = (   0.500000   0.500000   0.500000 )  
               a(2) = (  -0.500000   0.500000   0.500000 )  
               a(3) = (  -0.500000  -0.500000   0.500000 )  

     reciprocal axes: (cart. coord. in units 2 pi/alat)
               b(1) = (  1.000000  0.000000  1.000000 )  
               b(2) = ( -1.000000  1.000000  0.000000 )  
               b(3) = (  0.000000 -1.000000  1.000000 )  


     PseudoPot. # 1 for Na read from file:
     /home/s1333534/quantum_espresso/qe-6.1/pseudo/Na_pbe_v1.uspp.F.UPF
     MD5 check sum: 76a99c7e9422403d3e93cbc85ab7bccb
     Pseudo is Ultrasoft, Zval =  9.0
     Generated by new atomic code, or converted to UPF format
     Using radial grid of  819 points,  5 beta functions with: 
                l(1) =   0
                l(2) =   0
                l(3) =   1
                l(4) =   1
                l(5) =   2
     Q(r) pseudized with  8 coefficients,  rinner =    1.250   1.250   1.250
                                                       1.250   1.250

     atomic species   valence    mass     pseudopotential
        Na             9.00    22.99000     Na( 1.00)

     48 Sym. Ops., with inversion, found



   Cartesian axes

     site n.     atom                  positions (alat units)
         1           Na  tau(   1) = (   0.0000000   0.0000000   0.0000000  )

     number of k points=  2940  Marzari-Vanderbilt smearing, width (Ry)=  0.0200

     Number of k-points >= 100: set verbosity='high' to print them.

     Dense  grid:    26947 G-vectors     FFT dimensions: (  45,  45,  45)

     Smooth grid:     9597 G-vectors     FFT dimensions: (  30,  30,  30)

     Estimated max dynamical RAM per process >       2.87MB

     Estimated total allocated dynamical RAM >      11.48MB

     The potential is recalculated from file :
     ./_ph0/na.bcc.save/charge-density.dat

     Starting wfc are    5 atomic +    4 random wfc

     Band Structure Calculation
     Davidson diagonalization with overlap

     ethr =  1.11E-10,  avg # of iterations = 23.3

     total cpu time spent up to now is      332.0 secs

     End of band structure calculation

     Number of k-points >= 100: set verbosity='high' to print the bands.

     the Fermi energy is     1.1809 ev

     Writing output data file na.bcc.save

                                                                                

     bravais-lattice index     =            3
     lattice parameter (alat)  =       8.2356  a.u.
     unit-cell volume          =     279.2936 (a.u.)^3
     number of atoms/cell      =            1
     number of atomic types    =            1
     kinetic-energy cut-off    =      40.0000  Ry
     charge density cut-off    =     320.0000  Ry
     convergence threshold     =      1.0E-12
     beta                      =       0.7000
     number of iterations used =            4
     Exchange-correlation      = SLA  PW   PBE  PBE ( 1  4  3  4 0 0)


     celldm(1)=    8.23563  celldm(2)=    0.00000  celldm(3)=    0.00000
     celldm(4)=    0.00000  celldm(5)=    0.00000  celldm(6)=    0.00000

     crystal axes: (cart. coord. in units of alat)
               a(1) = (  0.5000  0.5000  0.5000 )  
               a(2) = ( -0.5000  0.5000  0.5000 )  
               a(3) = ( -0.5000 -0.5000  0.5000 )  

     reciprocal axes: (cart. coord. in units 2 pi/alat)
               b(1) = (  1.0000  0.0000  1.0000 )  
               b(2) = ( -1.0000  1.0000  0.0000 )  
               b(3) = (  0.0000 -1.0000  1.0000 )  


     Atoms inside the unit cell: 

     Cartesian axes

     site n.  atom      mass           positions (alat units)
        1     Na  22.9900   tau(    1) = (    0.00000    0.00000    0.00000  )

     Computing dynamical matrix for 
                    q = (  -0.1250000  -0.1250000   0.2500000 )

      2 Sym.Ops. (no q -> -q+G )


     G cutoff =  549.7740  (   6737 G-vectors)     FFT grid: ( 45, 45, 45)
     G cutoff =  274.8870  (   2400 G-vectors)  smooth grid: ( 30, 30, 30)

     number of k points=  2940  Marzari-Vanderbilt smearing, width (Ry)=  0.0200

     PseudoPot. # 1 for Na read from file:
     /home/s1333534/quantum_espresso/qe-6.1/pseudo/Na_pbe_v1.uspp.F.UPF
     MD5 check sum: 76a99c7e9422403d3e93cbc85ab7bccb
     Pseudo is Ultrasoft, Zval =  9.0
     Generated by new atomic code, or converted to UPF format
     Using radial grid of  819 points,  5 beta functions with: 
                l(1) =   0
                l(2) =   0
                l(3) =   1
                l(4) =   1
                l(5) =   2
     Q(r) pseudized with  8 coefficients,  rinner =    1.250   1.250   1.250
                                                       1.250   1.250

     Mode symmetry, C_s (m)     point group:


     Atomic displacements:
     There are   3 irreducible representations

     Representation     1      1 modes -A'  To be done

     Representation     2      1 modes -A'  To be done

     Representation     3      1 modes -A''  To be done



     Alpha used in Ewald sum =   2.8000
     PHONON       : 15m51.23s CPU    16m49.30s WALL



     Representation #  1 mode #   1

     Self-consistent Calculation

      iter #   1 total cpu time :  1026.7 secs   av.it.:   5.6
      thresh= 1.000E-02 alpha_mix =  0.700 |ddv_scf|^2 =  3.810E-04

      iter #   2 total cpu time :  1044.6 secs   av.it.:   7.0
      thresh= 1.952E-03 alpha_mix =  0.700 |ddv_scf|^2 =  1.811E-02

      iter #   3 total cpu time :  1058.8 secs   av.it.:   4.7
      thresh= 1.000E-02 alpha_mix =  0.700 |ddv_scf|^2 =  1.487E-07

      iter #   4 total cpu time :  1079.2 secs   av.it.:   8.4
      thresh= 3.856E-05 alpha_mix =  0.700 |ddv_scf|^2 =  5.921E-09

      iter #   5 total cpu time :  1099.1 secs   av.it.:   7.9
      thresh= 7.695E-06 alpha_mix =  0.700 |ddv_scf|^2 =  3.396E-10

      iter #   6 total cpu time :  1119.1 secs   av.it.:   7.8
      thresh= 1.843E-06 alpha_mix =  0.700 |ddv_scf|^2 =  8.208E-12

      iter #   7 total cpu time :  1139.3 secs   av.it.:   8.3
      thresh= 2.865E-07 alpha_mix =  0.700 |ddv_scf|^2 =  5.708E-11

      iter #   8 total cpu time :  1156.4 secs   av.it.:   6.6
      thresh= 7.555E-07 alpha_mix =  0.700 |ddv_scf|^2 =  6.420E-12

      iter #   9 total cpu time :  1174.6 secs   av.it.:   7.2
      thresh= 2.534E-07 alpha_mix =  0.700 |ddv_scf|^2 =  1.968E-12

      iter #  10 total cpu time :  1192.9 secs   av.it.:   7.0
      thresh= 1.403E-07 alpha_mix =  0.700 |ddv_scf|^2 =  1.953E-14

     End of self-consistent calculation

     Convergence has been achieved 


     Representation #  2 mode #   2

     Self-consistent Calculation

      iter #   1 total cpu time :  1211.3 secs   av.it.:   5.7
      thresh= 1.000E-02 alpha_mix =  0.700 |ddv_scf|^2 =  3.380E-03

      iter #   2 total cpu time :  1228.2 secs   av.it.:   6.3
      thresh= 5.814E-03 alpha_mix =  0.700 |ddv_scf|^2 =  1.634E-01

      iter #   3 total cpu time :  1243.8 secs   av.it.:   5.8
      thresh= 1.000E-02 alpha_mix =  0.700 |ddv_scf|^2 =  1.447E-06

      iter #   4 total cpu time :  1263.1 secs   av.it.:   7.6
      thresh= 1.203E-04 alpha_mix =  0.700 |ddv_scf|^2 =  1.196E-08

      iter #   5 total cpu time :  1283.6 secs   av.it.:   8.2
      thresh= 1.094E-05 alpha_mix =  0.700 |ddv_scf|^2 =  1.342E-09

      iter #   6 total cpu time :  1303.2 secs   av.it.:   8.0
      thresh= 3.663E-06 alpha_mix =  0.700 |ddv_scf|^2 =  2.170E-11

      iter #   7 total cpu time :  1324.1 secs   av.it.:   8.6
      thresh= 4.658E-07 alpha_mix =  0.700 |ddv_scf|^2 =  2.860E-11

      iter #   8 total cpu time :  1339.0 secs   av.it.:   5.5
      thresh= 5.348E-07 alpha_mix =  0.700 |ddv_scf|^2 =  9.002E-12

      iter #   9 total cpu time :  1356.7 secs   av.it.:   6.7
      thresh= 3.000E-07 alpha_mix =  0.700 |ddv_scf|^2 =  1.326E-13

     End of self-consistent calculation

     Convergence has been achieved 


     Representation #  3 mode #   3

     Self-consistent Calculation

      iter #   1 total cpu time :  1374.1 secs   av.it.:   5.5
      thresh= 1.000E-02 alpha_mix =  0.700 |ddv_scf|^2 =  7.914E-06

      iter #   2 total cpu time :  1394.1 secs   av.it.:   7.8
      thresh= 2.813E-04 alpha_mix =  0.700 |ddv_scf|^2 =  1.298E-07

      iter #   3 total cpu time :  1413.8 secs   av.it.:   8.0
      thresh= 3.603E-05 alpha_mix =  0.700 |ddv_scf|^2 =  5.607E-09

      iter #   4 total cpu time :  1433.1 secs   av.it.:   7.6
      thresh= 7.488E-06 alpha_mix =  0.700 |ddv_scf|^2 =  2.600E-11

      iter #   5 total cpu time :  1453.1 secs   av.it.:   7.9
      thresh= 5.099E-07 alpha_mix =  0.700 |ddv_scf|^2 =  2.694E-14

     End of self-consistent calculation

     Convergence has been achieved 

     Number of q in the star =   24
     List of q in the star:
          1  -0.125000000  -0.125000000   0.250000000
          2  -0.125000000  -0.250000000   0.125000000
          3   0.125000000  -0.250000000   0.125000000
          4  -0.125000000   0.125000000  -0.250000000
          5  -0.125000000   0.250000000  -0.125000000
          6   0.125000000   0.125000000  -0.250000000
          7   0.125000000   0.250000000  -0.125000000
          8   0.125000000  -0.250000000  -0.125000000
          9  -0.250000000   0.125000000  -0.125000000
         10   0.250000000   0.125000000   0.125000000
         11   0.125000000   0.125000000   0.250000000
         12  -0.250000000  -0.125000000   0.125000000
         13   0.250000000  -0.125000000  -0.125000000
         14   0.125000000  -0.125000000  -0.250000000
         15   0.125000000  -0.125000000   0.250000000
         16   0.125000000   0.250000000   0.125000000
         17  -0.125000000  -0.125000000  -0.250000000
         18  -0.125000000   0.125000000   0.250000000
         19  -0.125000000   0.250000000   0.125000000
         20  -0.125000000  -0.250000000  -0.125000000
         21   0.250000000   0.125000000  -0.125000000
         22  -0.250000000   0.125000000   0.125000000
         23   0.250000000  -0.125000000   0.125000000
         24  -0.250000000  -0.125000000  -0.125000000

     Diagonalizing the dynamical matrix

     q = (   -0.125000000  -0.125000000   0.250000000 ) 

 **************************************************************************
     freq (    1) =       1.200861 [THz] =      40.056416 [cm-1]
     freq (    2) =       1.216791 [THz] =      40.587791 [cm-1]
     freq (    3) =       2.375160 [THz] =      79.226802 [cm-1]
 **************************************************************************

     Mode symmetry, C_s (m)     point group:

     freq (  1 -  1) =         40.1  [cm-1]   --> A''                
     freq (  2 -  2) =         40.6  [cm-1]   --> A'                 
     freq (  3 -  3) =         79.2  [cm-1]   --> A'                 

     Calculation of q =   -0.1250000  -0.2500000   0.3750000

   Info: using nr1, nr2, nr3 values from input

   Info: using nr1, nr2, nr3 values from input

     Parallelization info
     --------------------
     sticks:   dense  smooth     PW     G-vecs:    dense   smooth      PW
     Min         305     154     53                 6736     2399     490
     Max         306     155     54                 6737     2400     491
     Sum        1223     619    213                26947     9597    1961



     bravais-lattice index     =            3
     lattice parameter (alat)  =       8.2356  a.u.
     unit-cell volume          =     279.2936 (a.u.)^3
     number of atoms/cell      =            1
     number of atomic types    =            1
     number of electrons       =         9.00
     number of Kohn-Sham states=            9
     kinetic-energy cutoff     =      40.0000  Ry
     charge density cutoff     =     320.0000  Ry
     Exchange-correlation      = SLA  PW   PBE  PBE ( 1  4  3  4 0 0)

     celldm(1)=   8.235633  celldm(2)=   0.000000  celldm(3)=   0.000000
     celldm(4)=   0.000000  celldm(5)=   0.000000  celldm(6)=   0.000000

     crystal axes: (cart. coord. in units of alat)
               a(1) = (   0.500000   0.500000   0.500000 )  
               a(2) = (  -0.500000   0.500000   0.500000 )  
               a(3) = (  -0.500000  -0.500000   0.500000 )  

     reciprocal axes: (cart. coord. in units 2 pi/alat)
               b(1) = (  1.000000  0.000000  1.000000 )  
               b(2) = ( -1.000000  1.000000  0.000000 )  
               b(3) = (  0.000000 -1.000000  1.000000 )  


     PseudoPot. # 1 for Na read from file:
     /home/s1333534/quantum_espresso/qe-6.1/pseudo/Na_pbe_v1.uspp.F.UPF
     MD5 check sum: 76a99c7e9422403d3e93cbc85ab7bccb
     Pseudo is Ultrasoft, Zval =  9.0
     Generated by new atomic code, or converted to UPF format
     Using radial grid of  819 points,  5 beta functions with: 
                l(1) =   0
                l(2) =   0
                l(3) =   1
                l(4) =   1
                l(5) =   2
     Q(r) pseudized with  8 coefficients,  rinner =    1.250   1.250   1.250
                                                       1.250   1.250

     atomic species   valence    mass     pseudopotential
        Na             9.00    22.99000     Na( 1.00)

     48 Sym. Ops., with inversion, found



   Cartesian axes

     site n.     atom                  positions (alat units)
         1           Na  tau(   1) = (   0.0000000   0.0000000   0.0000000  )

     number of k points=  5488  Marzari-Vanderbilt smearing, width (Ry)=  0.0200

     Number of k-points >= 100: set verbosity='high' to print them.

     Dense  grid:    26947 G-vectors     FFT dimensions: (  45,  45,  45)

     Smooth grid:     9597 G-vectors     FFT dimensions: (  30,  30,  30)

     Estimated max dynamical RAM per process >       2.87MB

     Estimated total allocated dynamical RAM >      11.48MB

     The potential is recalculated from file :
     ./_ph0/na.bcc.save/charge-density.dat

     Starting wfc are    5 atomic +    4 random wfc

     Band Structure Calculation
     Davidson diagonalization with overlap

     ethr =  1.11E-10,  avg # of iterations = 23.1

     total cpu time spent up to now is      543.7 secs

     End of band structure calculation

     Number of k-points >= 100: set verbosity='high' to print the bands.

     the Fermi energy is     1.1809 ev

     Writing output data file na.bcc.save

                                                                                

     bravais-lattice index     =            3
     lattice parameter (alat)  =       8.2356  a.u.
     unit-cell volume          =     279.2936 (a.u.)^3
     number of atoms/cell      =            1
     number of atomic types    =            1
     kinetic-energy cut-off    =      40.0000  Ry
     charge density cut-off    =     320.0000  Ry
     convergence threshold     =      1.0E-12
     beta                      =       0.7000
     number of iterations used =            4
     Exchange-correlation      = SLA  PW   PBE  PBE ( 1  4  3  4 0 0)


     celldm(1)=    8.23563  celldm(2)=    0.00000  celldm(3)=    0.00000
     celldm(4)=    0.00000  celldm(5)=    0.00000  celldm(6)=    0.00000

     crystal axes: (cart. coord. in units of alat)
               a(1) = (  0.5000  0.5000  0.5000 )  
               a(2) = ( -0.5000  0.5000  0.5000 )  
               a(3) = ( -0.5000 -0.5000  0.5000 )  

     reciprocal axes: (cart. coord. in units 2 pi/alat)
               b(1) = (  1.0000  0.0000  1.0000 )  
               b(2) = ( -1.0000  1.0000  0.0000 )  
               b(3) = (  0.0000 -1.0000  1.0000 )  


     Atoms inside the unit cell: 

     Cartesian axes

     site n.  atom      mass           positions (alat units)
        1     Na  22.9900   tau(    1) = (    0.00000    0.00000    0.00000  )

     Computing dynamical matrix for 
                    q = (  -0.1250000  -0.2500000   0.3750000 )

     No symmetry!

     G cutoff =  549.7740  (   6737 G-vectors)     FFT grid: ( 45, 45, 45)
     G cutoff =  274.8870  (   2400 G-vectors)  smooth grid: ( 30, 30, 30)

     number of k points=  5488  Marzari-Vanderbilt smearing, width (Ry)=  0.0200

     PseudoPot. # 1 for Na read from file:
     /home/s1333534/quantum_espresso/qe-6.1/pseudo/Na_pbe_v1.uspp.F.UPF
     MD5 check sum: 76a99c7e9422403d3e93cbc85ab7bccb
     Pseudo is Ultrasoft, Zval =  9.0
     Generated by new atomic code, or converted to UPF format
     Using radial grid of  819 points,  5 beta functions with: 
                l(1) =   0
                l(2) =   0
                l(3) =   1
                l(4) =   1
                l(5) =   2
     Q(r) pseudized with  8 coefficients,  rinner =    1.250   1.250   1.250
                                                       1.250   1.250

     Mode symmetry, C_1 (1)     point group:


     Atomic displacements:
     There are   3 irreducible representations

     Representation     1      1 modes -A  To be done

     Representation     2      1 modes -A  To be done

     Representation     3      1 modes -A  To be done



     Alpha used in Ewald sum =   2.8000
     PHONON       : 26m22.67s CPU    28m 0.89s WALL



     Representation #  1 mode #   1

     Self-consistent Calculation

      iter #   1 total cpu time :  1714.2 secs   av.it.:   5.7
      thresh= 1.000E-02 alpha_mix =  0.700 |ddv_scf|^2 =  1.186E-05

      iter #   2 total cpu time :  1752.2 secs   av.it.:   8.1
      thresh= 3.444E-04 alpha_mix =  0.700 |ddv_scf|^2 =  2.538E-05

      iter #   3 total cpu time :  1784.1 secs   av.it.:   6.3
      thresh= 5.038E-04 alpha_mix =  0.700 |ddv_scf|^2 =  2.595E-06

      iter #   4 total cpu time :  1819.4 secs   av.it.:   7.3
      thresh= 1.611E-04 alpha_mix =  0.700 |ddv_scf|^2 =  3.776E-09

      iter #   5 total cpu time :  1857.4 secs   av.it.:   8.1
      thresh= 6.145E-06 alpha_mix =  0.700 |ddv_scf|^2 =  8.641E-11

      iter #   6 total cpu time :  1896.2 secs   av.it.:   8.3
      thresh= 9.296E-07 alpha_mix =  0.700 |ddv_scf|^2 =  3.202E-12

      iter #   7 total cpu time :  1937.0 secs   av.it.:   8.8
      thresh= 1.789E-07 alpha_mix =  0.700 |ddv_scf|^2 =  5.075E-13

     End of self-consistent calculation

     Convergence has been achieved 


     Representation #  2 mode #   2

     Self-consistent Calculation

      iter #   1 total cpu time :  1971.2 secs   av.it.:   5.8
      thresh= 1.000E-02 alpha_mix =  0.700 |ddv_scf|^2 =  1.634E-04

      iter #   2 total cpu time :  2006.4 secs   av.it.:   7.3
      thresh= 1.278E-03 alpha_mix =  0.700 |ddv_scf|^2 =  1.003E-03

      iter #   3 total cpu time :  2036.6 secs   av.it.:   5.9
      thresh= 3.167E-03 alpha_mix =  0.700 |ddv_scf|^2 =  1.291E-07

      iter #   4 total cpu time :  2075.6 secs   av.it.:   8.5
      thresh= 3.592E-05 alpha_mix =  0.700 |ddv_scf|^2 =  5.356E-09

      iter #   5 total cpu time :  2114.7 secs   av.it.:   8.4
      thresh= 7.318E-06 alpha_mix =  0.700 |ddv_scf|^2 =  2.673E-10

      iter #   6 total cpu time :  2154.0 secs   av.it.:   8.6
      thresh= 1.635E-06 alpha_mix =  0.700 |ddv_scf|^2 =  1.497E-11

      iter #   7 total cpu time :  2192.2 secs   av.it.:   8.3
      thresh= 3.869E-07 alpha_mix =  0.700 |ddv_scf|^2 =  9.328E-13

     End of self-consistent calculation

     Convergence has been achieved 


     Representation #  3 mode #   3

     Self-consistent Calculation

      iter #   1 total cpu time :  2226.9 secs   av.it.:   5.8
      thresh= 1.000E-02 alpha_mix =  0.700 |ddv_scf|^2 =  1.588E-04

      iter #   2 total cpu time :  2262.5 secs   av.it.:   7.3
      thresh= 1.260E-03 alpha_mix =  0.700 |ddv_scf|^2 =  9.647E-04

      iter #   3 total cpu time :  2292.5 secs   av.it.:   5.9
      thresh= 3.106E-03 alpha_mix =  0.700 |ddv_scf|^2 =  1.131E-07

      iter #   4 total cpu time :  2331.7 secs   av.it.:   8.4
      thresh= 3.363E-05 alpha_mix =  0.700 |ddv_scf|^2 =  5.522E-09

      iter #   5 total cpu time :  2370.6 secs   av.it.:   8.4
      thresh= 7.431E-06 alpha_mix =  0.700 |ddv_scf|^2 =  2.021E-10

      iter #   6 total cpu time :  2409.9 secs   av.it.:   8.6
      thresh= 1.422E-06 alpha_mix =  0.700 |ddv_scf|^2 =  1.545E-11

      iter #   7 total cpu time :  2449.0 secs   av.it.:   8.3
      thresh= 3.931E-07 alpha_mix =  0.700 |ddv_scf|^2 =  3.504E-13

     End of self-consistent calculation

     Convergence has been achieved 

     Number of q in the star =   48
     List of q in the star:
          1  -0.125000000  -0.250000000   0.375000000
          2  -0.250000000  -0.125000000   0.375000000
          3  -0.125000000  -0.375000000   0.250000000
          4   0.125000000  -0.375000000   0.250000000
          5  -0.125000000   0.250000000  -0.375000000
          6  -0.125000000   0.375000000  -0.250000000
          7   0.125000000   0.250000000  -0.375000000
          8   0.125000000   0.375000000  -0.250000000
          9   0.250000000  -0.375000000  -0.125000000
         10  -0.375000000   0.125000000  -0.250000000
         11   0.375000000   0.125000000   0.250000000
         12   0.250000000   0.125000000   0.375000000
         13  -0.375000000  -0.125000000   0.250000000
         14   0.375000000  -0.125000000  -0.250000000
         15   0.125000000  -0.250000000  -0.375000000
         16   0.250000000  -0.125000000  -0.375000000
         17  -0.250000000   0.125000000  -0.375000000
         18  -0.375000000  -0.250000000   0.125000000
         19  -0.375000000   0.250000000  -0.125000000
         20   0.375000000   0.250000000   0.125000000
         21   0.250000000  -0.125000000   0.375000000
         22  -0.250000000   0.375000000  -0.125000000
         23   0.125000000  -0.375000000  -0.250000000
         24   0.125000000   0.375000000   0.250000000
         25   0.250000000   0.125000000  -0.375000000
         26  -0.125000000  -0.250000000  -0.375000000
         27  -0.250000000   0.125000000   0.375000000
         28  -0.125000000   0.375000000   0.250000000
         29  -0.125000000   0.250000000   0.375000000
         30   0.125000000  -0.250000000   0.375000000
         31  -0.125000000  -0.375000000  -0.250000000
         32   0.125000000   0.250000000   0.375000000
         33   0.375000000  -0.250000000  -0.125000000
         34   0.250000000   0.375000000   0.125000000
         35  -0.250000000  -0.375000000   0.125000000
         36   0.375000000   0.250000000  -0.125000000
         37  -0.375000000   0.250000000   0.125000000
         38   0.375000000  -0.250000000   0.125000000
         39  -0.375000000  -0.250000000  -0.125000000
         40  -0.250000000  -0.125000000  -0.375000000
         41   0.250000000  -0.375000000   0.125000000
         42  -0.250000000  -0.375000000  -0.125000000
         43   0.250000000   0.375000000  -0.125000000
         44  -0.250000000   0.375000000   0.125000000
         45  -0.375000000   0.125000000   0.250000000
         46  -0.375000000  -0.125000000  -0.250000000
         47   0.375000000  -0.125000000   0.250000000
         48   0.375000000   0.125000000  -0.250000000

     Diagonalizing the dynamical matrix

     q = (   -0.125000000  -0.250000000   0.375000000 ) 

 **************************************************************************
     freq (    1) =       1.827335 [THz] =      60.953320 [cm-1]
     freq (    2) =       2.352478 [THz] =      78.470222 [cm-1]
     freq (    3) =       3.490001 [THz] =     116.413905 [cm-1]
 **************************************************************************

     Mode symmetry, C_1 (1)     point group:

     freq (  1 -  1) =         61.0  [cm-1]   --> A                  
     freq (  2 -  2) =         78.5  [cm-1]   --> A                  
     freq (  3 -  3) =        116.4  [cm-1]   --> A                  

     Calculation of q =   -0.1250000   0.6250000  -0.5000000

   Info: using nr1, nr2, nr3 values from input

   Info: using nr1, nr2, nr3 values from input

     Parallelization info
     --------------------
     sticks:   dense  smooth     PW     G-vecs:    dense   smooth      PW
     Min         305     154     55                 6736     2399     530
     Max         306     155     56                 6737     2400     531
     Sum        1223     619    221                26947     9597    2123



     bravais-lattice index     =            3
     lattice parameter (alat)  =       8.2356  a.u.
     unit-cell volume          =     279.2936 (a.u.)^3
     number of atoms/cell      =            1
     number of atomic types    =            1
     number of electrons       =         9.00
     number of Kohn-Sham states=            9
     kinetic-energy cutoff     =      40.0000  Ry
     charge density cutoff     =     320.0000  Ry
     Exchange-correlation      = SLA  PW   PBE  PBE ( 1  4  3  4 0 0)

     celldm(1)=   8.235633  celldm(2)=   0.000000  celldm(3)=   0.000000
     celldm(4)=   0.000000  celldm(5)=   0.000000  celldm(6)=   0.000000

     crystal axes: (cart. coord. in units of alat)
               a(1) = (   0.500000   0.500000   0.500000 )  
               a(2) = (  -0.500000   0.500000   0.500000 )  
               a(3) = (  -0.500000  -0.500000   0.500000 )  

     reciprocal axes: (cart. coord. in units 2 pi/alat)
               b(1) = (  1.000000  0.000000  1.000000 )  
               b(2) = ( -1.000000  1.000000  0.000000 )  
               b(3) = (  0.000000 -1.000000  1.000000 )  


     PseudoPot. # 1 for Na read from file:
     /home/s1333534/quantum_espresso/qe-6.1/pseudo/Na_pbe_v1.uspp.F.UPF
     MD5 check sum: 76a99c7e9422403d3e93cbc85ab7bccb
     Pseudo is Ultrasoft, Zval =  9.0
     Generated by new atomic code, or converted to UPF format
     Using radial grid of  819 points,  5 beta functions with: 
                l(1) =   0
                l(2) =   0
                l(3) =   1
                l(4) =   1
                l(5) =   2
     Q(r) pseudized with  8 coefficients,  rinner =    1.250   1.250   1.250
                                                       1.250   1.250

     atomic species   valence    mass     pseudopotential
        Na             9.00    22.99000     Na( 1.00)

     48 Sym. Ops., with inversion, found



   Cartesian axes

     site n.     atom                  positions (alat units)
         1           Na  tau(   1) = (   0.0000000   0.0000000   0.0000000  )

     number of k points=  5488  Marzari-Vanderbilt smearing, width (Ry)=  0.0200

     Number of k-points >= 100: set verbosity='high' to print them.

     Dense  grid:    26947 G-vectors     FFT dimensions: (  45,  45,  45)

     Smooth grid:     9597 G-vectors     FFT dimensions: (  30,  30,  30)

     Estimated max dynamical RAM per process >       2.87MB

     Estimated total allocated dynamical RAM >      11.48MB

     The potential is recalculated from file :
     ./_ph0/na.bcc.save/charge-density.dat

     Starting wfc are    5 atomic +    4 random wfc

     Band Structure Calculation
     Davidson diagonalization with overlap

     ethr =  1.11E-10,  avg # of iterations = 23.1

     total cpu time spent up to now is      757.7 secs

     End of band structure calculation

     Number of k-points >= 100: set verbosity='high' to print the bands.

     the Fermi energy is     1.1809 ev

     Writing output data file na.bcc.save

                                                                                

     bravais-lattice index     =            3
     lattice parameter (alat)  =       8.2356  a.u.
     unit-cell volume          =     279.2936 (a.u.)^3
     number of atoms/cell      =            1
     number of atomic types    =            1
     kinetic-energy cut-off    =      40.0000  Ry
     charge density cut-off    =     320.0000  Ry
     convergence threshold     =      1.0E-12
     beta                      =       0.7000
     number of iterations used =            4
     Exchange-correlation      = SLA  PW   PBE  PBE ( 1  4  3  4 0 0)


     celldm(1)=    8.23563  celldm(2)=    0.00000  celldm(3)=    0.00000
     celldm(4)=    0.00000  celldm(5)=    0.00000  celldm(6)=    0.00000

     crystal axes: (cart. coord. in units of alat)
               a(1) = (  0.5000  0.5000  0.5000 )  
               a(2) = ( -0.5000  0.5000  0.5000 )  
               a(3) = ( -0.5000 -0.5000  0.5000 )  

     reciprocal axes: (cart. coord. in units 2 pi/alat)
               b(1) = (  1.0000  0.0000  1.0000 )  
               b(2) = ( -1.0000  1.0000  0.0000 )  
               b(3) = (  0.0000 -1.0000  1.0000 )  


     Atoms inside the unit cell: 

     Cartesian axes

     site n.  atom      mass           positions (alat units)
        1     Na  22.9900   tau(    1) = (    0.00000    0.00000    0.00000  )

     Computing dynamical matrix for 
                    q = (  -0.1250000   0.6250000  -0.5000000 )

     No symmetry!

     G cutoff =  549.7740  (   6737 G-vectors)     FFT grid: ( 45, 45, 45)
     G cutoff =  274.8870  (   2400 G-vectors)  smooth grid: ( 30, 30, 30)

     number of k points=  5488  Marzari-Vanderbilt smearing, width (Ry)=  0.0200

[...]
     Exchange-correlation      = SLA  PW   PBE  PBE ( 1  4  3  4 0 0)


     celldm(1)=    8.23563  celldm(2)=    0.00000  celldm(3)=    0.00000
     celldm(4)=    0.00000  celldm(5)=    0.00000  celldm(6)=    0.00000

     crystal axes: (cart. coord. in units of alat)
               a(1) = (  0.5000  0.5000  0.5000 )  
               a(2) = ( -0.5000  0.5000  0.5000 )  
               a(3) = ( -0.5000 -0.5000  0.5000 )  

     reciprocal axes: (cart. coord. in units 2 pi/alat)
               b(1) = (  1.0000  0.0000  1.0000 )  
               b(2) = ( -1.0000  1.0000  0.0000 )  
               b(3) = (  0.0000 -1.0000  1.0000 )  


     Atoms inside the unit cell: 

     Cartesian axes

     site n.  atom      mass           positions (alat units)
        1     Na  22.9900   tau(    1) = (    0.00000    0.00000    0.00000  )

     Computing dynamical matrix for 
                    q = (   0.0000000   0.8750000  -0.1250000 )

      4 Sym.Ops. (no q -> -q+G )


     G cutoff =  549.7740  (   6737 G-vectors)     FFT grid: ( 45, 45, 45)
     G cutoff =  274.8870  (   2400 G-vectors)  smooth grid: ( 30, 30, 30)

     number of k points=  1568  Marzari-Vanderbilt smearing, width (Ry)=  0.0200

     PseudoPot. # 1 for Na read from file:
     /home/s1333534/quantum_espresso/qe-6.1/pseudo/Na_pbe_v1.uspp.F.UPF
     MD5 check sum: 76a99c7e9422403d3e93cbc85ab7bccb
     Pseudo is Ultrasoft, Zval =  9.0
     Generated by new atomic code, or converted to UPF format
     Using radial grid of  819 points,  5 beta functions with: 
                l(1) =   0
                l(2) =   0
                l(3) =   1
                l(4) =   1
                l(5) =   2
     Q(r) pseudized with  8 coefficients,  rinner =    1.250   1.250   1.250
                                                       1.250   1.250

     Mode symmetry, C_2v (mm2)  point group:


     Atomic displacements:
     There are   3 irreducible representations

     Representation     1      1 modes -A_1  D_1  S_1  To be done

     Representation     2      1 modes -B_1  D_3  S_3  To be done

     Representation     3      1 modes -B_2  D_4  S_4  To be done



     Alpha used in Ewald sum =   2.8000
     PHONON       :     2h46m CPU        2h57m WALL



     Representation #  1 mode #   1

     Self-consistent Calculation

      iter #   1 total cpu time : 10669.6 secs   av.it.:   5.6
      thresh= 1.000E-02 alpha_mix =  0.700 |ddv_scf|^2 =  1.391E-05

      iter #   2 total cpu time : 10680.9 secs   av.it.:   7.9
      thresh= 3.729E-04 alpha_mix =  0.700 |ddv_scf|^2 =  4.899E-07

      iter #   3 total cpu time : 10691.5 secs   av.it.:   7.8
      thresh= 6.999E-05 alpha_mix =  0.700 |ddv_scf|^2 =  1.666E-08

      iter #   4 total cpu time : 10702.7 secs   av.it.:   8.2
      thresh= 1.291E-05 alpha_mix =  0.700 |ddv_scf|^2 =  9.032E-10

      iter #   5 total cpu time : 10713.6 secs   av.it.:   8.2
      thresh= 3.005E-06 alpha_mix =  0.700 |ddv_scf|^2 =  5.509E-11

      iter #   6 total cpu time : 10724.4 secs   av.it.:   8.1
      thresh= 7.422E-07 alpha_mix =  0.700 |ddv_scf|^2 =  6.594E-13

     End of self-consistent calculation

     Convergence has been achieved 


     Representation #  2 mode #   2

     Self-consistent Calculation

      iter #   1 total cpu time : 10734.2 secs   av.it.:   5.5
      thresh= 1.000E-02 alpha_mix =  0.700 |ddv_scf|^2 =  1.268E-05

      iter #   2 total cpu time : 10744.6 secs   av.it.:   7.7
      thresh= 3.561E-04 alpha_mix =  0.700 |ddv_scf|^2 =  1.860E-07

      iter #   3 total cpu time : 10755.1 secs   av.it.:   7.6
      thresh= 4.312E-05 alpha_mix =  0.700 |ddv_scf|^2 =  1.645E-08

      iter #   4 total cpu time : 10765.6 secs   av.it.:   7.7
      thresh= 1.282E-05 alpha_mix =  0.700 |ddv_scf|^2 =  7.087E-11

      iter #   5 total cpu time : 10776.0 secs   av.it.:   7.7
      thresh= 8.418E-07 alpha_mix =  0.700 |ddv_scf|^2 =  3.179E-14

     End of self-consistent calculation

     Convergence has been achieved 


     Representation #  3 mode #   3

     Self-consistent Calculation

      iter #   1 total cpu time : 10785.6 secs   av.it.:   5.6
      thresh= 1.000E-02 alpha_mix =  0.700 |ddv_scf|^2 =  1.712E-05

      iter #   2 total cpu time : 10796.1 secs   av.it.:   7.7
      thresh= 4.138E-04 alpha_mix =  0.700 |ddv_scf|^2 =  7.772E-07

      iter #   3 total cpu time : 10806.3 secs   av.it.:   7.4
      thresh= 8.816E-05 alpha_mix =  0.700 |ddv_scf|^2 =  1.954E-08

      iter #   4 total cpu time : 10816.7 secs   av.it.:   7.6
      thresh= 1.398E-05 alpha_mix =  0.700 |ddv_scf|^2 =  5.630E-10

      iter #   5 total cpu time : 10827.0 secs   av.it.:   7.4
      thresh= 2.373E-06 alpha_mix =  0.700 |ddv_scf|^2 =  1.578E-12

      iter #   6 total cpu time : 10837.7 secs   av.it.:   8.0
      thresh= 1.256E-07 alpha_mix =  0.700 |ddv_scf|^2 =  2.505E-15

     End of self-consistent calculation

     Convergence has been achieved 

     Number of q in the star =   12
     List of q in the star:
          1   0.000000000   0.875000000  -0.125000000
          2   0.000000000  -0.875000000  -0.125000000
          3   0.875000000   0.000000000  -0.125000000
          4  -0.875000000   0.000000000  -0.125000000
          5   0.125000000   0.000000000  -0.875000000
          6   0.125000000   0.875000000   0.000000000
          7   0.000000000   0.875000000   0.125000000
          8   0.875000000   0.000000000   0.125000000
          9   0.125000000  -0.875000000   0.000000000
         10  -0.125000000  -0.875000000   0.000000000
         11   0.875000000  -0.125000000   0.000000000
         12   0.000000000  -0.875000000   0.125000000

     Diagonalizing the dynamical matrix

     q = (    0.000000000   0.875000000  -0.125000000 ) 

 **************************************************************************
     freq (    1) =       3.095561 [THz] =     103.256803 [cm-1]
     freq (    2) =       3.318513 [THz] =     110.693670 [cm-1]
     freq (    3) =       3.820088 [THz] =     127.424414 [cm-1]
 **************************************************************************

     Mode symmetry, C_2v (mm2)  point group:

     freq (  1 -  1) =        103.3  [cm-1]   --> B_1  D_3  S_3      
     freq (  2 -  2) =        110.7  [cm-1]   --> B_2  D_4  S_4      
     freq (  3 -  3) =        127.4  [cm-1]   --> A_1  D_1  S_1      

     Calculation of q =    0.0000000   0.0000000  -1.0000000

   Info: using nr1, nr2, nr3 values from input

   Info: using nr1, nr2, nr3 values from input

     Parallelization info
     --------------------
     sticks:   dense  smooth     PW     G-vecs:    dense   smooth      PW
     Min         305     154     54                 6736     2399     522
     Max         306     155     55                 6737     2400     525
     Sum        1223     619    219                26947     9597    2093



     bravais-lattice index     =            3
     lattice parameter (alat)  =       8.2356  a.u.
     unit-cell volume          =     279.2936 (a.u.)^3
     number of atoms/cell      =            1
     number of atomic types    =            1
     number of electrons       =         9.00
     number of Kohn-Sham states=            9
     kinetic-energy cutoff     =      40.0000  Ry
     charge density cutoff     =     320.0000  Ry
     Exchange-correlation      = SLA  PW   PBE  PBE ( 1  4  3  4 0 0)

     celldm(1)=   8.235633  celldm(2)=   0.000000  celldm(3)=   0.000000
     celldm(4)=   0.000000  celldm(5)=   0.000000  celldm(6)=   0.000000

     crystal axes: (cart. coord. in units of alat)
               a(1) = (   0.500000   0.500000   0.500000 )  
               a(2) = (  -0.500000   0.500000   0.500000 )  
               a(3) = (  -0.500000  -0.500000   0.500000 )  

     reciprocal axes: (cart. coord. in units 2 pi/alat)
               b(1) = (  1.000000  0.000000  1.000000 )  
               b(2) = ( -1.000000  1.000000  0.000000 )  
               b(3) = (  0.000000 -1.000000  1.000000 )  


     PseudoPot. # 1 for Na read from file:
     /home/s1333534/quantum_espresso/qe-6.1/pseudo/Na_pbe_v1.uspp.F.UPF
     MD5 check sum: 76a99c7e9422403d3e93cbc85ab7bccb
     Pseudo is Ultrasoft, Zval =  9.0
     Generated by new atomic code, or converted to UPF format
     Using radial grid of  819 points,  5 beta functions with: 
                l(1) =   0
                l(2) =   0
                l(3) =   1
                l(4) =   1
                l(5) =   2
     Q(r) pseudized with  8 coefficients,  rinner =    1.250   1.250   1.250
                                                       1.250   1.250

     atomic species   valence    mass     pseudopotential
        Na             9.00    22.99000     Na( 1.00)

     48 Sym. Ops., with inversion, found



   Cartesian axes

     site n.     atom                  positions (alat units)
         1           Na  tau(   1) = (   0.0000000   0.0000000   0.0000000  )

     number of k points=   200  Marzari-Vanderbilt smearing, width (Ry)=  0.0200

     Number of k-points >= 100: set verbosity='high' to print them.

     Dense  grid:    26947 G-vectors     FFT dimensions: (  45,  45,  45)

     Smooth grid:     9597 G-vectors     FFT dimensions: (  30,  30,  30)

     Estimated max dynamical RAM per process >       2.87MB

     Estimated total allocated dynamical RAM >      11.48MB

     The potential is recalculated from file :
     ./_ph0/na.bcc.save/charge-density.dat

     Starting wfc are    5 atomic +    4 random wfc

     Band Structure Calculation
     Davidson diagonalization with overlap

     ethr =  1.11E-10,  avg # of iterations = 23.5

     total cpu time spent up to now is     2478.3 secs

     End of band structure calculation

     Number of k-points >= 100: set verbosity='high' to print the bands.

     the Fermi energy is     1.1809 ev

     Writing output data file na.bcc.save

                                                                                

     bravais-lattice index     =            3
     lattice parameter (alat)  =       8.2356  a.u.
     unit-cell volume          =     279.2936 (a.u.)^3
     number of atoms/cell      =            1
     number of atomic types    =            1
     kinetic-energy cut-off    =      40.0000  Ry
     charge density cut-off    =     320.0000  Ry
     convergence threshold     =      1.0E-12
     beta                      =       0.7000
     number of iterations used =            4
     Exchange-correlation      = SLA  PW   PBE  PBE ( 1  4  3  4 0 0)


     celldm(1)=    8.23563  celldm(2)=    0.00000  celldm(3)=    0.00000
     celldm(4)=    0.00000  celldm(5)=    0.00000  celldm(6)=    0.00000

     crystal axes: (cart. coord. in units of alat)
               a(1) = (  0.5000  0.5000  0.5000 )  
               a(2) = ( -0.5000  0.5000  0.5000 )  
               a(3) = ( -0.5000 -0.5000  0.5000 )  

     reciprocal axes: (cart. coord. in units 2 pi/alat)
               b(1) = (  1.0000  0.0000  1.0000 )  
               b(2) = ( -1.0000  1.0000  0.0000 )  
               b(3) = (  0.0000 -1.0000  1.0000 )  


     Atoms inside the unit cell: 

     Cartesian axes

     site n.  atom      mass           positions (alat units)
        1     Na  22.9900   tau(    1) = (    0.00000    0.00000    0.00000  )

     Computing dynamical matrix for 
                    q = (   0.0000000   0.0000000  -1.0000000 )

     49 Sym.Ops. (with q -> -q+G )


     G cutoff =  549.7740  (   6737 G-vectors)     FFT grid: ( 45, 45, 45)
     G cutoff =  274.8870  (   2400 G-vectors)  smooth grid: ( 30, 30, 30)

     number of k points=   200  Marzari-Vanderbilt smearing, width (Ry)=  0.0200

     PseudoPot. # 1 for Na read from file:
     /home/s1333534/quantum_espresso/qe-6.1/pseudo/Na_pbe_v1.uspp.F.UPF
     MD5 check sum: 76a99c7e9422403d3e93cbc85ab7bccb
     Pseudo is Ultrasoft, Zval =  9.0
     Generated by new atomic code, or converted to UPF format
     Using radial grid of  819 points,  5 beta functions with: 
                l(1) =   0
                l(2) =   0
                l(3) =   1
                l(4) =   1
                l(5) =   2
     Q(r) pseudized with  8 coefficients,  rinner =    1.250   1.250   1.250
                                                       1.250   1.250

     Mode symmetry, O_h (m-3m)  point group:


     Atomic displacements:
     There are   1 irreducible representations

     Representation     1      3 modes -T_1u G_15  G_4-  To be done



     Alpha used in Ewald sum =   2.8000
     PHONON       :     2h49m CPU        3h 0m WALL



     Representation #  1 modes #   1  2  3

     Self-consistent Calculation

      iter #   1 total cpu time : 10851.0 secs   av.it.:   5.7
      thresh= 1.000E-02 alpha_mix =  0.700 |ddv_scf|^2 =  1.499E-06

      iter #   2 total cpu time : 10855.8 secs   av.it.:   8.6
      thresh= 1.224E-04 alpha_mix =  0.700 |ddv_scf|^2 =  2.406E-08

      iter #   3 total cpu time : 10860.5 secs   av.it.:   8.3
      thresh= 1.551E-05 alpha_mix =  0.700 |ddv_scf|^2 =  1.942E-09

      iter #   4 total cpu time : 10865.3 secs   av.it.:   8.5
      thresh= 4.407E-06 alpha_mix =  0.700 |ddv_scf|^2 =  8.006E-12

      iter #   5 total cpu time : 10870.0 secs   av.it.:   8.4
      thresh= 2.830E-07 alpha_mix =  0.700 |ddv_scf|^2 =  2.756E-15

     End of self-consistent calculation

     Convergence has been achieved 

     Number of q in the star =    1
     List of q in the star:
          1   0.000000000   0.000000000  -1.000000000

     Diagonalizing the dynamical matrix

     q = (    0.000000000   0.000000000  -1.000000000 ) 

 **************************************************************************
     freq (    1) =       3.254219 [THz] =     108.549078 [cm-1]
     freq (    2) =       3.254219 [THz] =     108.549078 [cm-1]
     freq (    3) =       3.254219 [THz] =     108.549078 [cm-1]
 **************************************************************************

     Mode symmetry, O_h (m-3m)  point group:

     freq (  1 -  3) =        108.5  [cm-1]   --> T_1u G_15  G_4-    

     init_run     :      6.50s CPU      6.54s WALL (      28 calls)
     electrons    :   2308.08s CPU   2427.00s WALL (      28 calls)

     Called by init_run:
     wfcinit      :      0.00s CPU      0.00s WALL (      28 calls)
     potinit      :      0.64s CPU      0.66s WALL (      28 calls)

     Called by electrons:
     c_bands      :   2307.75s CPU   2426.68s WALL (      28 calls)
     v_of_rho     :      0.54s CPU      0.54s WALL (      29 calls)
     newd         :      0.48s CPU      0.48s WALL (      29 calls)

     Called by c_bands:
     init_us_2    :    112.97s CPU    110.90s WALL (  882834 calls)
     cegterg      :   2136.57s CPU   2241.46s WALL (  100391 calls)

     Called by sum_band:

     Called by *egterg:
     h_psi        :   7153.10s CPU   7568.68s WALL ( 7727222 calls)
     s_psi        :    144.60s CPU    174.04s WALL (14443011 calls)
     g_psi        :     12.57s CPU     15.39s WALL ( 1465011 calls)
     cdiaghg      :    298.68s CPU    304.43s WALL ( 1528177 calls)

     Called by h_psi:
     h_psi:pot    :   7130.10s CPU   7533.28s WALL ( 7727222 calls)
     h_psi:calbec :    161.99s CPU    145.43s WALL ( 7727222 calls)
     vloc_psi     :   6842.46s CPU   7258.86s WALL ( 7727222 calls)
     add_vuspsi   :    107.54s CPU    105.90s WALL ( 7727222 calls)

     General routines
     calbec       :    338.71s CPU    295.25s WALL (15978653 calls)
     fft          :      5.11s CPU      5.32s WALL (    8752 calls)
     ffts         :     12.25s CPU     13.13s WALL (   97045 calls)
     fftw         :   7534.83s CPU   7738.44s WALL (73940199 calls)
     interpolate  :      0.97s CPU      1.05s WALL (    1215 calls)
     davcio       :     55.71s CPU    137.64s WALL ( 3310885 calls)

     Parallel routines
     fft_scatter  :    977.47s CPU   1418.31s WALL (74045996 calls)

     PHONON       :     2h49m CPU        3h 1m WALL

     INITIALIZATION: 
     phq_setup    :      1.55s CPU      1.57s WALL (      29 calls)
     phq_init     :    158.87s CPU    166.45s WALL (      29 calls)

     phq_init     :    158.87s CPU    166.45s WALL (      29 calls)
     init_vloc    :      0.10s CPU      0.10s WALL (      29 calls)
     init_us_1    :      2.97s CPU      2.98s WALL (      29 calls)
     newd         :      0.48s CPU      0.48s WALL (      29 calls)
     dvanqq       :      2.03s CPU      2.03s WALL (      29 calls)
     drho         :    131.05s CPU    137.47s WALL (      29 calls)

     DYNAMICAL MATRIX:
     dynmat0      :     15.12s CPU     15.61s WALL (      29 calls)
     phqscf       :   7649.37s CPU   8220.09s WALL (      29 calls)
     dynmatrix    :      0.03s CPU      0.04s WALL (      29 calls)

     phqscf       :   7649.37s CPU   8220.09s WALL (      29 calls)
     solve_linter :   7623.20s CPU   8192.69s WALL (      76 calls)
     drhodv       :     26.09s CPU     27.25s WALL (      76 calls)

     dynmat0      :     15.12s CPU     15.61s WALL (      29 calls)
     dynmat_us    :     15.07s CPU     15.55s WALL (      29 calls)
     d2ionq       :      0.04s CPU      0.04s WALL (      29 calls)

     dynmat_us    :     15.07s CPU     15.55s WALL (      29 calls)
     addusdynmat  :      0.00s CPU      0.00s WALL (      29 calls)

     phqscf       :   7649.37s CPU   8220.09s WALL (      29 calls)
     solve_linter :   7623.20s CPU   8192.69s WALL (      76 calls)

     solve_linter :   7623.20s CPU   8192.69s WALL (      76 calls)
     dvqpsi_us    :    219.41s CPU    232.50s WALL (   95049 calls)
     ortho        :     48.94s CPU     56.73s WALL (  617135 calls)
     cgsolve      :   5911.23s CPU   6273.17s WALL (  617135 calls)
     incdrhoscf   :    676.66s CPU    731.42s WALL (  617135 calls)
     addusddens   :     14.72s CPU     14.82s WALL (     556 calls)
     vpsifft      :    541.40s CPU    591.15s WALL (  522086 calls)
     dv_of_drho   :      6.30s CPU      6.46s WALL (     535 calls)
     mix_pot      :      0.76s CPU      1.90s WALL (     480 calls)
     ef_shift     :      0.02s CPU      0.03s WALL (       6 calls)
     localdos     :      0.10s CPU      0.11s WALL (       1 calls)
     psymdvscf    :     13.05s CPU     13.27s WALL (     417 calls)
     newdq        :     13.22s CPU     13.27s WALL (     480 calls)
     adddvscf     :     23.26s CPU     18.42s WALL (  522086 calls)
     drhodvus     :      0.03s CPU      0.05s WALL (      76 calls)

     dvqpsi_us    :    219.41s CPU    232.50s WALL (   95049 calls)
     dvqpsi_us_on :     24.42s CPU     24.08s WALL (   95049 calls)

     cgsolve      :   5911.23s CPU   6273.17s WALL (  617135 calls)
     ch_psi       :   5801.30s CPU   6178.51s WALL ( 6098654 calls)

     ch_psi       :   5801.30s CPU   6178.51s WALL ( 6098654 calls)
     h_psi        :   7153.10s CPU   7568.68s WALL ( 7727222 calls)
     last         :    279.79s CPU    315.15s WALL ( 6098654 calls)

     h_psi        :   7153.10s CPU   7568.68s WALL ( 7727222 calls)
     add_vuspsi   :    107.54s CPU    105.90s WALL ( 7727222 calls)

     incdrhoscf   :    676.66s CPU    731.42s WALL (  617135 calls)
     addusdbec    :     40.02s CPU     36.37s WALL (  712184 calls)

     drhodvus     :      0.03s CPU      0.05s WALL (      76 calls)

      General routines
     calbec       :    338.71s CPU    295.25s WALL (15978653 calls)
     fft          :      5.11s CPU      5.32s WALL (    8752 calls)
     ffts         :     12.25s CPU     13.13s WALL (   97045 calls)
     fftw         :   7534.83s CPU   7738.44s WALL (73940199 calls)
     davcio       :     55.71s CPU    137.64s WALL ( 3310885 calls)
     write_rec    :      0.39s CPU      2.47s WALL (     556 calls)


     PHONON       :     2h49m CPU        3h 1m WALL


   This run was terminated on:  14:55:42  21Dec2017            

=------------------------------------------------------------------------------=
   JOB DONE.
=------------------------------------------------------------------------------=
