
     Program PHONON v.6.1 (svn rev. 13369) starts on 21Dec2017 at 16:10:19 

     This program is part of the open-source Quantum ESPRESSO suite
     for quantum simulation of materials; please cite
         "P. Giannozzi et al., J. Phys.:Condens. Matter 21 395502 (2009);
          URL http://www.quantum-espresso.org", 
     in publications or presentations arising from this work. More details at
     http://www.quantum-espresso.org/quote

     Parallel version (MPI), running on     4 processors
     R & G space division:  proc/nbgrp/npool/nimage =       4

     Reading data from directory:
     ./na.bcc.save

   Info: using nr1, nr2, nr3 values from input

   Info: using nr1, nr2, nr3 values from input

     IMPORTANT: XC functional enforced from input :
     Exchange-correlation      = SLA  PW   PBE  PBE ( 1  4  3  4 0 0)
     Any further DFT definition will be discarded
     Please, verify this is what you really want


     Parallelization info
     --------------------
     sticks:   dense  smooth     PW     G-vecs:    dense   smooth      PW
     Min         278     139     43                 5863     2097     369
     Max         279     140     44                 5866     2099     372
     Sum        1113     557    173                23455     8391    1481



     Dynamical matrices for ( 8, 8, 8)  uniform grid of q-points
     (  29q-points):
       N         xq(1)         xq(2)         xq(3) 
       1   0.000000000   0.000000000   0.000000000
       2   0.000000000  -0.125000000   0.125000000
       3   0.000000000  -0.250000000   0.250000000
       4   0.000000000  -0.375000000   0.375000000
       5   0.000000000   0.500000000  -0.500000000
       6  -0.125000000  -0.125000000   0.250000000
       7  -0.125000000  -0.250000000   0.375000000
       8  -0.125000000   0.625000000  -0.500000000
       9  -0.250000000   0.750000000  -0.500000000
      10  -0.250000000   0.625000000  -0.375000000
      11   0.000000000   0.000000000   0.250000000
      12   0.000000000  -0.125000000   0.375000000
      13   0.000000000  -0.250000000   0.500000000
      14   0.000000000   0.625000000  -0.375000000
      15  -0.125000000  -0.125000000   0.500000000
      16  -0.125000000   0.750000000  -0.375000000
      17  -0.250000000   0.250000000   0.250000000
      18  -0.250000000   0.750000000  -0.250000000
      19   0.625000000  -0.625000000   0.250000000
      20   0.500000000  -0.500000000   0.250000000
      21   0.500000000  -0.625000000   0.375000000
      22   0.000000000   0.000000000   0.500000000
      23   0.000000000  -0.125000000   0.625000000
      24   0.000000000   0.750000000  -0.250000000
      25  -0.125000000   0.875000000  -0.250000000
      26   0.500000000  -0.500000000   0.500000000
      27   0.000000000   0.000000000   0.750000000
      28   0.000000000   0.875000000  -0.125000000
      29   0.000000000   0.000000000  -1.000000000

     Calculation of q =    0.0000000   0.0000000   0.0000000

                                                                                

     bravais-lattice index     =            3
     lattice parameter (alat)  =       7.8676  a.u.
     unit-cell volume          =     243.4985 (a.u.)^3
     number of atoms/cell      =            1
     number of atomic types    =            1
     kinetic-energy cut-off    =      40.0000  Ry
     charge density cut-off    =     320.0000  Ry
     convergence threshold     =      1.0E-12
     beta                      =       0.7000
     number of iterations used =            4
     Exchange-correlation      = SLA  PW   PBE  PBE ( 1  4  3  4 0 0)


     celldm(1)=    7.86760  celldm(2)=    0.00000  celldm(3)=    0.00000
     celldm(4)=    0.00000  celldm(5)=    0.00000  celldm(6)=    0.00000

     crystal axes: (cart. coord. in units of alat)
               a(1) = (  0.5000  0.5000  0.5000 )  
               a(2) = ( -0.5000  0.5000  0.5000 )  
               a(3) = ( -0.5000 -0.5000  0.5000 )  

     reciprocal axes: (cart. coord. in units 2 pi/alat)
               b(1) = (  1.0000  0.0000  1.0000 )  
               b(2) = ( -1.0000  1.0000  0.0000 )  
               b(3) = (  0.0000 -1.0000  1.0000 )  


     Atoms inside the unit cell: 

     Cartesian axes

     site n.  atom      mass           positions (alat units)
        1     Na  22.9900   tau(    1) = (    0.00000    0.00000    0.00000  )

     Computing dynamical matrix for 
                    q = (   0.0000000   0.0000000   0.0000000 )

     49 Sym.Ops. (with q -> -q+G )


     G cutoff =  501.7350  (   5866 G-vectors)     FFT grid: ( 40, 40, 40)
     G cutoff =  250.8675  (   2098 G-vectors)  smooth grid: ( 27, 27, 27)

     number of k points=   100  Marzari-Vanderbilt smearing, width (Ry)=  0.0200

     PseudoPot. # 1 for Na read from file:
     /home/s1333534/quantum_espresso/qe-6.1/pseudo/Na_pbe_v1.uspp.F.UPF
     MD5 check sum: 76a99c7e9422403d3e93cbc85ab7bccb
     Pseudo is Ultrasoft, Zval =  9.0
     Generated by new atomic code, or converted to UPF format
     Using radial grid of  819 points,  5 beta functions with: 
                l(1) =   0
                l(2) =   0
                l(3) =   1
                l(4) =   1
                l(5) =   2
     Q(r) pseudized with  8 coefficients,  rinner =    1.250   1.250   1.250
                                                       1.250   1.250

     Mode symmetry, O_h (m-3m)  point group:


     Atomic displacements:
     There are   1 irreducible representations

     Representation     1      3 modes -T_1u G_15  G_4-  To be done



     Alpha used in Ewald sum =   2.8000
     PHONON       :     1.10s CPU         1.17s WALL



     Representation #  1 modes #   1  2  3

     Self-consistent Calculation

     Pert. #  1: Fermi energy shift (Ry) =     1.3786E-25    -6.2693E-38
     Pert. #  2: Fermi energy shift (Ry) =     3.4466E-26    -3.9183E-37
     Pert. #  3: Fermi energy shift (Ry) =    -1.0340E-25     1.7241E-37

      iter #   1 total cpu time :     4.3 secs   av.it.:   5.4
      thresh= 1.000E-02 alpha_mix =  0.700 |ddv_scf|^2 =  1.445E-06

     Pert. #  1: Fermi energy shift (Ry) =     3.9636E-25    -2.4489E-40
     Pert. #  2: Fermi energy shift (Ry) =     1.0512E-24     2.2041E-39
     Pert. #  3: Fermi energy shift (Ry) =    -1.4648E-25    -4.8979E-40

      iter #   2 total cpu time :     7.9 secs   av.it.:   8.4
      thresh= 1.202E-04 alpha_mix =  0.700 |ddv_scf|^2 =  2.723E-08

     Pert. #  1: Fermi energy shift (Ry) =    -2.8434E-25    -1.5306E-40
     Pert. #  2: Fermi energy shift (Ry) =    -1.2063E-25     5.0510E-40
     Pert. #  3: Fermi energy shift (Ry) =     6.2039E-25     1.2245E-40

      iter #   3 total cpu time :    11.5 secs   av.it.:   8.5
      thresh= 1.650E-05 alpha_mix =  0.700 |ddv_scf|^2 =  5.572E-10

     Pert. #  1: Fermi energy shift (Ry) =     0.0000E+00    -4.9744E-41
     Pert. #  2: Fermi energy shift (Ry) =    -3.2743E-25     4.2091E-41
     Pert. #  3: Fermi energy shift (Ry) =     2.1541E-25     3.4438E-41

      iter #   4 total cpu time :    14.9 secs   av.it.:   7.9
      thresh= 2.360E-06 alpha_mix =  0.700 |ddv_scf|^2 =  1.901E-12

     Pert. #  1: Fermi energy shift (Ry) =    -5.6869E-25    -2.0280E-40
     Pert. #  2: Fermi energy shift (Ry) =     1.4217E-24     6.8877E-41
     Pert. #  3: Fermi energy shift (Ry) =     3.7051E-25    -2.5829E-41

      iter #   5 total cpu time :    18.5 secs   av.it.:   8.3
      thresh= 1.379E-07 alpha_mix =  0.700 |ddv_scf|^2 =  4.248E-15

     End of self-consistent calculation

     Convergence has been achieved 

     Number of q in the star =    1
     List of q in the star:
          1   0.000000000   0.000000000   0.000000000

     Diagonalizing the dynamical matrix

     q = (    0.000000000   0.000000000   0.000000000 ) 

 **************************************************************************
     freq (    1) =       0.485243 [THz] =      16.185953 [cm-1]
     freq (    2) =       0.485243 [THz] =      16.185953 [cm-1]
     freq (    3) =       0.485243 [THz] =      16.185953 [cm-1]
 **************************************************************************

     Mode symmetry, O_h (m-3m)  point group:

     freq (  1 -  3) =         16.2  [cm-1]   --> T_1u G_15  G_4- I  

     Calculation of q =    0.0000000  -0.1250000   0.1250000

   Info: using nr1, nr2, nr3 values from input

   Info: using nr1, nr2, nr3 values from input

     Parallelization info
     --------------------
     sticks:   dense  smooth     PW     G-vecs:    dense   smooth      PW
     Min         278     139     45                 5863     2097     388
     Max         279     140     46                 5866     2099     389
     Sum        1113     557    181                23455     8391    1553



     bravais-lattice index     =            3
     lattice parameter (alat)  =       7.8676  a.u.
     unit-cell volume          =     243.4985 (a.u.)^3
     number of atoms/cell      =            1
     number of atomic types    =            1
     number of electrons       =         9.00
     number of Kohn-Sham states=            9
     kinetic-energy cutoff     =      40.0000  Ry
     charge density cutoff     =     320.0000  Ry
     Exchange-correlation      = SLA  PW   PBE  PBE ( 1  4  3  4 0 0)

     celldm(1)=   7.867596  celldm(2)=   0.000000  celldm(3)=   0.000000
     celldm(4)=   0.000000  celldm(5)=   0.000000  celldm(6)=   0.000000

     crystal axes: (cart. coord. in units of alat)
               a(1) = (   0.500000   0.500000   0.500000 )  
               a(2) = (  -0.500000   0.500000   0.500000 )  
               a(3) = (  -0.500000  -0.500000   0.500000 )  

     reciprocal axes: (cart. coord. in units 2 pi/alat)
               b(1) = (  1.000000  0.000000  1.000000 )  
               b(2) = ( -1.000000  1.000000  0.000000 )  
               b(3) = (  0.000000 -1.000000  1.000000 )  


     PseudoPot. # 1 for Na read from file:
     /home/s1333534/quantum_espresso/qe-6.1/pseudo/Na_pbe_v1.uspp.F.UPF
     MD5 check sum: 76a99c7e9422403d3e93cbc85ab7bccb
     Pseudo is Ultrasoft, Zval =  9.0
     Generated by new atomic code, or converted to UPF format
     Using radial grid of  819 points,  5 beta functions with: 
                l(1) =   0
                l(2) =   0
                l(3) =   1
                l(4) =   1
                l(5) =   2
     Q(r) pseudized with  8 coefficients,  rinner =    1.250   1.250   1.250
                                                       1.250   1.250

     atomic species   valence    mass     pseudopotential
        Na             9.00    22.99000     Na( 1.00)

     48 Sym. Ops., with inversion, found



   Cartesian axes

     site n.     atom                  positions (alat units)
         1           Na  tau(   1) = (   0.0000000   0.0000000   0.0000000  )

     number of k points=  1568  Marzari-Vanderbilt smearing, width (Ry)=  0.0200

     Number of k-points >= 100: set verbosity='high' to print them.

     Dense  grid:    23455 G-vectors     FFT dimensions: (  40,  40,  40)

     Smooth grid:     8391 G-vectors     FFT dimensions: (  27,  27,  27)

     Estimated max dynamical RAM per process >       2.19MB

     Estimated total allocated dynamical RAM >       8.76MB

     The potential is recalculated from file :
     ./_ph0/na.bcc.save/charge-density.dat

     Starting wfc are    5 atomic +    4 random wfc

     Band Structure Calculation
     Davidson diagonalization with overlap

     ethr =  1.11E-10,  avg # of iterations = 21.1

     total cpu time spent up to now is       46.6 secs

     End of band structure calculation

     Number of k-points >= 100: set verbosity='high' to print the bands.

     the Fermi energy is     1.7284 ev

     Writing output data file na.bcc.save

                                                                                

     bravais-lattice index     =            3
     lattice parameter (alat)  =       7.8676  a.u.
     unit-cell volume          =     243.4985 (a.u.)^3
     number of atoms/cell      =            1
     number of atomic types    =            1
     kinetic-energy cut-off    =      40.0000  Ry
     charge density cut-off    =     320.0000  Ry
     convergence threshold     =      1.0E-12
     beta                      =       0.7000
     number of iterations used =            4
     Exchange-correlation      = SLA  PW   PBE  PBE ( 1  4  3  4 0 0)


     celldm(1)=    7.86760  celldm(2)=    0.00000  celldm(3)=    0.00000
     celldm(4)=    0.00000  celldm(5)=    0.00000  celldm(6)=    0.00000

     crystal axes: (cart. coord. in units of alat)
               a(1) = (  0.5000  0.5000  0.5000 )  
               a(2) = ( -0.5000  0.5000  0.5000 )  
               a(3) = ( -0.5000 -0.5000  0.5000 )  

     reciprocal axes: (cart. coord. in units 2 pi/alat)
               b(1) = (  1.0000  0.0000  1.0000 )  
               b(2) = ( -1.0000  1.0000  0.0000 )  
               b(3) = (  0.0000 -1.0000  1.0000 )  


     Atoms inside the unit cell: 

     Cartesian axes

     site n.  atom      mass           positions (alat units)
        1     Na  22.9900   tau(    1) = (    0.00000    0.00000    0.00000  )

     Computing dynamical matrix for 
                    q = (   0.0000000  -0.1250000   0.1250000 )

      4 Sym.Ops. (no q -> -q+G )


     G cutoff =  501.7350  (   5866 G-vectors)     FFT grid: ( 40, 40, 40)
     G cutoff =  250.8675  (   2098 G-vectors)  smooth grid: ( 27, 27, 27)

     number of k points=  1568  Marzari-Vanderbilt smearing, width (Ry)=  0.0200

     PseudoPot. # 1 for Na read from file:
     /home/s1333534/quantum_espresso/qe-6.1/pseudo/Na_pbe_v1.uspp.F.UPF
     MD5 check sum: 76a99c7e9422403d3e93cbc85ab7bccb
     Pseudo is Ultrasoft, Zval =  9.0
     Generated by new atomic code, or converted to UPF format
     Using radial grid of  819 points,  5 beta functions with: 
                l(1) =   0
                l(2) =   0
                l(3) =   1
                l(4) =   1
                l(5) =   2
     Q(r) pseudized with  8 coefficients,  rinner =    1.250   1.250   1.250
                                                       1.250   1.250

     Mode symmetry, C_2v (mm2)  point group:


     Atomic displacements:
     There are   3 irreducible representations

     Representation     1      1 modes -A_1  D_1  S_1  To be done

     Representation     2      1 modes -B_1  D_3  S_3  To be done

     Representation     3      1 modes -B_2  D_4  S_4  To be done



     Alpha used in Ewald sum =   2.8000
     PHONON       :  1m 5.94s CPU     1m 9.72s WALL



     Representation #  1 mode #   1

     Self-consistent Calculation

      iter #   1 total cpu time :    77.1 secs   av.it.:   5.6
      thresh= 1.000E-02 alpha_mix =  0.700 |ddv_scf|^2 =  1.746E-01

      iter #   2 total cpu time :    84.6 secs   av.it.:   6.9
      thresh= 1.000E-02 alpha_mix =  0.700 |ddv_scf|^2 =  8.047E+01

      iter #   3 total cpu time :    92.0 secs   av.it.:   6.9
      thresh= 1.000E-02 alpha_mix =  0.700 |ddv_scf|^2 =  2.213E-04

      iter #   4 total cpu time :    98.2 secs   av.it.:   5.3
      thresh= 1.488E-03 alpha_mix =  0.700 |ddv_scf|^2 =  1.784E-07

      iter #   5 total cpu time :   106.7 secs   av.it.:   7.1
      thresh= 4.223E-05 alpha_mix =  0.700 |ddv_scf|^2 =  9.105E-09

      iter #   6 total cpu time :   113.9 secs   av.it.:   6.6
      thresh= 9.542E-06 alpha_mix =  0.700 |ddv_scf|^2 =  7.397E-07

      iter #   7 total cpu time :   119.5 secs   av.it.:   4.6
      thresh= 8.601E-05 alpha_mix =  0.700 |ddv_scf|^2 =  4.435E-11

      iter #   8 total cpu time :   127.8 secs   av.it.:   8.0
      thresh= 6.660E-07 alpha_mix =  0.700 |ddv_scf|^2 =  1.398E-12

      iter #   9 total cpu time :   136.2 secs   av.it.:   8.1
      thresh= 1.182E-07 alpha_mix =  0.700 |ddv_scf|^2 =  4.800E-14

     End of self-consistent calculation

     Convergence has been achieved 


     Representation #  2 mode #   2

     Self-consistent Calculation

      iter #   1 total cpu time :   143.5 secs   av.it.:   5.4
      thresh= 1.000E-02 alpha_mix =  0.700 |ddv_scf|^2 =  1.309E-05

      iter #   2 total cpu time :   151.6 secs   av.it.:   7.6
      thresh= 3.618E-04 alpha_mix =  0.700 |ddv_scf|^2 =  2.438E-07

      iter #   3 total cpu time :   159.7 secs   av.it.:   7.7
      thresh= 4.937E-05 alpha_mix =  0.700 |ddv_scf|^2 =  5.252E-09

      iter #   4 total cpu time :   167.5 secs   av.it.:   7.2
      thresh= 7.247E-06 alpha_mix =  0.700 |ddv_scf|^2 =  1.774E-11

      iter #   5 total cpu time :   175.5 secs   av.it.:   7.5
      thresh= 4.212E-07 alpha_mix =  0.700 |ddv_scf|^2 =  3.726E-14

     End of self-consistent calculation

     Convergence has been achieved 


     Representation #  3 mode #   3

     Self-consistent Calculation

      iter #   1 total cpu time :   182.9 secs   av.it.:   5.4
      thresh= 1.000E-02 alpha_mix =  0.700 |ddv_scf|^2 =  1.334E-05

      iter #   2 total cpu time :   190.9 secs   av.it.:   7.5
      thresh= 3.653E-04 alpha_mix =  0.700 |ddv_scf|^2 =  2.430E-07

      iter #   3 total cpu time :   199.0 secs   av.it.:   7.7
      thresh= 4.929E-05 alpha_mix =  0.700 |ddv_scf|^2 =  6.099E-09

      iter #   4 total cpu time :   206.8 secs   av.it.:   7.3
      thresh= 7.810E-06 alpha_mix =  0.700 |ddv_scf|^2 =  2.035E-11

      iter #   5 total cpu time :   214.9 secs   av.it.:   7.5
      thresh= 4.511E-07 alpha_mix =  0.700 |ddv_scf|^2 =  3.791E-14

     End of self-consistent calculation

     Convergence has been achieved 

     Number of q in the star =   12
     List of q in the star:
          1   0.000000000  -0.125000000   0.125000000
          2   0.125000000   0.000000000   0.125000000
          3  -0.125000000   0.000000000   0.125000000
          4   0.000000000   0.125000000   0.125000000
          5   0.125000000  -0.125000000   0.000000000
          6  -0.125000000   0.000000000  -0.125000000
          7   0.125000000   0.000000000  -0.125000000
          8   0.000000000  -0.125000000  -0.125000000
          9  -0.125000000  -0.125000000   0.000000000
         10  -0.125000000   0.125000000   0.000000000
         11   0.125000000   0.125000000   0.000000000
         12   0.000000000   0.125000000  -0.125000000

     Diagonalizing the dynamical matrix

     q = (    0.000000000  -0.125000000   0.125000000 ) 

 **************************************************************************
     freq (    1) =       0.424831 [THz] =      14.170823 [cm-1]
     freq (    2) =       0.942426 [THz] =      31.435945 [cm-1]
     freq (    3) =       2.011947 [THz] =      67.111343 [cm-1]
 **************************************************************************

     Mode symmetry, C_2v (mm2)  point group:

     freq (  1 -  1) =         14.2  [cm-1]   --> B_1  D_3  S_3      
     freq (  2 -  2) =         31.4  [cm-1]   --> B_2  D_4  S_4      
     freq (  3 -  3) =         67.1  [cm-1]   --> A_1  D_1  S_1      

     Calculation of q =    0.0000000  -0.2500000   0.2500000

   Info: using nr1, nr2, nr3 values from input

   Info: using nr1, nr2, nr3 values from input

     Parallelization info
     --------------------
     sticks:   dense  smooth     PW     G-vecs:    dense   smooth      PW
     Min         278     139     45                 5862     2097     400
     Max         279     140     46                 5865     2099     401
     Sum        1113     557    181                23455     8391    1601



     bravais-lattice index     =            3
     lattice parameter (alat)  =       7.8676  a.u.
     unit-cell volume          =     243.4985 (a.u.)^3
     number of atoms/cell      =            1
     number of atomic types    =            1
     number of electrons       =         9.00
     number of Kohn-Sham states=            9
     kinetic-energy cutoff     =      40.0000  Ry
     charge density cutoff     =     320.0000  Ry
     Exchange-correlation      = SLA  PW   PBE  PBE ( 1  4  3  4 0 0)

     celldm(1)=   7.867596  celldm(2)=   0.000000  celldm(3)=   0.000000
     celldm(4)=   0.000000  celldm(5)=   0.000000  celldm(6)=   0.000000

     crystal axes: (cart. coord. in units of alat)
               a(1) = (   0.500000   0.500000   0.500000 )  
               a(2) = (  -0.500000   0.500000   0.500000 )  
               a(3) = (  -0.500000  -0.500000   0.500000 )  

     reciprocal axes: (cart. coord. in units 2 pi/alat)
               b(1) = (  1.000000  0.000000  1.000000 )  
               b(2) = ( -1.000000  1.000000  0.000000 )  
               b(3) = (  0.000000 -1.000000  1.000000 )  


     PseudoPot. # 1 for Na read from file:
     /home/s1333534/quantum_espresso/qe-6.1/pseudo/Na_pbe_v1.uspp.F.UPF
     MD5 check sum: 76a99c7e9422403d3e93cbc85ab7bccb
     Pseudo is Ultrasoft, Zval =  9.0
     Generated by new atomic code, or converted to UPF format
     Using radial grid of  819 points,  5 beta functions with: 
                l(1) =   0
                l(2) =   0
                l(3) =   1
                l(4) =   1
                l(5) =   2
     Q(r) pseudized with  8 coefficients,  rinner =    1.250   1.250   1.250
                                                       1.250   1.250

     atomic species   valence    mass     pseudopotential
        Na             9.00    22.99000     Na( 1.00)

     48 Sym. Ops., with inversion, found



   Cartesian axes

     site n.     atom                  positions (alat units)
         1           Na  tau(   1) = (   0.0000000   0.0000000   0.0000000  )

     number of k points=  1568  Marzari-Vanderbilt smearing, width (Ry)=  0.0200

     Number of k-points >= 100: set verbosity='high' to print them.

     Dense  grid:    23455 G-vectors     FFT dimensions: (  40,  40,  40)

     Smooth grid:     8391 G-vectors     FFT dimensions: (  27,  27,  27)

     Estimated max dynamical RAM per process >       2.19MB

     Estimated total allocated dynamical RAM >       8.76MB

     The potential is recalculated from file :
     ./_ph0/na.bcc.save/charge-density.dat

     Starting wfc are    5 atomic +    4 random wfc

     Band Structure Calculation
     Davidson diagonalization with overlap

     ethr =  1.11E-10,  avg # of iterations = 21.1

     total cpu time spent up to now is       94.2 secs

     End of band structure calculation

     Number of k-points >= 100: set verbosity='high' to print the bands.

     the Fermi energy is     1.7284 ev

     Writing output data file na.bcc.save

                                                                                

     bravais-lattice index     =            3
     lattice parameter (alat)  =       7.8676  a.u.
     unit-cell volume          =     243.4985 (a.u.)^3
     number of atoms/cell      =            1
     number of atomic types    =            1
     kinetic-energy cut-off    =      40.0000  Ry
     charge density cut-off    =     320.0000  Ry
     convergence threshold     =      1.0E-12
     beta                      =       0.7000
     number of iterations used =            4
     Exchange-correlation      = SLA  PW   PBE  PBE ( 1  4  3  4 0 0)


     celldm(1)=    7.86760  celldm(2)=    0.00000  celldm(3)=    0.00000
     celldm(4)=    0.00000  celldm(5)=    0.00000  celldm(6)=    0.00000

     crystal axes: (cart. coord. in units of alat)
               a(1) = (  0.5000  0.5000  0.5000 )  
               a(2) = ( -0.5000  0.5000  0.5000 )  
               a(3) = ( -0.5000 -0.5000  0.5000 )  

     reciprocal axes: (cart. coord. in units 2 pi/alat)
               b(1) = (  1.0000  0.0000  1.0000 )  
               b(2) = ( -1.0000  1.0000  0.0000 )  
               b(3) = (  0.0000 -1.0000  1.0000 )  


     Atoms inside the unit cell: 

     Cartesian axes

     site n.  atom      mass           positions (alat units)
        1     Na  22.9900   tau(    1) = (    0.00000    0.00000    0.00000  )

     Computing dynamical matrix for 
                    q = (   0.0000000  -0.2500000   0.2500000 )

      4 Sym.Ops. (no q -> -q+G )


     G cutoff =  501.7350  (   5863 G-vectors)     FFT grid: ( 40, 40, 40)
     G cutoff =  250.8675  (   2098 G-vectors)  smooth grid: ( 27, 27, 27)

     number of k points=  1568  Marzari-Vanderbilt smearing, width (Ry)=  0.0200

     PseudoPot. # 1 for Na read from file:
     /home/s1333534/quantum_espresso/qe-6.1/pseudo/Na_pbe_v1.uspp.F.UPF
     MD5 check sum: 76a99c7e9422403d3e93cbc85ab7bccb
     Pseudo is Ultrasoft, Zval =  9.0
     Generated by new atomic code, or converted to UPF format
     Using radial grid of  819 points,  5 beta functions with: 
                l(1) =   0
                l(2) =   0
                l(3) =   1
                l(4) =   1
                l(5) =   2
     Q(r) pseudized with  8 coefficients,  rinner =    1.250   1.250   1.250
                                                       1.250   1.250

     Mode symmetry, C_2v (mm2)  point group:


     Atomic displacements:
     There are   3 irreducible representations

     Representation     1      1 modes -A_1  D_1  S_1  To be done

     Representation     2      1 modes -B_1  D_3  S_3  To be done

     Representation     3      1 modes -B_2  D_4  S_4  To be done



     Alpha used in Ewald sum =   2.8000
     PHONON       :  4m 9.40s CPU     4m26.13s WALL



     Representation #  1 mode #   1

     Self-consistent Calculation

      iter #   1 total cpu time :   273.6 secs   av.it.:   5.7
      thresh= 1.000E-02 alpha_mix =  0.700 |ddv_scf|^2 =  2.836E-03

      iter #   2 total cpu time :   280.5 secs   av.it.:   6.1
      thresh= 5.325E-03 alpha_mix =  0.700 |ddv_scf|^2 =  6.359E-02

      iter #   3 total cpu time :   287.1 secs   av.it.:   5.6
      thresh= 1.000E-02 alpha_mix =  0.700 |ddv_scf|^2 =  2.298E-06

      iter #   4 total cpu time :   294.9 secs   av.it.:   7.3
      thresh= 1.516E-04 alpha_mix =  0.700 |ddv_scf|^2 =  1.223E-08

      iter #   5 total cpu time :   303.5 secs   av.it.:   8.1
      thresh= 1.106E-05 alpha_mix =  0.700 |ddv_scf|^2 =  1.298E-09

      iter #   6 total cpu time :   311.8 secs   av.it.:   7.9
      thresh= 3.603E-06 alpha_mix =  0.700 |ddv_scf|^2 =  2.540E-11

      iter #   7 total cpu time :   320.4 secs   av.it.:   8.2
      thresh= 5.040E-07 alpha_mix =  0.700 |ddv_scf|^2 =  2.783E-11

      iter #   8 total cpu time :   327.2 secs   av.it.:   5.9
      thresh= 5.275E-07 alpha_mix =  0.700 |ddv_scf|^2 =  2.295E-11

      iter #   9 total cpu time :   334.5 secs   av.it.:   6.6
      thresh= 4.790E-07 alpha_mix =  0.700 |ddv_scf|^2 =  1.421E-12

      iter #  10 total cpu time :   342.1 secs   av.it.:   7.0
      thresh= 1.192E-07 alpha_mix =  0.700 |ddv_scf|^2 =  1.082E-13

     End of self-consistent calculation

     Convergence has been achieved 


     Representation #  2 mode #   2

     Self-consistent Calculation

      iter #   1 total cpu time :   349.5 secs   av.it.:   5.5
      thresh= 1.000E-02 alpha_mix =  0.700 |ddv_scf|^2 =  1.331E-05

      iter #   2 total cpu time :   357.6 secs   av.it.:   7.6
      thresh= 3.648E-04 alpha_mix =  0.700 |ddv_scf|^2 =  2.395E-07

      iter #   3 total cpu time :   366.0 secs   av.it.:   7.7
      thresh= 4.894E-05 alpha_mix =  0.700 |ddv_scf|^2 =  6.036E-09

      iter #   4 total cpu time :   373.8 secs   av.it.:   7.3
      thresh= 7.769E-06 alpha_mix =  0.700 |ddv_scf|^2 =  1.975E-11

      iter #   5 total cpu time :   381.9 secs   av.it.:   7.6
      thresh= 4.445E-07 alpha_mix =  0.700 |ddv_scf|^2 =  3.413E-14

     End of self-consistent calculation

     Convergence has been achieved 


     Representation #  3 mode #   3

     Self-consistent Calculation

      iter #   1 total cpu time :   389.4 secs   av.it.:   5.4
      thresh= 1.000E-02 alpha_mix =  0.700 |ddv_scf|^2 =  1.421E-05

      iter #   2 total cpu time :   397.6 secs   av.it.:   7.6
      thresh= 3.770E-04 alpha_mix =  0.700 |ddv_scf|^2 =  2.377E-07

      iter #   3 total cpu time :   405.8 secs   av.it.:   7.7
      thresh= 4.875E-05 alpha_mix =  0.700 |ddv_scf|^2 =  9.223E-09

      iter #   4 total cpu time :   413.7 secs   av.it.:   7.4
      thresh= 9.604E-06 alpha_mix =  0.700 |ddv_scf|^2 =  2.976E-11

      iter #   5 total cpu time :   421.9 secs   av.it.:   7.7
      thresh= 5.455E-07 alpha_mix =  0.700 |ddv_scf|^2 =  3.906E-14

     End of self-consistent calculation

     Convergence has been achieved 

     Number of q in the star =   12
     List of q in the star:
          1   0.000000000  -0.250000000   0.250000000
          2   0.250000000   0.000000000   0.250000000
          3  -0.250000000   0.000000000   0.250000000
          4   0.000000000   0.250000000   0.250000000
          5   0.250000000  -0.250000000   0.000000000
          6  -0.250000000   0.000000000  -0.250000000
          7   0.250000000   0.000000000  -0.250000000
          8   0.000000000  -0.250000000  -0.250000000
          9  -0.250000000  -0.250000000   0.000000000
         10  -0.250000000   0.250000000   0.000000000
         11   0.250000000   0.250000000   0.000000000
         12   0.000000000   0.250000000  -0.250000000

     Diagonalizing the dynamical matrix

     q = (    0.000000000  -0.250000000   0.250000000 ) 

 **************************************************************************
     freq (    1) =       0.826729 [THz] =      27.576715 [cm-1]
     freq (    2) =       1.825537 [THz] =      60.893369 [cm-1]
     freq (    3) =       3.037877 [THz] =     101.332674 [cm-1]
 **************************************************************************

     Mode symmetry, C_2v (mm2)  point group:

     freq (  1 -  1) =         27.6  [cm-1]   --> B_1  D_3  S_3      
     freq (  2 -  2) =         60.9  [cm-1]   --> B_2  D_4  S_4      
     freq (  3 -  3) =        101.3  [cm-1]   --> A_1  D_1  S_1      

     Calculation of q =    0.0000000  -0.3750000   0.3750000

   Info: using nr1, nr2, nr3 values from input

   Info: using nr1, nr2, nr3 values from input

     Parallelization info
     --------------------
     sticks:   dense  smooth     PW     G-vecs:    dense   smooth      PW
     Min         278     139     50                 5863     2097     436
     Max         279     140     51                 5866     2099     437
     Sum        1113     557    201                23455     8391    1745



     bravais-lattice index     =            3
     lattice parameter (alat)  =       7.8676  a.u.
     unit-cell volume          =     243.4985 (a.u.)^3
     number of atoms/cell      =            1
     number of atomic types    =            1
     number of electrons       =         9.00
     number of Kohn-Sham states=            9
     kinetic-energy cutoff     =      40.0000  Ry
     charge density cutoff     =     320.0000  Ry
     Exchange-correlation      = SLA  PW   PBE  PBE ( 1  4  3  4 0 0)

     celldm(1)=   7.867596  celldm(2)=   0.000000  celldm(3)=   0.000000
     celldm(4)=   0.000000  celldm(5)=   0.000000  celldm(6)=   0.000000

     crystal axes: (cart. coord. in units of alat)
               a(1) = (   0.500000   0.500000   0.500000 )  
               a(2) = (  -0.500000   0.500000   0.500000 )  
               a(3) = (  -0.500000  -0.500000   0.500000 )  

     reciprocal axes: (cart. coord. in units 2 pi/alat)
               b(1) = (  1.000000  0.000000  1.000000 )  
               b(2) = ( -1.000000  1.000000  0.000000 )  
               b(3) = (  0.000000 -1.000000  1.000000 )  


     PseudoPot. # 1 for Na read from file:
     /home/s1333534/quantum_espresso/qe-6.1/pseudo/Na_pbe_v1.uspp.F.UPF
     MD5 check sum: 76a99c7e9422403d3e93cbc85ab7bccb
     Pseudo is Ultrasoft, Zval =  9.0
     Generated by new atomic code, or converted to UPF format
     Using radial grid of  819 points,  5 beta functions with: 
                l(1) =   0
                l(2) =   0
                l(3) =   1
                l(4) =   1
                l(5) =   2
     Q(r) pseudized with  8 coefficients,  rinner =    1.250   1.250   1.250
                                                       1.250   1.250

     atomic species   valence    mass     pseudopotential
        Na             9.00    22.99000     Na( 1.00)

     48 Sym. Ops., with inversion, found



   Cartesian axes

     site n.     atom                  positions (alat units)
         1           Na  tau(   1) = (   0.0000000   0.0000000   0.0000000  )

     number of k points=  1568  Marzari-Vanderbilt smearing, width (Ry)=  0.0200

     Number of k-points >= 100: set verbosity='high' to print them.

     Dense  grid:    23455 G-vectors     FFT dimensions: (  40,  40,  40)

     Smooth grid:     8391 G-vectors     FFT dimensions: (  27,  27,  27)

     Estimated max dynamical RAM per process >       2.19MB

     Estimated total allocated dynamical RAM >       8.76MB

     The potential is recalculated from file :
     ./_ph0/na.bcc.save/charge-density.dat

     Starting wfc are    5 atomic +    4 random wfc

     Band Structure Calculation
     Davidson diagonalization with overlap

     ethr =  1.11E-10,  avg # of iterations = 21.1

     total cpu time spent up to now is      142.2 secs

     End of band structure calculation

     Number of k-points >= 100: set verbosity='high' to print the bands.

     the Fermi energy is     1.7284 ev

     Writing output data file na.bcc.save

                                                                                

     bravais-lattice index     =            3
     lattice parameter (alat)  =       7.8676  a.u.
     unit-cell volume          =     243.4985 (a.u.)^3
     number of atoms/cell      =            1
     number of atomic types    =            1
     kinetic-energy cut-off    =      40.0000  Ry
     charge density cut-off    =     320.0000  Ry
     convergence threshold     =      1.0E-12
     beta                      =       0.7000
     number of iterations used =            4
     Exchange-correlation      = SLA  PW   PBE  PBE ( 1  4  3  4 0 0)


     celldm(1)=    7.86760  celldm(2)=    0.00000  celldm(3)=    0.00000
     celldm(4)=    0.00000  celldm(5)=    0.00000  celldm(6)=    0.00000

     crystal axes: (cart. coord. in units of alat)
               a(1) = (  0.5000  0.5000  0.5000 )  
               a(2) = ( -0.5000  0.5000  0.5000 )  
               a(3) = ( -0.5000 -0.5000  0.5000 )  

     reciprocal axes: (cart. coord. in units 2 pi/alat)
               b(1) = (  1.0000  0.0000  1.0000 )  
               b(2) = ( -1.0000  1.0000  0.0000 )  
               b(3) = (  0.0000 -1.0000  1.0000 )  


     Atoms inside the unit cell: 

     Cartesian axes

     site n.  atom      mass           positions (alat units)
        1     Na  22.9900   tau(    1) = (    0.00000    0.00000    0.00000  )

     Computing dynamical matrix for 
                    q = (   0.0000000  -0.3750000   0.3750000 )

      4 Sym.Ops. (no q -> -q+G )


     G cutoff =  501.7350  (   5866 G-vectors)     FFT grid: ( 40, 40, 40)
     G cutoff =  250.8675  (   2098 G-vectors)  smooth grid: ( 27, 27, 27)

     number of k points=  1568  Marzari-Vanderbilt smearing, width (Ry)=  0.0200

     PseudoPot. # 1 for Na read from file:
     /home/s1333534/quantum_espresso/qe-6.1/pseudo/Na_pbe_v1.uspp.F.UPF
     MD5 check sum: 76a99c7e9422403d3e93cbc85ab7bccb
     Pseudo is Ultrasoft, Zval =  9.0
     Generated by new atomic code, or converted to UPF format
     Using radial grid of  819 points,  5 beta functions with: 
                l(1) =   0
                l(2) =   0
                l(3) =   1
                l(4) =   1
                l(5) =   2
     Q(r) pseudized with  8 coefficients,  rinner =    1.250   1.250   1.250
                                                       1.250   1.250

     Mode symmetry, C_2v (mm2)  point group:


     Atomic displacements:
     There are   3 irreducible representations

     Representation     1      1 modes -A_1  D_1  S_1  To be done

     Representation     2      1 modes -B_1  D_3  S_3  To be done

     Representation     3      1 modes -B_2  D_4  S_4  To be done



     Alpha used in Ewald sum =   2.8000
     PHONON       :  7m22.85s CPU     7m54.08s WALL



     Representation #  1 mode #   1

     Self-consistent Calculation

      iter #   1 total cpu time :   481.6 secs   av.it.:   5.7
      thresh= 1.000E-02 alpha_mix =  0.700 |ddv_scf|^2 =  3.036E-04

      iter #   2 total cpu time :   489.1 secs   av.it.:   6.7
      thresh= 1.742E-03 alpha_mix =  0.700 |ddv_scf|^2 =  9.007E-04

      iter #   3 total cpu time :   496.0 secs   av.it.:   6.0
      thresh= 3.001E-03 alpha_mix =  0.700 |ddv_scf|^2 =  4.006E-07

      iter #   4 total cpu time :   504.3 secs   av.it.:   7.8
      thresh= 6.329E-05 alpha_mix =  0.700 |ddv_scf|^2 =  1.243E-08

      iter #   5 total cpu time :   513.1 secs   av.it.:   8.1
      thresh= 1.115E-05 alpha_mix =  0.700 |ddv_scf|^2 =  3.837E-10

      iter #   6 total cpu time :   521.5 secs   av.it.:   8.0
      thresh= 1.959E-06 alpha_mix =  0.700 |ddv_scf|^2 =  2.014E-11

      iter #   7 total cpu time :   529.8 secs   av.it.:   7.7
      thresh= 4.488E-07 alpha_mix =  0.700 |ddv_scf|^2 =  1.137E-12

      iter #   8 total cpu time :   538.4 secs   av.it.:   8.1
      thresh= 1.066E-07 alpha_mix =  0.700 |ddv_scf|^2 =  6.307E-14

     End of self-consistent calculation

     Convergence has been achieved 


     Representation #  2 mode #   2

     Self-consistent Calculation

      iter #   1 total cpu time :   545.9 secs   av.it.:   5.5
      thresh= 1.000E-02 alpha_mix =  0.700 |ddv_scf|^2 =  1.359E-05

      iter #   2 total cpu time :   554.1 secs   av.it.:   7.6
      thresh= 3.686E-04 alpha_mix =  0.700 |ddv_scf|^2 =  2.342E-07

      iter #   3 total cpu time :   562.4 secs   av.it.:   7.8
      thresh= 4.840E-05 alpha_mix =  0.700 |ddv_scf|^2 =  7.163E-09

      iter #   4 total cpu time :   570.3 secs   av.it.:   7.3
      thresh= 8.463E-06 alpha_mix =  0.700 |ddv_scf|^2 =  2.234E-11

      iter #   5 total cpu time :   578.5 secs   av.it.:   7.7
      thresh= 4.726E-07 alpha_mix =  0.700 |ddv_scf|^2 =  2.975E-14

     End of self-consistent calculation

     Convergence has been achieved 


     Representation #  3 mode #   3

     Self-consistent Calculation

      iter #   1 total cpu time :   586.0 secs   av.it.:   5.5
      thresh= 1.000E-02 alpha_mix =  0.700 |ddv_scf|^2 =  1.518E-05

      iter #   2 total cpu time :   594.2 secs   av.it.:   7.6
      thresh= 3.896E-04 alpha_mix =  0.700 |ddv_scf|^2 =  2.334E-07

      iter #   3 total cpu time :   602.5 secs   av.it.:   7.7
      thresh= 4.831E-05 alpha_mix =  0.700 |ddv_scf|^2 =  1.322E-08

      iter #   4 total cpu time :   610.4 secs   av.it.:   7.3
      thresh= 1.150E-05 alpha_mix =  0.700 |ddv_scf|^2 =  4.203E-11

      iter #   5 total cpu time :   618.7 secs   av.it.:   7.7
      thresh= 6.483E-07 alpha_mix =  0.700 |ddv_scf|^2 =  4.262E-14

     End of self-consistent calculation

     Convergence has been achieved 

     Number of q in the star =   12
     List of q in the star:
          1   0.000000000  -0.375000000   0.375000000
          2   0.375000000   0.000000000   0.375000000
          3  -0.375000000   0.000000000   0.375000000
          4   0.000000000   0.375000000   0.375000000
          5   0.375000000  -0.375000000   0.000000000
          6  -0.375000000   0.000000000  -0.375000000
          7   0.375000000   0.000000000  -0.375000000
          8   0.000000000  -0.375000000  -0.375000000
          9  -0.375000000  -0.375000000   0.000000000
         10  -0.375000000   0.375000000   0.000000000
         11   0.375000000   0.375000000   0.000000000
         12   0.000000000   0.375000000  -0.375000000

     Diagonalizing the dynamical matrix

     q = (    0.000000000  -0.375000000   0.375000000 ) 

 **************************************************************************
     freq (    1) =       0.811635 [THz] =      27.073246 [cm-1]
     freq (    2) =       2.339143 [THz] =      78.025410 [cm-1]
     freq (    3) =       3.804866 [THz] =     126.916664 [cm-1]
 **************************************************************************

     Mode symmetry, C_2v (mm2)  point group:

     freq (  1 -  1) =         27.1  [cm-1]   --> B_1  D_3  S_3      
     freq (  2 -  2) =         78.0  [cm-1]   --> B_2  D_4  S_4      
     freq (  3 -  3) =        126.9  [cm-1]   --> A_1  D_1  S_1      

     Calculation of q =    0.0000000   0.5000000  -0.5000000

   Info: using nr1, nr2, nr3 values from input

   Info: using nr1, nr2, nr3 values from input

     Parallelization info
     --------------------
     sticks:   dense  smooth     PW     G-vecs:    dense   smooth      PW
     Min         278     139     50                 5863     2097     436
     Max         279     140     51                 5866     2099     437
     Sum        1113     557    201                23455     8391    1745



     bravais-lattice index     =            3
     lattice parameter (alat)  =       7.8676  a.u.
     unit-cell volume          =     243.4985 (a.u.)^3
     number of atoms/cell      =            1
     number of atomic types    =            1
     number of electrons       =         9.00
     number of Kohn-Sham states=            9
     kinetic-energy cutoff     =      40.0000  Ry
     charge density cutoff     =     320.0000  Ry
     Exchange-correlation      = SLA  PW   PBE  PBE ( 1  4  3  4 0 0)

     celldm(1)=   7.867596  celldm(2)=   0.000000  celldm(3)=   0.000000
     celldm(4)=   0.000000  celldm(5)=   0.000000  celldm(6)=   0.000000

     crystal axes: (cart. coord. in units of alat)
               a(1) = (   0.500000   0.500000   0.500000 )  
               a(2) = (  -0.500000   0.500000   0.500000 )  
               a(3) = (  -0.500000  -0.500000   0.500000 )  

     reciprocal axes: (cart. coord. in units 2 pi/alat)
               b(1) = (  1.000000  0.000000  1.000000 )  
               b(2) = ( -1.000000  1.000000  0.000000 )  
               b(3) = (  0.000000 -1.000000  1.000000 )  


     PseudoPot. # 1 for Na read from file:
     /home/s1333534/quantum_espresso/qe-6.1/pseudo/Na_pbe_v1.uspp.F.UPF
     MD5 check sum: 76a99c7e9422403d3e93cbc85ab7bccb
     Pseudo is Ultrasoft, Zval =  9.0
     Generated by new atomic code, or converted to UPF format
     Using radial grid of  819 points,  5 beta functions with: 
                l(1) =   0
                l(2) =   0
                l(3) =   1
                l(4) =   1
                l(5) =   2
     Q(r) pseudized with  8 coefficients,  rinner =    1.250   1.250   1.250
                                                       1.250   1.250

     atomic species   valence    mass     pseudopotential
        Na             9.00    22.99000     Na( 1.00)

     48 Sym. Ops., with inversion, found



   Cartesian axes

     site n.     atom                  positions (alat units)
         1           Na  tau(   1) = (   0.0000000   0.0000000   0.0000000  )

     number of k points=   840  Marzari-Vanderbilt smearing, width (Ry)=  0.0200

     Number of k-points >= 100: set verbosity='high' to print them.

     Dense  grid:    23455 G-vectors     FFT dimensions: (  40,  40,  40)

     Smooth grid:     8391 G-vectors     FFT dimensions: (  27,  27,  27)

     Estimated max dynamical RAM per process >       2.19MB

     Estimated total allocated dynamical RAM >       8.76MB

     The potential is recalculated from file :
     ./_ph0/na.bcc.save/charge-density.dat

     Starting wfc are    5 atomic +    4 random wfc

     Band Structure Calculation
     Davidson diagonalization with overlap

     ethr =  1.11E-10,  avg # of iterations = 21.1

     total cpu time spent up to now is      168.4 secs

     End of band structure calculation

     Number of k-points >= 100: set verbosity='high' to print the bands.

     the Fermi energy is     1.7284 ev

     Writing output data file na.bcc.save

                                                                                

     bravais-lattice index     =            3
     lattice parameter (alat)  =       7.8676  a.u.
     unit-cell volume          =     243.4985 (a.u.)^3
     number of atoms/cell      =            1
     number of atomic types    =            1
     kinetic-energy cut-off    =      40.0000  Ry
     charge density cut-off    =     320.0000  Ry
     convergence threshold     =      1.0E-12
     beta                      =       0.7000
     number of iterations used =            4
     Exchange-correlation      = SLA  PW   PBE  PBE ( 1  4  3  4 0 0)


     celldm(1)=    7.86760  celldm(2)=    0.00000  celldm(3)=    0.00000
     celldm(4)=    0.00000  celldm(5)=    0.00000  celldm(6)=    0.00000

     crystal axes: (cart. coord. in units of alat)
               a(1) = (  0.5000  0.5000  0.5000 )  
               a(2) = ( -0.5000  0.5000  0.5000 )  
               a(3) = ( -0.5000 -0.5000  0.5000 )  

     reciprocal axes: (cart. coord. in units 2 pi/alat)
               b(1) = (  1.0000  0.0000  1.0000 )  
               b(2) = ( -1.0000  1.0000  0.0000 )  
               b(3) = (  0.0000 -1.0000  1.0000 )  


     Atoms inside the unit cell: 

     Cartesian axes

     site n.  atom      mass           positions (alat units)
        1     Na  22.9900   tau(    1) = (    0.00000    0.00000    0.00000  )

     Computing dynamical matrix for 
                    q = (   0.0000000   0.5000000  -0.5000000 )

      9 Sym.Ops. (with q -> -q+G )


     G cutoff =  501.7350  (   5866 G-vectors)     FFT grid: ( 40, 40, 40)
     G cutoff =  250.8675  (   2098 G-vectors)  smooth grid: ( 27, 27, 27)

     number of k points=   840  Marzari-Vanderbilt smearing, width (Ry)=  0.0200

     PseudoPot. # 1 for Na read from file:
     /home/s1333534/quantum_espresso/qe-6.1/pseudo/Na_pbe_v1.uspp.F.UPF
     MD5 check sum: 76a99c7e9422403d3e93cbc85ab7bccb
     Pseudo is Ultrasoft, Zval =  9.0
     Generated by new atomic code, or converted to UPF format
     Using radial grid of  819 points,  5 beta functions with: 
                l(1) =   0
                l(2) =   0
                l(3) =   1
                l(4) =   1
                l(5) =   2
     Q(r) pseudized with  8 coefficients,  rinner =    1.250   1.250   1.250
                                                       1.250   1.250

     Mode symmetry, D_2h (mmm)  point group:


     Atomic displacements:
     There are   3 irreducible representations

     Representation     1      1 modes -B_1u  To be done

     Representation     2      1 modes -B_2u  To be done

     Representation     3      1 modes -B_3u  To be done



     Alpha used in Ewald sum =   2.8000
     PHONON       : 10m 3.73s CPU    10m46.60s WALL



     Representation #  1 mode #   1

     Self-consistent Calculation

      iter #   1 total cpu time :   650.6 secs   av.it.:   5.5
      thresh= 1.000E-02 alpha_mix =  0.700 |ddv_scf|^2 =  1.561E-05

      iter #   2 total cpu time :   655.0 secs   av.it.:   7.6
      thresh= 3.951E-04 alpha_mix =  0.700 |ddv_scf|^2 =  2.315E-07

      iter #   3 total cpu time :   659.4 secs   av.it.:   7.7
      thresh= 4.811E-05 alpha_mix =  0.700 |ddv_scf|^2 =  1.497E-08

      iter #   4 total cpu time :   663.5 secs   av.it.:   7.1
      thresh= 1.224E-05 alpha_mix =  0.700 |ddv_scf|^2 =  4.814E-11

      iter #   5 total cpu time :   667.9 secs   av.it.:   7.5
      thresh= 6.938E-07 alpha_mix =  0.700 |ddv_scf|^2 =  4.504E-14

     End of self-consistent calculation

     Convergence has been achieved 


     Representation #  2 mode #   2

     Self-consistent Calculation

      iter #   1 total cpu time :   671.9 secs   av.it.:   5.5
      thresh= 1.000E-02 alpha_mix =  0.700 |ddv_scf|^2 =  1.372E-05

      iter #   2 total cpu time :   676.3 secs   av.it.:   7.6
      thresh= 3.704E-04 alpha_mix =  0.700 |ddv_scf|^2 =  2.314E-07

      iter #   3 total cpu time :   680.8 secs   av.it.:   7.7
      thresh= 4.810E-05 alpha_mix =  0.700 |ddv_scf|^2 =  7.654E-09

      iter #   4 total cpu time :   685.0 secs   av.it.:   7.1
      thresh= 8.749E-06 alpha_mix =  0.700 |ddv_scf|^2 =  2.359E-11

      iter #   5 total cpu time :   689.3 secs   av.it.:   7.5
      thresh= 4.857E-07 alpha_mix =  0.700 |ddv_scf|^2 =  2.767E-14

     End of self-consistent calculation

     Convergence has been achieved 


     Representation #  3 mode #   3

     Self-consistent Calculation

      iter #   1 total cpu time :   693.5 secs   av.it.:   5.6
      thresh= 1.000E-02 alpha_mix =  0.700 |ddv_scf|^2 =  1.138E-04

      iter #   2 total cpu time :   697.4 secs   av.it.:   6.7
      thresh= 1.067E-03 alpha_mix =  0.700 |ddv_scf|^2 =  5.615E-05

      iter #   3 total cpu time :   701.3 secs   av.it.:   6.4
      thresh= 7.493E-04 alpha_mix =  0.700 |ddv_scf|^2 =  9.122E-08

      iter #   4 total cpu time :   705.7 secs   av.it.:   7.7
      thresh= 3.020E-05 alpha_mix =  0.700 |ddv_scf|^2 =  3.313E-10

      iter #   5 total cpu time :   709.7 secs   av.it.:   6.6
      thresh= 1.820E-06 alpha_mix =  0.700 |ddv_scf|^2 =  5.713E-12

      iter #   6 total cpu time :   713.6 secs   av.it.:   6.6
      thresh= 2.390E-07 alpha_mix =  0.700 |ddv_scf|^2 =  2.114E-14

     End of self-consistent calculation

     Convergence has been achieved 

     Number of q in the star =    6
     List of q in the star:
          1   0.000000000   0.500000000  -0.500000000
          2  -0.500000000   0.500000000   0.000000000
          3   0.500000000   0.000000000   0.500000000
          4   0.500000000   0.000000000  -0.500000000
          5   0.000000000   0.500000000   0.500000000
          6   0.500000000   0.500000000   0.000000000

     Diagonalizing the dynamical matrix

     q = (    0.000000000   0.500000000  -0.500000000 ) 

 **************************************************************************
     freq (    1) =       0.711131 [THz] =      23.720770 [cm-1]
     freq (    2) =       2.516282 [THz] =      83.934132 [cm-1]
     freq (    3) =       4.123206 [THz] =     137.535347 [cm-1]
 **************************************************************************

     Mode symmetry, D_2h (mmm)  point group:

     freq (  1 -  1) =         23.7  [cm-1]   --> B_2u               
     freq (  2 -  2) =         83.9  [cm-1]   --> B_1u               
     freq (  3 -  3) =        137.5  [cm-1]   --> B_3u               

     Calculation of q =   -0.1250000  -0.1250000   0.2500000

   Info: using nr1, nr2, nr3 values from input

   Info: using nr1, nr2, nr3 values from input

     Parallelization info
     --------------------
     sticks:   dense  smooth     PW     G-vecs:    dense   smooth      PW
     Min         278     139     45                 5862     2097     400
     Max         279     140     46                 5865     2099     401
     Sum        1113     557    181                23455     8391    1601



     bravais-lattice index     =            3
     lattice parameter (alat)  =       7.8676  a.u.
     unit-cell volume          =     243.4985 (a.u.)^3
     number of atoms/cell      =            1
     number of atomic types    =            1
     number of electrons       =         9.00
     number of Kohn-Sham states=            9
     kinetic-energy cutoff     =      40.0000  Ry
     charge density cutoff     =     320.0000  Ry
     Exchange-correlation      = SLA  PW   PBE  PBE ( 1  4  3  4 0 0)

     celldm(1)=   7.867596  celldm(2)=   0.000000  celldm(3)=   0.000000
     celldm(4)=   0.000000  celldm(5)=   0.000000  celldm(6)=   0.000000

     crystal axes: (cart. coord. in units of alat)
               a(1) = (   0.500000   0.500000   0.500000 )  
               a(2) = (  -0.500000   0.500000   0.500000 )  
               a(3) = (  -0.500000  -0.500000   0.500000 )  

     reciprocal axes: (cart. coord. in units 2 pi/alat)
               b(1) = (  1.000000  0.000000  1.000000 )  
               b(2) = ( -1.000000  1.000000  0.000000 )  
               b(3) = (  0.000000 -1.000000  1.000000 )  


     PseudoPot. # 1 for Na read from file:
     /home/s1333534/quantum_espresso/qe-6.1/pseudo/Na_pbe_v1.uspp.F.UPF
     MD5 check sum: 76a99c7e9422403d3e93cbc85ab7bccb
     Pseudo is Ultrasoft, Zval =  9.0
     Generated by new atomic code, or converted to UPF format
     Using radial grid of  819 points,  5 beta functions with: 
                l(1) =   0
                l(2) =   0
                l(3) =   1
                l(4) =   1
                l(5) =   2
     Q(r) pseudized with  8 coefficients,  rinner =    1.250   1.250   1.250
                                                       1.250   1.250

     atomic species   valence    mass     pseudopotential
        Na             9.00    22.99000     Na( 1.00)

     48 Sym. Ops., with inversion, found



   Cartesian axes

     site n.     atom                  positions (alat units)
         1           Na  tau(   1) = (   0.0000000   0.0000000   0.0000000  )

     number of k points=  2940  Marzari-Vanderbilt smearing, width (Ry)=  0.0200

     Number of k-points >= 100: set verbosity='high' to print them.

     Dense  grid:    23455 G-vectors     FFT dimensions: (  40,  40,  40)

     Smooth grid:     8391 G-vectors     FFT dimensions: (  27,  27,  27)

     Estimated max dynamical RAM per process >       2.19MB

     Estimated total allocated dynamical RAM >       8.76MB

     The potential is recalculated from file :
     ./_ph0/na.bcc.save/charge-density.dat

     Starting wfc are    5 atomic +    4 random wfc

     Band Structure Calculation
     Davidson diagonalization with overlap

     ethr =  1.11E-10,  avg # of iterations = 21.2

     total cpu time spent up to now is      256.2 secs

     End of band structure calculation

     Number of k-points >= 100: set verbosity='high' to print the bands.

     the Fermi energy is     1.7284 ev

     Writing output data file na.bcc.save

                                                                                

     bravais-lattice index     =            3
     lattice parameter (alat)  =       7.8676  a.u.
     unit-cell volume          =     243.4985 (a.u.)^3
     number of atoms/cell      =            1
     number of atomic types    =            1
     kinetic-energy cut-off    =      40.0000  Ry
     charge density cut-off    =     320.0000  Ry
     convergence threshold     =      1.0E-12
     beta                      =       0.7000
     number of iterations used =            4
     Exchange-correlation      = SLA  PW   PBE  PBE ( 1  4  3  4 0 0)


     celldm(1)=    7.86760  celldm(2)=    0.00000  celldm(3)=    0.00000
     celldm(4)=    0.00000  celldm(5)=    0.00000  celldm(6)=    0.00000

     crystal axes: (cart. coord. in units of alat)
               a(1) = (  0.5000  0.5000  0.5000 )  
               a(2) = ( -0.5000  0.5000  0.5000 )  
               a(3) = ( -0.5000 -0.5000  0.5000 )  

     reciprocal axes: (cart. coord. in units 2 pi/alat)
               b(1) = (  1.0000  0.0000  1.0000 )  
               b(2) = ( -1.0000  1.0000  0.0000 )  
               b(3) = (  0.0000 -1.0000  1.0000 )  


     Atoms inside the unit cell: 

     Cartesian axes

     site n.  atom      mass           positions (alat units)
        1     Na  22.9900   tau(    1) = (    0.00000    0.00000    0.00000  )

     Computing dynamical matrix for 
                    q = (  -0.1250000  -0.1250000   0.2500000 )

      2 Sym.Ops. (no q -> -q+G )


     G cutoff =  501.7350  (   5863 G-vectors)     FFT grid: ( 40, 40, 40)
     G cutoff =  250.8675  (   2098 G-vectors)  smooth grid: ( 27, 27, 27)

     number of k points=  2940  Marzari-Vanderbilt smearing, width (Ry)=  0.0200

     PseudoPot. # 1 for Na read from file:
     /home/s1333534/quantum_espresso/qe-6.1/pseudo/Na_pbe_v1.uspp.F.UPF
     MD5 check sum: 76a99c7e9422403d3e93cbc85ab7bccb
     Pseudo is Ultrasoft, Zval =  9.0
     Generated by new atomic code, or converted to UPF format
     Using radial grid of  819 points,  5 beta functions with: 
                l(1) =   0
                l(2) =   0
                l(3) =   1
                l(4) =   1
                l(5) =   2
     Q(r) pseudized with  8 coefficients,  rinner =    1.250   1.250   1.250
                                                       1.250   1.250

     Mode symmetry, C_s (m)     point group:


     Atomic displacements:
     There are   3 irreducible representations

     Representation     1      1 modes -A'  To be done

     Representation     2      1 modes -A'  To be done

     Representation     3      1 modes -A''  To be done



     Alpha used in Ewald sum =   2.8000
     PHONON       : 12m36.60s CPU    13m29.16s WALL



     Representation #  1 mode #   1

     Self-consistent Calculation

      iter #   1 total cpu time :   823.0 secs   av.it.:   5.6
      thresh= 1.000E-02 alpha_mix =  0.700 |ddv_scf|^2 =  6.963E-04

      iter #   2 total cpu time :   836.7 secs   av.it.:   6.7
      thresh= 2.639E-03 alpha_mix =  0.700 |ddv_scf|^2 =  3.086E-02

      iter #   3 total cpu time :   848.1 secs   av.it.:   4.8
      thresh= 1.000E-02 alpha_mix =  0.700 |ddv_scf|^2 =  2.853E-07

      iter #   4 total cpu time :   863.9 secs   av.it.:   8.1
      thresh= 5.342E-05 alpha_mix =  0.700 |ddv_scf|^2 =  8.031E-09

      iter #   5 total cpu time :   879.2 secs   av.it.:   7.8
      thresh= 8.961E-06 alpha_mix =  0.700 |ddv_scf|^2 =  6.646E-10

      iter #   6 total cpu time :   894.4 secs   av.it.:   7.7
      thresh= 2.578E-06 alpha_mix =  0.700 |ddv_scf|^2 =  4.759E-10

      iter #   7 total cpu time :   906.5 secs   av.it.:   5.7
      thresh= 2.182E-06 alpha_mix =  0.700 |ddv_scf|^2 =  1.131E-10

      iter #   8 total cpu time :   921.0 secs   av.it.:   7.2
      thresh= 1.064E-06 alpha_mix =  0.700 |ddv_scf|^2 =  6.609E-11

      iter #   9 total cpu time :   932.8 secs   av.it.:   5.5
      thresh= 8.129E-07 alpha_mix =  0.700 |ddv_scf|^2 =  4.100E-12

      iter #  10 total cpu time :   947.7 secs   av.it.:   7.4
      thresh= 2.025E-07 alpha_mix =  0.700 |ddv_scf|^2 =  2.567E-14

     End of self-consistent calculation

     Convergence has been achieved 


     Representation #  2 mode #   2

     Self-consistent Calculation

      iter #   1 total cpu time :   962.0 secs   av.it.:   5.7
      thresh= 1.000E-02 alpha_mix =  0.700 |ddv_scf|^2 =  6.174E-03

      iter #   2 total cpu time :   974.9 secs   av.it.:   6.1
      thresh= 7.857E-03 alpha_mix =  0.700 |ddv_scf|^2 =  2.783E-01

      iter #   3 total cpu time :   987.4 secs   av.it.:   5.9
      thresh= 1.000E-02 alpha_mix =  0.700 |ddv_scf|^2 =  2.957E-06

      iter #   4 total cpu time :  1002.1 secs   av.it.:   7.3
      thresh= 1.720E-04 alpha_mix =  0.700 |ddv_scf|^2 =  2.543E-08

      iter #   5 total cpu time :  1017.9 secs   av.it.:   7.8
      thresh= 1.595E-05 alpha_mix =  0.700 |ddv_scf|^2 =  2.477E-09

      iter #   6 total cpu time :  1033.1 secs   av.it.:   7.7
      thresh= 4.977E-06 alpha_mix =  0.700 |ddv_scf|^2 =  8.824E-10

      iter #   7 total cpu time :  1046.8 secs   av.it.:   6.8
      thresh= 2.971E-06 alpha_mix =  0.700 |ddv_scf|^2 =  3.103E-09

      iter #   8 total cpu time :  1059.9 secs   av.it.:   6.3
      thresh= 5.571E-06 alpha_mix =  0.700 |ddv_scf|^2 =  3.014E-12

      iter #   9 total cpu time :  1074.1 secs   av.it.:   7.0
      thresh= 1.736E-07 alpha_mix =  0.700 |ddv_scf|^2 =  1.479E-13

     End of self-consistent calculation

     Convergence has been achieved 


     Representation #  3 mode #   3

     Self-consistent Calculation

      iter #   1 total cpu time :  1088.0 secs   av.it.:   5.5
      thresh= 1.000E-02 alpha_mix =  0.700 |ddv_scf|^2 =  1.420E-05

      iter #   2 total cpu time :  1103.4 secs   av.it.:   7.6
      thresh= 3.769E-04 alpha_mix =  0.700 |ddv_scf|^2 =  2.334E-07

      iter #   3 total cpu time :  1119.0 secs   av.it.:   7.8
      thresh= 4.832E-05 alpha_mix =  0.700 |ddv_scf|^2 =  9.246E-09

      iter #   4 total cpu time :  1133.9 secs   av.it.:   7.5
      thresh= 9.615E-06 alpha_mix =  0.700 |ddv_scf|^2 =  4.292E-11

      iter #   5 total cpu time :  1149.1 secs   av.it.:   7.7
      thresh= 6.552E-07 alpha_mix =  0.700 |ddv_scf|^2 =  4.193E-14

     End of self-consistent calculation

     Convergence has been achieved 

     Number of q in the star =   24
     List of q in the star:
          1  -0.125000000  -0.125000000   0.250000000
          2  -0.125000000  -0.250000000   0.125000000
          3   0.125000000  -0.250000000   0.125000000
          4  -0.125000000   0.125000000  -0.250000000
          5  -0.125000000   0.250000000  -0.125000000
          6   0.125000000   0.125000000  -0.250000000
          7   0.125000000   0.250000000  -0.125000000
          8   0.125000000  -0.250000000  -0.125000000
          9  -0.250000000   0.125000000  -0.125000000
         10   0.250000000   0.125000000   0.125000000
         11   0.125000000   0.125000000   0.250000000
         12  -0.250000000  -0.125000000   0.125000000
         13   0.250000000  -0.125000000  -0.125000000
         14   0.125000000  -0.125000000  -0.250000000
         15   0.125000000  -0.125000000   0.250000000
         16   0.125000000   0.250000000   0.125000000
         17  -0.125000000  -0.125000000  -0.250000000
         18  -0.125000000   0.125000000   0.250000000
         19  -0.125000000   0.250000000   0.125000000
         20  -0.125000000  -0.250000000  -0.125000000
         21   0.250000000   0.125000000  -0.125000000
         22  -0.250000000   0.125000000   0.125000000
         23   0.250000000  -0.125000000   0.125000000
         24  -0.250000000  -0.125000000  -0.125000000

     Diagonalizing the dynamical matrix

     q = (   -0.125000000  -0.125000000   0.250000000 ) 

 **************************************************************************
     freq (    1) =       1.424132 [THz] =      47.503923 [cm-1]
     freq (    2) =       1.513199 [THz] =      50.474892 [cm-1]
     freq (    3) =       2.832208 [THz] =      94.472305 [cm-1]
 **************************************************************************

     Mode symmetry, C_s (m)     point group:

     freq (  1 -  1) =         47.5  [cm-1]   --> A'                 
     freq (  2 -  2) =         50.5  [cm-1]   --> A''                
     freq (  3 -  3) =         94.5  [cm-1]   --> A'                 

     Calculation of q =   -0.1250000  -0.2500000   0.3750000

   Info: using nr1, nr2, nr3 values from input

   Info: using nr1, nr2, nr3 values from input

     Parallelization info
     --------------------
     sticks:   dense  smooth     PW     G-vecs:    dense   smooth      PW
     Min         278     139     49                 5863     2097     430
     Max         279     140     50                 5865     2099     431
     Sum        1113     557    197                23455     8391    1721



     bravais-lattice index     =            3
     lattice parameter (alat)  =       7.8676  a.u.
     unit-cell volume          =     243.4985 (a.u.)^3
     number of atoms/cell      =            1
     number of atomic types    =            1
     number of electrons       =         9.00
     number of Kohn-Sham states=            9
     kinetic-energy cutoff     =      40.0000  Ry
     charge density cutoff     =     320.0000  Ry
     Exchange-correlation      = SLA  PW   PBE  PBE ( 1  4  3  4 0 0)

     celldm(1)=   7.867596  celldm(2)=   0.000000  celldm(3)=   0.000000
     celldm(4)=   0.000000  celldm(5)=   0.000000  celldm(6)=   0.000000

     crystal axes: (cart. coord. in units of alat)
               a(1) = (   0.500000   0.500000   0.500000 )  
               a(2) = (  -0.500000   0.500000   0.500000 )  
               a(3) = (  -0.500000  -0.500000   0.500000 )  

     reciprocal axes: (cart. coord. in units 2 pi/alat)
               b(1) = (  1.000000  0.000000  1.000000 )  
               b(2) = ( -1.000000  1.000000  0.000000 )  
               b(3) = (  0.000000 -1.000000  1.000000 )  


     PseudoPot. # 1 for Na read from file:
     /home/s1333534/quantum_espresso/qe-6.1/pseudo/Na_pbe_v1.uspp.F.UPF
     MD5 check sum: 76a99c7e9422403d3e93cbc85ab7bccb
     Pseudo is Ultrasoft, Zval =  9.0
     Generated by new atomic code, or converted to UPF format
     Using radial grid of  819 points,  5 beta functions with: 
                l(1) =   0
                l(2) =   0
                l(3) =   1
                l(4) =   1
                l(5) =   2
     Q(r) pseudized with  8 coefficients,  rinner =    1.250   1.250   1.250
                                                       1.250   1.250

     atomic species   valence    mass     pseudopotential
        Na             9.00    22.99000     Na( 1.00)

     48 Sym. Ops., with inversion, found



   Cartesian axes

     site n.     atom                  positions (alat units)
         1           Na  tau(   1) = (   0.0000000   0.0000000   0.0000000  )

     number of k points=  5488  Marzari-Vanderbilt smearing, width (Ry)=  0.0200

     Number of k-points >= 100: set verbosity='high' to print them.

     Dense  grid:    23455 G-vectors     FFT dimensions: (  40,  40,  40)

     Smooth grid:     8391 G-vectors     FFT dimensions: (  27,  27,  27)

     Estimated max dynamical RAM per process >       2.19MB

     Estimated total allocated dynamical RAM >       8.76MB

     The potential is recalculated from file :
     ./_ph0/na.bcc.save/charge-density.dat

     Starting wfc are    5 atomic +    4 random wfc

     Band Structure Calculation
     Davidson diagonalization with overlap

     ethr =  1.11E-10,  avg # of iterations = 21.0

     total cpu time spent up to now is      421.1 secs

     End of band structure calculation

     Number of k-points >= 100: set verbosity='high' to print the bands.

     the Fermi energy is     1.7284 ev

     Writing output data file na.bcc.save

                                                                                

     bravais-lattice index     =            3
     lattice parameter (alat)  =       7.8676  a.u.
     unit-cell volume          =     243.4985 (a.u.)^3
     number of atoms/cell      =            1
     number of atomic types    =            1
     kinetic-energy cut-off    =      40.0000  Ry
     charge density cut-off    =     320.0000  Ry
     convergence threshold     =      1.0E-12
     beta                      =       0.7000
     number of iterations used =            4
     Exchange-correlation      = SLA  PW   PBE  PBE ( 1  4  3  4 0 0)


     celldm(1)=    7.86760  celldm(2)=    0.00000  celldm(3)=    0.00000
     celldm(4)=    0.00000  celldm(5)=    0.00000  celldm(6)=    0.00000

     crystal axes: (cart. coord. in units of alat)
               a(1) = (  0.5000  0.5000  0.5000 )  
               a(2) = ( -0.5000  0.5000  0.5000 )  
               a(3) = ( -0.5000 -0.5000  0.5000 )  

     reciprocal axes: (cart. coord. in units 2 pi/alat)
               b(1) = (  1.0000  0.0000  1.0000 )  
               b(2) = ( -1.0000  1.0000  0.0000 )  
               b(3) = (  0.0000 -1.0000  1.0000 )  


     Atoms inside the unit cell: 

     Cartesian axes

     site n.  atom      mass           positions (alat units)
        1     Na  22.9900   tau(    1) = (    0.00000    0.00000    0.00000  )

     Computing dynamical matrix for 
                    q = (  -0.1250000  -0.2500000   0.3750000 )

     No symmetry!

     G cutoff =  501.7350  (   5863 G-vectors)     FFT grid: ( 40, 40, 40)
     G cutoff =  250.8675  (   2098 G-vectors)  smooth grid: ( 27, 27, 27)

     number of k points=  5488  Marzari-Vanderbilt smearing, width (Ry)=  0.0200

     PseudoPot. # 1 for Na read from file:
     /home/s1333534/quantum_espresso/qe-6.1/pseudo/Na_pbe_v1.uspp.F.UPF
     MD5 check sum: 76a99c7e9422403d3e93cbc85ab7bccb
     Pseudo is Ultrasoft, Zval =  9.0
     Generated by new atomic code, or converted to UPF format
     Using radial grid of  819 points,  5 beta functions with: 
                l(1) =   0
                l(2) =   0
                l(3) =   1
                l(4) =   1
                l(5) =   2
     Q(r) pseudized with  8 coefficients,  rinner =    1.250   1.250   1.250
                                                       1.250   1.250

     Mode symmetry, C_1 (1)     point group:


     Atomic displacements:
     There are   3 irreducible representations

     Representation     1      1 modes -A  To be done

     Representation     2      1 modes -A  To be done

     Representation     3      1 modes -A  To be done



     Alpha used in Ewald sum =   2.8000
     PHONON       : 20m39.85s CPU    22m 7.54s WALL



     Representation #  1 mode #   1

     Self-consistent Calculation

      iter #   1 total cpu time :  1353.9 secs   av.it.:   5.7
      thresh= 1.000E-02 alpha_mix =  0.700 |ddv_scf|^2 =  2.152E-05

      iter #   2 total cpu time :  1384.0 secs   av.it.:   7.9
      thresh= 4.639E-04 alpha_mix =  0.700 |ddv_scf|^2 =  4.391E-05

      iter #   3 total cpu time :  1408.7 secs   av.it.:   6.1
      thresh= 6.627E-04 alpha_mix =  0.700 |ddv_scf|^2 =  4.247E-06

      iter #   4 total cpu time :  1435.8 secs   av.it.:   7.1
      thresh= 2.061E-04 alpha_mix =  0.700 |ddv_scf|^2 =  6.128E-09

      iter #   5 total cpu time :  1464.9 secs   av.it.:   7.9
      thresh= 7.828E-06 alpha_mix =  0.700 |ddv_scf|^2 =  1.459E-10

      iter #   6 total cpu time :  1495.1 secs   av.it.:   8.1
      thresh= 1.208E-06 alpha_mix =  0.700 |ddv_scf|^2 =  5.578E-12

      iter #   7 total cpu time :  1525.4 secs   av.it.:   8.4
      thresh= 2.362E-07 alpha_mix =  0.700 |ddv_scf|^2 =  6.466E-13

     End of self-consistent calculation

     Convergence has been achieved 


     Representation #  2 mode #   2

     Self-consistent Calculation

      iter #   1 total cpu time :  1552.4 secs   av.it.:   5.8
      thresh= 1.000E-02 alpha_mix =  0.700 |ddv_scf|^2 =  2.999E-04

      iter #   2 total cpu time :  1579.8 secs   av.it.:   7.1
      thresh= 1.732E-03 alpha_mix =  0.700 |ddv_scf|^2 =  1.715E-03

      iter #   3 total cpu time :  1602.8 secs   av.it.:   5.7
      thresh= 4.141E-03 alpha_mix =  0.700 |ddv_scf|^2 =  2.495E-07

      iter #   4 total cpu time :  1633.5 secs   av.it.:   8.2
      thresh= 4.995E-05 alpha_mix =  0.700 |ddv_scf|^2 =  8.635E-09

      iter #   5 total cpu time :  1663.5 secs   av.it.:   8.2
      thresh= 9.292E-06 alpha_mix =  0.700 |ddv_scf|^2 =  5.089E-10

      iter #   6 total cpu time :  1693.5 secs   av.it.:   8.3
      thresh= 2.256E-06 alpha_mix =  0.700 |ddv_scf|^2 =  2.326E-11

      iter #   7 total cpu time :  1722.9 secs   av.it.:   8.0
      thresh= 4.823E-07 alpha_mix =  0.700 |ddv_scf|^2 =  2.513E-12

      iter #   8 total cpu time :  1751.8 secs   av.it.:   7.7
      thresh= 1.585E-07 alpha_mix =  0.700 |ddv_scf|^2 =  8.275E-12

      iter #   9 total cpu time :  1776.8 secs   av.it.:   6.3
      thresh= 2.877E-07 alpha_mix =  0.700 |ddv_scf|^2 =  1.944E-14

     End of self-consistent calculation

     Convergence has been achieved 


     Representation #  3 mode #   3

     Self-consistent Calculation

      iter #   1 total cpu time :  1804.1 secs   av.it.:   5.8
      thresh= 1.000E-02 alpha_mix =  0.700 |ddv_scf|^2 =  2.911E-04

      iter #   2 total cpu time :  1831.0 secs   av.it.:   7.1
      thresh= 1.706E-03 alpha_mix =  0.700 |ddv_scf|^2 =  1.646E-03

      iter #   3 total cpu time :  1854.5 secs   av.it.:   5.7
      thresh= 4.057E-03 alpha_mix =  0.700 |ddv_scf|^2 =  2.070E-07

      iter #   4 total cpu time :  1884.6 secs   av.it.:   8.2
      thresh= 4.550E-05 alpha_mix =  0.700 |ddv_scf|^2 =  9.330E-09

      iter #   5 total cpu time :  1915.2 secs   av.it.:   8.3
      thresh= 9.659E-06 alpha_mix =  0.700 |ddv_scf|^2 =  3.671E-10

      iter #   6 total cpu time :  1945.6 secs   av.it.:   8.3
      thresh= 1.916E-06 alpha_mix =  0.700 |ddv_scf|^2 =  2.518E-11

      iter #   7 total cpu time :  1975.0 secs   av.it.:   8.0
      thresh= 5.018E-07 alpha_mix =  0.700 |ddv_scf|^2 =  1.072E-12

      iter #   8 total cpu time :  2002.7 secs   av.it.:   7.4
      thresh= 1.035E-07 alpha_mix =  0.700 |ddv_scf|^2 =  2.489E-12

      iter #   9 total cpu time :  2027.3 secs   av.it.:   6.2
      thresh= 1.578E-07 alpha_mix =  0.700 |ddv_scf|^2 =  1.397E-13

     End of self-consistent calculation

     Convergence has been achieved 

     Number of q in the star =   48
     List of q in the star:
          1  -0.125000000  -0.250000000   0.375000000
          2  -0.250000000  -0.125000000   0.375000000
          3  -0.125000000  -0.375000000   0.250000000
          4   0.125000000  -0.375000000   0.250000000
          5  -0.125000000   0.250000000  -0.375000000
          6  -0.125000000   0.375000000  -0.250000000
          7   0.125000000   0.250000000  -0.375000000
          8   0.125000000   0.375000000  -0.250000000
          9   0.250000000  -0.375000000  -0.125000000
         10  -0.375000000   0.125000000  -0.250000000
         11   0.375000000   0.125000000   0.250000000
         12   0.250000000   0.125000000   0.375000000
         13  -0.375000000  -0.125000000   0.250000000
         14   0.375000000  -0.125000000  -0.250000000
         15   0.125000000  -0.250000000  -0.375000000
         16   0.250000000  -0.125000000  -0.375000000
         17  -0.250000000   0.125000000  -0.375000000
         18  -0.375000000  -0.250000000   0.125000000
         19  -0.375000000   0.250000000  -0.125000000
         20   0.375000000   0.250000000   0.125000000
         21   0.250000000  -0.125000000   0.375000000
         22  -0.250000000   0.375000000  -0.125000000
         23   0.125000000  -0.375000000  -0.250000000
         24   0.125000000   0.375000000   0.250000000
         25   0.250000000   0.125000000  -0.375000000
         26  -0.125000000  -0.250000000  -0.375000000
         27  -0.250000000   0.125000000   0.375000000
         28  -0.125000000   0.375000000   0.250000000
         29  -0.125000000   0.250000000   0.375000000
         30   0.125000000  -0.250000000   0.375000000
         31  -0.125000000  -0.375000000  -0.250000000
         32   0.125000000   0.250000000   0.375000000
         33   0.375000000  -0.250000000  -0.125000000
         34   0.250000000   0.375000000   0.125000000
         35  -0.250000000  -0.375000000   0.125000000
         36   0.375000000   0.250000000  -0.125000000
         37  -0.375000000   0.250000000   0.125000000
         38   0.375000000  -0.250000000   0.125000000
         39  -0.375000000  -0.250000000  -0.125000000
         40  -0.250000000  -0.125000000  -0.375000000
         41   0.250000000  -0.375000000   0.125000000
         42  -0.250000000  -0.375000000  -0.125000000
         43   0.250000000   0.375000000  -0.125000000
         44  -0.250000000   0.375000000   0.125000000
         45  -0.375000000   0.125000000   0.250000000
         46  -0.375000000  -0.125000000  -0.250000000
         47   0.375000000  -0.125000000   0.250000000
         48   0.375000000   0.125000000  -0.250000000

     Diagonalizing the dynamical matrix

     q = (   -0.125000000  -0.250000000   0.375000000 ) 

 **************************************************************************
     freq (    1) =       1.888462 [THz] =      62.992319 [cm-1]
     freq (    2) =       2.401100 [THz] =      80.092072 [cm-1]
     freq (    3) =       3.497691 [THz] =     116.670399 [cm-1]
 **************************************************************************

     Mode symmetry, C_1 (1)     point group:

     freq (  1 -  1) =         63.0  [cm-1]   --> A                  
     freq (  2 -  2) =         80.1  [cm-1]   --> A                  
     freq (  3 -  3) =        116.7  [cm-1]   --> A                  

     Calculation of q =   -0.1250000   0.6250000  -0.5000000

   Info: using nr1, nr2, nr3 values from input

   Info: using nr1, nr2, nr3 values from input

     Parallelization info
     --------------------
     sticks:   dense  smooth     PW     G-vecs:    dense   smooth      PW
     Min         278     139     51                 5863     2097     466
     Max         279     140     52                 5866     2099     467
     Sum        1113     557    205                23455     8391    1865



     bravais-lattice index     =            3
     lattice parameter (alat)  =       7.8676  a.u.
     unit-cell volume          =     243.4985 (a.u.)^3
     number of atoms/cell      =            1
     number of atomic types    =            1
     number of electrons       =         9.00
     number of Kohn-Sham states=            9
     kinetic-energy cutoff     =      40.0000  Ry
     charge density cutoff     =     320.0000  Ry
     Exchange-correlation      = SLA  PW   PBE  PBE ( 1  4  3  4 0 0)

     celldm(1)=   7.867596  celldm(2)=   0.000000  celldm(3)=   0.000000
     celldm(4)=   0.000000  celldm(5)=   0.000000  celldm(6)=   0.000000

     crystal axes: (cart. coord. in units of alat)
               a(1) = (   0.500000   0.500000   0.500000 )  
               a(2) = (  -0.500000   0.500000   0.500000 )  
               a(3) = (  -0.500000  -0.500000   0.500000 )  

     reciprocal axes: (cart. coord. in units 2 pi/alat)
               b(1) = (  1.000000  0.000000  1.000000 )  
               b(2) = ( -1.000000  1.000000  0.000000 )  
               b(3) = (  0.000000 -1.000000  1.000000 )  


     PseudoPot. # 1 for Na read from file:
     /home/s1333534/quantum_espresso/qe-6.1/pseudo/Na_pbe_v1.uspp.F.UPF
     MD5 check sum: 76a99c7e9422403d3e93cbc85ab7bccb
     Pseudo is Ultrasoft, Zval =  9.0
     Generated by new atomic code, or converted to UPF format
     Using radial grid of  819 points,  5 beta functions with: 
                l(1) =   0
                l(2) =   0
                l(3) =   1
                l(4) =   1
                l(5) =   2
     Q(r) pseudized with  8 coefficients,  rinner =    1.250   1.250   1.250
                                                       1.250   1.250

     atomic species   valence    mass     pseudopotential
        Na             9.00    22.99000     Na( 1.00)

     48 Sym. Ops., with inversion, found



   Cartesian axes

     site n.     atom                  positions (alat units)
         1           Na  tau(   1) = (   0.0000000   0.0000000   0.0000000  )

     number of k points=  5488  Marzari-Vanderbilt smearing, width (Ry)=  0.0200

     Number of k-points >= 100: set verbosity='high' to print them.

     Dense  grid:    23455 G-vectors     FFT dimensions: (  40,  40,  40)

     Smooth grid:     8391 G-vectors     FFT dimensions: (  27,  27,  27)

     Estimated max dynamical RAM per process >       2.19MB

     Estimated total allocated dynamical RAM >       8.76MB

     The potential is recalculated from file :
     ./_ph0/na.bcc.save/charge-density.dat

     Starting wfc are    5 atomic +    4 random wfc

     Band Structure Calculation
     Davidson diagonalization with overlap

     ethr =  1.11E-10,  avg # of iterations = 21.0

     total cpu time spent up to now is      590.0 secs

     End of band structure calculation

     Number of k-points >= 100: set verbosity='high' to print the bands.

     the Fermi energy is     1.7284 ev

     Writing output data file na.bcc.save

                                                                                

     bravais-lattice index     =            3
     lattice parameter (alat)  =       7.8676  a.u.
     unit-cell volume          =     243.4985 (a.u.)^3
     number of atoms/cell      =            1
     number of atomic types    =            1
     kinetic-energy cut-off    =      40.0000  Ry
     charge density cut-off    =     320.0000  Ry
     convergence threshold     =      1.0E-12
     beta                      =       0.7000
     number of iterations used =            4
     Exchange-correlation      = SLA  PW   PBE  PBE ( 1  4  3  4 0 0)


     celldm(1)=    7.86760  celldm(2)=    0.00000  celldm(3)=    0.00000
     celldm(4)=    0.00000  celldm(5)=    0.00000  celldm(6)=    0.00000

     crystal axes: (cart. coord. in units of alat)
[...]
     Exchange-correlation      = SLA  PW   PBE  PBE ( 1  4  3  4 0 0)


     celldm(1)=    7.86760  celldm(2)=    0.00000  celldm(3)=    0.00000
     celldm(4)=    0.00000  celldm(5)=    0.00000  celldm(6)=    0.00000

     crystal axes: (cart. coord. in units of alat)
               a(1) = (  0.5000  0.5000  0.5000 )  
               a(2) = ( -0.5000  0.5000  0.5000 )  
               a(3) = ( -0.5000 -0.5000  0.5000 )  

     reciprocal axes: (cart. coord. in units 2 pi/alat)
               b(1) = (  1.0000  0.0000  1.0000 )  
               b(2) = ( -1.0000  1.0000  0.0000 )  
               b(3) = (  0.0000 -1.0000  1.0000 )  


     Atoms inside the unit cell: 

     Cartesian axes

     site n.  atom      mass           positions (alat units)
        1     Na  22.9900   tau(    1) = (    0.00000    0.00000    0.00000  )

     Computing dynamical matrix for 
                    q = (   0.0000000   0.8750000  -0.1250000 )

      4 Sym.Ops. (no q -> -q+G )


     G cutoff =  501.7350  (   5866 G-vectors)     FFT grid: ( 40, 40, 40)
     G cutoff =  250.8675  (   2098 G-vectors)  smooth grid: ( 27, 27, 27)

     number of k points=  1568  Marzari-Vanderbilt smearing, width (Ry)=  0.0200

     PseudoPot. # 1 for Na read from file:
     /home/s1333534/quantum_espresso/qe-6.1/pseudo/Na_pbe_v1.uspp.F.UPF
     MD5 check sum: 76a99c7e9422403d3e93cbc85ab7bccb
     Pseudo is Ultrasoft, Zval =  9.0
     Generated by new atomic code, or converted to UPF format
     Using radial grid of  819 points,  5 beta functions with: 
                l(1) =   0
                l(2) =   0
                l(3) =   1
                l(4) =   1
                l(5) =   2
     Q(r) pseudized with  8 coefficients,  rinner =    1.250   1.250   1.250
                                                       1.250   1.250

     Mode symmetry, C_2v (mm2)  point group:


     Atomic displacements:
     There are   3 irreducible representations

     Representation     1      1 modes -A_1  D_1  S_1  To be done

     Representation     2      1 modes -B_1  D_3  S_3  To be done

     Representation     3      1 modes -B_2  D_4  S_4  To be done



     Alpha used in Ewald sum =   2.8000
     PHONON       :     2h11m CPU        2h21m WALL



     Representation #  1 mode #   1

     Self-consistent Calculation

      iter #   1 total cpu time :  8517.5 secs   av.it.:   5.7
      thresh= 1.000E-02 alpha_mix =  0.700 |ddv_scf|^2 =  2.530E-05

      iter #   2 total cpu time :  8525.8 secs   av.it.:   7.7
      thresh= 5.030E-04 alpha_mix =  0.700 |ddv_scf|^2 =  8.438E-07

      iter #   3 total cpu time :  8534.0 secs   av.it.:   7.6
      thresh= 9.186E-05 alpha_mix =  0.700 |ddv_scf|^2 =  2.992E-08

      iter #   4 total cpu time :  8542.5 secs   av.it.:   8.0
      thresh= 1.730E-05 alpha_mix =  0.700 |ddv_scf|^2 =  1.533E-09

      iter #   5 total cpu time :  8551.3 secs   av.it.:   8.1
      thresh= 3.915E-06 alpha_mix =  0.700 |ddv_scf|^2 =  1.032E-10

      iter #   6 total cpu time :  8559.7 secs   av.it.:   7.9
      thresh= 1.016E-06 alpha_mix =  0.700 |ddv_scf|^2 =  7.875E-13

     End of self-consistent calculation

     Convergence has been achieved 


     Representation #  2 mode #   2

     Self-consistent Calculation

      iter #   1 total cpu time :  8567.3 secs   av.it.:   5.5
      thresh= 1.000E-02 alpha_mix =  0.700 |ddv_scf|^2 =  2.303E-05

      iter #   2 total cpu time :  8575.3 secs   av.it.:   7.5
      thresh= 4.799E-04 alpha_mix =  0.700 |ddv_scf|^2 =  3.253E-07

      iter #   3 total cpu time :  8583.5 secs   av.it.:   7.5
      thresh= 5.704E-05 alpha_mix =  0.700 |ddv_scf|^2 =  2.979E-08

      iter #   4 total cpu time :  8591.6 secs   av.it.:   7.5
      thresh= 1.726E-05 alpha_mix =  0.700 |ddv_scf|^2 =  1.209E-10

      iter #   5 total cpu time :  8599.6 secs   av.it.:   7.4
      thresh= 1.100E-06 alpha_mix =  0.700 |ddv_scf|^2 =  5.019E-14

     End of self-consistent calculation

     Convergence has been achieved 


     Representation #  3 mode #   3

     Self-consistent Calculation

      iter #   1 total cpu time :  8607.3 secs   av.it.:   5.6
      thresh= 1.000E-02 alpha_mix =  0.700 |ddv_scf|^2 =  3.133E-05

      iter #   2 total cpu time :  8615.4 secs   av.it.:   7.5
      thresh= 5.598E-04 alpha_mix =  0.700 |ddv_scf|^2 =  1.384E-06

      iter #   3 total cpu time :  8623.3 secs   av.it.:   7.3
      thresh= 1.176E-04 alpha_mix =  0.700 |ddv_scf|^2 =  3.558E-08

      iter #   4 total cpu time :  8631.4 secs   av.it.:   7.6
      thresh= 1.886E-05 alpha_mix =  0.700 |ddv_scf|^2 =  1.082E-09

      iter #   5 total cpu time :  8639.3 secs   av.it.:   7.3
      thresh= 3.290E-06 alpha_mix =  0.700 |ddv_scf|^2 =  2.869E-12

      iter #   6 total cpu time :  8647.7 secs   av.it.:   7.8
      thresh= 1.694E-07 alpha_mix =  0.700 |ddv_scf|^2 =  4.141E-15

     End of self-consistent calculation

     Convergence has been achieved 

     Number of q in the star =   12
     List of q in the star:
          1   0.000000000   0.875000000  -0.125000000
          2   0.000000000  -0.875000000  -0.125000000
          3   0.875000000   0.000000000  -0.125000000
          4  -0.875000000   0.000000000  -0.125000000
          5   0.125000000   0.000000000  -0.875000000
          6   0.125000000   0.875000000   0.000000000
          7   0.000000000   0.875000000   0.125000000
          8   0.875000000   0.000000000   0.125000000
          9   0.125000000  -0.875000000   0.000000000
         10  -0.125000000  -0.875000000   0.000000000
         11   0.875000000  -0.125000000   0.000000000
         12   0.000000000  -0.875000000   0.125000000

     Diagonalizing the dynamical matrix

     q = (    0.000000000   0.875000000  -0.125000000 ) 

 **************************************************************************
     freq (    1) =       3.663369 [THz] =     122.196844 [cm-1]
     freq (    2) =       3.933322 [THz] =     131.201504 [cm-1]
     freq (    3) =       4.217771 [THz] =     140.689681 [cm-1]
 **************************************************************************

     Mode symmetry, C_2v (mm2)  point group:

     freq (  1 -  1) =        122.2  [cm-1]   --> B_1  D_3  S_3      
     freq (  2 -  2) =        131.2  [cm-1]   --> B_2  D_4  S_4      
     freq (  3 -  3) =        140.7  [cm-1]   --> A_1  D_1  S_1      

     Calculation of q =    0.0000000   0.0000000  -1.0000000

   Info: using nr1, nr2, nr3 values from input

   Info: using nr1, nr2, nr3 values from input

     Parallelization info
     --------------------
     sticks:   dense  smooth     PW     G-vecs:    dense   smooth      PW
     Min         278     139     51                 5863     2097     466
     Max         279     140     52                 5866     2099     467
     Sum        1113     557    205                23455     8391    1865



     bravais-lattice index     =            3
     lattice parameter (alat)  =       7.8676  a.u.
     unit-cell volume          =     243.4985 (a.u.)^3
     number of atoms/cell      =            1
     number of atomic types    =            1
     number of electrons       =         9.00
     number of Kohn-Sham states=            9
     kinetic-energy cutoff     =      40.0000  Ry
     charge density cutoff     =     320.0000  Ry
     Exchange-correlation      = SLA  PW   PBE  PBE ( 1  4  3  4 0 0)

     celldm(1)=   7.867596  celldm(2)=   0.000000  celldm(3)=   0.000000
     celldm(4)=   0.000000  celldm(5)=   0.000000  celldm(6)=   0.000000

     crystal axes: (cart. coord. in units of alat)
               a(1) = (   0.500000   0.500000   0.500000 )  
               a(2) = (  -0.500000   0.500000   0.500000 )  
               a(3) = (  -0.500000  -0.500000   0.500000 )  

     reciprocal axes: (cart. coord. in units 2 pi/alat)
               b(1) = (  1.000000  0.000000  1.000000 )  
               b(2) = ( -1.000000  1.000000  0.000000 )  
               b(3) = (  0.000000 -1.000000  1.000000 )  


     PseudoPot. # 1 for Na read from file:
     /home/s1333534/quantum_espresso/qe-6.1/pseudo/Na_pbe_v1.uspp.F.UPF
     MD5 check sum: 76a99c7e9422403d3e93cbc85ab7bccb
     Pseudo is Ultrasoft, Zval =  9.0
     Generated by new atomic code, or converted to UPF format
     Using radial grid of  819 points,  5 beta functions with: 
                l(1) =   0
                l(2) =   0
                l(3) =   1
                l(4) =   1
                l(5) =   2
     Q(r) pseudized with  8 coefficients,  rinner =    1.250   1.250   1.250
                                                       1.250   1.250

     atomic species   valence    mass     pseudopotential
        Na             9.00    22.99000     Na( 1.00)

     48 Sym. Ops., with inversion, found



   Cartesian axes

     site n.     atom                  positions (alat units)
         1           Na  tau(   1) = (   0.0000000   0.0000000   0.0000000  )

     number of k points=   200  Marzari-Vanderbilt smearing, width (Ry)=  0.0200

     Number of k-points >= 100: set verbosity='high' to print them.

     Dense  grid:    23455 G-vectors     FFT dimensions: (  40,  40,  40)

     Smooth grid:     8391 G-vectors     FFT dimensions: (  27,  27,  27)

     Estimated max dynamical RAM per process >       2.19MB

     Estimated total allocated dynamical RAM >       8.76MB

     The potential is recalculated from file :
     ./_ph0/na.bcc.save/charge-density.dat

     Starting wfc are    5 atomic +    4 random wfc

     Band Structure Calculation
     Davidson diagonalization with overlap

     ethr =  1.11E-10,  avg # of iterations = 21.3

     total cpu time spent up to now is     1930.0 secs

     End of band structure calculation

     Number of k-points >= 100: set verbosity='high' to print the bands.

     the Fermi energy is     1.7284 ev

     Writing output data file na.bcc.save

                                                                                

     bravais-lattice index     =            3
     lattice parameter (alat)  =       7.8676  a.u.
     unit-cell volume          =     243.4985 (a.u.)^3
     number of atoms/cell      =            1
     number of atomic types    =            1
     kinetic-energy cut-off    =      40.0000  Ry
     charge density cut-off    =     320.0000  Ry
     convergence threshold     =      1.0E-12
     beta                      =       0.7000
     number of iterations used =            4
     Exchange-correlation      = SLA  PW   PBE  PBE ( 1  4  3  4 0 0)


     celldm(1)=    7.86760  celldm(2)=    0.00000  celldm(3)=    0.00000
     celldm(4)=    0.00000  celldm(5)=    0.00000  celldm(6)=    0.00000

     crystal axes: (cart. coord. in units of alat)
               a(1) = (  0.5000  0.5000  0.5000 )  
               a(2) = ( -0.5000  0.5000  0.5000 )  
               a(3) = ( -0.5000 -0.5000  0.5000 )  

     reciprocal axes: (cart. coord. in units 2 pi/alat)
               b(1) = (  1.0000  0.0000  1.0000 )  
               b(2) = ( -1.0000  1.0000  0.0000 )  
               b(3) = (  0.0000 -1.0000  1.0000 )  


     Atoms inside the unit cell: 

     Cartesian axes

     site n.  atom      mass           positions (alat units)
        1     Na  22.9900   tau(    1) = (    0.00000    0.00000    0.00000  )

     Computing dynamical matrix for 
                    q = (   0.0000000   0.0000000  -1.0000000 )

     49 Sym.Ops. (with q -> -q+G )


     G cutoff =  501.7350  (   5866 G-vectors)     FFT grid: ( 40, 40, 40)
     G cutoff =  250.8675  (   2098 G-vectors)  smooth grid: ( 27, 27, 27)

     number of k points=   200  Marzari-Vanderbilt smearing, width (Ry)=  0.0200

     PseudoPot. # 1 for Na read from file:
     /home/s1333534/quantum_espresso/qe-6.1/pseudo/Na_pbe_v1.uspp.F.UPF
     MD5 check sum: 76a99c7e9422403d3e93cbc85ab7bccb
     Pseudo is Ultrasoft, Zval =  9.0
     Generated by new atomic code, or converted to UPF format
     Using radial grid of  819 points,  5 beta functions with: 
                l(1) =   0
                l(2) =   0
                l(3) =   1
                l(4) =   1
                l(5) =   2
     Q(r) pseudized with  8 coefficients,  rinner =    1.250   1.250   1.250
                                                       1.250   1.250

     Mode symmetry, O_h (m-3m)  point group:


     Atomic displacements:
     There are   1 irreducible representations

     Representation     1      3 modes -T_1u G_15  G_4-  To be done



     Alpha used in Ewald sum =   2.8000
     PHONON       :     2h13m CPU        2h24m WALL



     Representation #  1 modes #   1  2  3

     Self-consistent Calculation

      iter #   1 total cpu time :  8658.0 secs   av.it.:   5.7
      thresh= 1.000E-02 alpha_mix =  0.700 |ddv_scf|^2 =  2.723E-06

      iter #   2 total cpu time :  8661.7 secs   av.it.:   8.4
      thresh= 1.650E-04 alpha_mix =  0.700 |ddv_scf|^2 =  4.181E-08

      iter #   3 total cpu time :  8665.3 secs   av.it.:   8.1
      thresh= 2.045E-05 alpha_mix =  0.700 |ddv_scf|^2 =  3.531E-09

      iter #   4 total cpu time :  8669.0 secs   av.it.:   8.3
      thresh= 5.943E-06 alpha_mix =  0.700 |ddv_scf|^2 =  1.372E-11

      iter #   5 total cpu time :  8672.6 secs   av.it.:   8.2
      thresh= 3.704E-07 alpha_mix =  0.700 |ddv_scf|^2 =  4.586E-15

     End of self-consistent calculation

     Convergence has been achieved 

     Number of q in the star =    1
     List of q in the star:
          1   0.000000000   0.000000000  -1.000000000

     Diagonalizing the dynamical matrix

     q = (    0.000000000   0.000000000  -1.000000000 ) 

 **************************************************************************
     freq (    1) =       3.832857 [THz] =     127.850360 [cm-1]
     freq (    2) =       3.832857 [THz] =     127.850360 [cm-1]
     freq (    3) =       3.832857 [THz] =     127.850360 [cm-1]
 **************************************************************************

     Mode symmetry, O_h (m-3m)  point group:

     freq (  1 -  3) =        127.9  [cm-1]   --> T_1u G_15  G_4-    

     init_run     :      5.70s CPU      5.77s WALL (      28 calls)
     electrons    :   1771.96s CPU   1879.26s WALL (      28 calls)

     Called by init_run:
     wfcinit      :      0.00s CPU      0.00s WALL (      28 calls)
     potinit      :      0.42s CPU      0.42s WALL (      28 calls)

     Called by electrons:
     c_bands      :   1771.65s CPU   1878.95s WALL (      28 calls)
     v_of_rho     :      0.33s CPU      0.34s WALL (      29 calls)
     newd         :      0.39s CPU      0.40s WALL (      29 calls)

     Called by c_bands:
     init_us_2    :     98.38s CPU     96.32s WALL (  904555 calls)
     cegterg      :   1633.95s CPU   1728.78s WALL (   88938 calls)

     Called by sum_band:

     Called by *egterg:
     h_psi        :   5527.41s CPU   5914.73s WALL ( 7686113 calls)
     s_psi        :    131.03s CPU    156.10s WALL (14525881 calls)
     g_psi        :     10.34s CPU     12.53s WALL ( 1333097 calls)
     cdiaghg      :    279.95s CPU    285.75s WALL ( 1396263 calls)

     Called by h_psi:
     h_psi:pot    :   5500.60s CPU   5883.89s WALL ( 7686113 calls)
     h_psi:calbec :    117.06s CPU    131.70s WALL ( 7686113 calls)
     vloc_psi     :   5267.03s CPU   5635.20s WALL ( 7686113 calls)
     add_vuspsi   :     99.01s CPU     93.71s WALL ( 7686113 calls)

     General routines
     calbec       :    261.76s CPU    260.62s WALL (16083244 calls)
     fft          :      3.19s CPU      3.36s WALL (    8947 calls)
     ffts         :      9.90s CPU     10.62s WALL (   97071 calls)
     fftw         :   6009.89s CPU   6160.92s WALL (74044453 calls)
     interpolate  :      0.58s CPU      0.65s WALL (    1241 calls)
     davcio       :     49.41s CPU     90.78s WALL ( 3419659 calls)

     Parallel routines
     fft_scatter  :    909.48s CPU   1222.48s WALL (74150471 calls)

     PHONON       :     2h14m CPU        2h24m WALL

     INITIALIZATION: 
     phq_setup    :      1.04s CPU      1.04s WALL (      29 calls)
     phq_init     :    128.11s CPU    135.17s WALL (      29 calls)

     phq_init     :    128.11s CPU    135.17s WALL (      29 calls)
     init_vloc    :      0.09s CPU      0.09s WALL (      29 calls)
     init_us_1    :      2.84s CPU      2.88s WALL (      29 calls)
     newd         :      0.39s CPU      0.40s WALL (      29 calls)
     dvanqq       :      1.69s CPU      1.70s WALL (      29 calls)
     drho         :    103.04s CPU    108.88s WALL (      29 calls)

     DYNAMICAL MATRIX:
     dynmat0      :     13.90s CPU     14.43s WALL (      29 calls)
     phqscf       :   6093.25s CPU   6602.77s WALL (      29 calls)
     dynmatrix    :      0.03s CPU      0.04s WALL (      29 calls)

     phqscf       :   6093.25s CPU   6602.77s WALL (      29 calls)
     solve_linter :   6069.43s CPU   6577.76s WALL (      76 calls)
     drhodv       :     23.73s CPU     24.87s WALL (      76 calls)

     dynmat0      :     13.90s CPU     14.43s WALL (      29 calls)
     dynmat_us    :     13.85s CPU     14.38s WALL (      29 calls)
     d2ionq       :      0.03s CPU      0.03s WALL (      29 calls)

     dynmat_us    :     13.85s CPU     14.38s WALL (      29 calls)
     addusdynmat  :      0.00s CPU      0.00s WALL (      29 calls)

     phqscf       :   6093.25s CPU   6602.77s WALL (      29 calls)
     solve_linter :   6069.43s CPU   6577.76s WALL (      76 calls)

     solve_linter :   6069.43s CPU   6577.76s WALL (      76 calls)
     dvqpsi_us    :    176.77s CPU    188.96s WALL (   95049 calls)
     ortho        :     43.10s CPU     51.33s WALL (  638856 calls)
     cgsolve      :   4704.88s CPU   5054.53s WALL (  638856 calls)
     incdrhoscf   :    523.95s CPU    576.85s WALL (  638856 calls)
     addusddens   :     12.94s CPU     13.04s WALL (     569 calls)
     vpsifft      :    430.72s CPU    472.95s WALL (  543807 calls)
     dv_of_drho   :      3.85s CPU      3.96s WALL (     548 calls)
     mix_pot      :      0.48s CPU      1.03s WALL (     493 calls)
     ef_shift     :      0.01s CPU      0.02s WALL (       6 calls)
     localdos     :      0.08s CPU      0.08s WALL (       1 calls)
     psymdvscf    :      8.43s CPU      8.56s WALL (     425 calls)
     newdq        :     11.62s CPU     11.73s WALL (     493 calls)
     adddvscf     :     20.43s CPU     16.70s WALL (  543807 calls)
     drhodvus     :      0.02s CPU      0.03s WALL (      76 calls)

     dvqpsi_us    :    176.77s CPU    188.96s WALL (   95049 calls)
     dvqpsi_us_on :     23.54s CPU     23.46s WALL (   95049 calls)

     cgsolve      :   4704.88s CPU   5054.53s WALL (  638856 calls)
     ch_psi       :   4614.73s CPU   4966.27s WALL ( 6200912 calls)

     ch_psi       :   4614.73s CPU   4966.27s WALL ( 6200912 calls)
     h_psi        :   5527.41s CPU   5914.73s WALL ( 7686113 calls)
     last         :    260.46s CPU    290.20s WALL ( 6200912 calls)

     h_psi        :   5527.41s CPU   5914.73s WALL ( 7686113 calls)
     add_vuspsi   :     99.01s CPU     93.71s WALL ( 7686113 calls)

     incdrhoscf   :    523.95s CPU    576.85s WALL (  638856 calls)
     addusdbec    :     18.17s CPU     23.66s WALL (  733905 calls)

     drhodvus     :      0.02s CPU      0.03s WALL (      76 calls)

      General routines
     calbec       :    261.76s CPU    260.62s WALL (16083244 calls)
     fft          :      3.19s CPU      3.36s WALL (    8947 calls)
     ffts         :      9.90s CPU     10.62s WALL (   97071 calls)
     fftw         :   6009.89s CPU   6160.92s WALL (74044453 calls)
     davcio       :     49.41s CPU     90.78s WALL ( 3419659 calls)
     write_rec    :      0.41s CPU      0.77s WALL (     569 calls)


     PHONON       :     2h14m CPU        2h24m WALL


   This run was terminated on:  18:34:52  21Dec2017            

=------------------------------------------------------------------------------=
   JOB DONE.
=------------------------------------------------------------------------------=
