
     Program MATDYN v.6.1 (svn rev. 13369) starts on 30Oct2017 at 16:46: 7 

     This program is part of the open-source Quantum ESPRESSO suite
     for quantum simulation of materials; please cite
         "P. Giannozzi et al., J. Phys.:Condens. Matter 21 395502 (2009);
          URL http://www.quantum-espresso.org", 
     in publications or presentations arising from this work. More details at
     http://www.quantum-espresso.org/quote

     Parallel version (MPI), running on     1 processors
 mass for atomic type   1 not given; uses mass from file aluminium.444.fc                                                                                                                                                                                                                                                
     Message from routine matdyn:
     Z* not found in file aluminium.444.fc, TO-LO splitting at q=0 will be absent!
     A direction for q was not specified:TO-LO splitting will be absent
     Message from routine matdyn:
     Z* not found in file aluminium.444.fc, TO-LO splitting at q=0 will be absent!
     A direction for q was not specified:TO-LO splitting will be absent

     MATDYN       :     0.02s CPU         0.03s WALL


   This run was terminated on:  16:46: 7  30Oct2017            

=------------------------------------------------------------------------------=
   JOB DONE.
=------------------------------------------------------------------------------=
