
     Program PWSCF v.6.1 (svn rev. 13369) starts on 30Oct2017 at 14:50:22 

     This program is part of the open-source Quantum ESPRESSO suite
     for quantum simulation of materials; please cite
         "P. Giannozzi et al., J. Phys.:Condens. Matter 21 395502 (2009);
          URL http://www.quantum-espresso.org", 
     in publications or presentations arising from this work. More details at
     http://www.quantum-espresso.org/quote

     Parallel version (MPI), running on     1 processors
     Waiting for input...
     Reading input from standard input
     Message from routine read_cards :
     DEPRECATED: no units specified in ATOMIC_POSITIONS card
     Message from routine read_cards :
     ATOMIC_POSITIONS: units set to alat

     Current dimensions of program PWSCF are:
     Max number of different atomic species (ntypx) = 10
     Max number of k-points (npk) =  40000
     Max angular momentum in pseudopotentials (lmaxx) =  3
               file Al.pbe-n-kjpaw_psl.1.0.0.UPF: wavefunction(s)  3S 3P renormalized

     Subspace diagonalization in iterative solution of the eigenvalue problem:
     a serial algorithm will be used


     G-vector sticks info
     --------------------
     sticks:   dense  smooth     PW     G-vecs:    dense   smooth      PW
     Sum         241     241     85                 2445     2445     537



     bravais-lattice index     =            2
     lattice parameter (alat)  =       7.6456  a.u.
     unit-cell volume          =     111.7313 (a.u.)^3
     number of atoms/cell      =            1
     number of atomic types    =            1
     number of electrons       =         3.00
     number of Kohn-Sham states=            6
     kinetic-energy cutoff     =      30.0000  Ry
     charge density cutoff     =     120.0000  Ry
     convergence threshold     =      1.0E-08
     mixing beta               =       0.7000
     number of iterations used =            8  plain     mixing
     Exchange-correlation      =  SLA  PW   PBX  PBC ( 1  4  3  4 0 0)

     celldm(1)=   7.645600  celldm(2)=   0.000000  celldm(3)=   0.000000
     celldm(4)=   0.000000  celldm(5)=   0.000000  celldm(6)=   0.000000

     crystal axes: (cart. coord. in units of alat)
               a(1) = (  -0.500000   0.000000   0.500000 )  
               a(2) = (   0.000000   0.500000   0.500000 )  
               a(3) = (  -0.500000   0.500000   0.000000 )  

     reciprocal axes: (cart. coord. in units 2 pi/alat)
               b(1) = ( -1.000000 -1.000000  1.000000 )  
               b(2) = (  1.000000  1.000000  1.000000 )  
               b(3) = ( -1.000000  1.000000 -1.000000 )  


     PseudoPot. # 1 for Al read from file:
     /home/max/quantum_espresso/qe-6.1/pseudo/Al.pbe-n-kjpaw_psl.1.0.0.UPF
     MD5 check sum: dd5adf945272da8132fc805c9e56c2d6
     Pseudo is Projector augmented-wave + core cor, Zval =  3.0
     Generated using "atomic" code by A. Dal Corso  v.5.1
     Shape of augmentation charge: PSQ
     Using radial grid of 1135 points,  6 beta functions with: 
                l(1) =   0
                l(2) =   0
                l(3) =   1
                l(4) =   1
                l(5) =   2
                l(6) =   2
     Q(r) pseudized with 0 coefficients 


     atomic species   valence    mass     pseudopotential
        Al             3.00    26.98200     Al( 1.00)

     48 Sym. Ops., with inversion, found



   Cartesian axes

     site n.     atom                  positions (alat units)
         1           Al  tau(   1) = (   0.0000000   0.0000000   0.0000000  )

     number of k points=   182  gaussian smearing, width (Ry)=  0.0500

     Number of k-points >= 100: set verbosity='high' to print them.

     Dense  grid:     2445 G-vectors     FFT dimensions: (  20,  20,  20)

     Estimated max dynamical RAM per process >       7.05MB

     Initial potential from superposition of free atoms

     starting charge    2.99771, renormalised to    3.00000
     Starting wfc are    4 randomized atomic wfcs +    2 random wfc
     Checking if some PAW data can be deallocated... 

     total cpu time spent up to now is        1.3 secs

     per-process dynamical memory:    14.8 Mb

     Self-consistent Calculation

     iteration #  1     ecut=    30.00 Ry     beta=0.70
     Davidson diagonalization with overlap
     ethr =  1.00E-02,  avg # of iterations =  4.7

     Threshold (ethr) on eigenvalues was too large:
     Diagonalizing with lowered threshold

     Davidson diagonalization with overlap
     ethr =  1.83E-04,  avg # of iterations =  1.8

     total cpu time spent up to now is        3.2 secs

     total energy              =     -39.50614188 Ry
     Harris-Foulkes estimate   =     -39.50731238 Ry
     estimated scf accuracy    <       0.00542888 Ry

     iteration #  2     ecut=    30.00 Ry     beta=0.70
     Davidson diagonalization with overlap
     ethr =  1.81E-04,  avg # of iterations =  1.0

     total cpu time spent up to now is        3.9 secs

     total energy              =     -39.50609888 Ry
     Harris-Foulkes estimate   =     -39.50618825 Ry
     estimated scf accuracy    <       0.00039658 Ry

     iteration #  3     ecut=    30.00 Ry     beta=0.70
     Davidson diagonalization with overlap
     ethr =  1.32E-05,  avg # of iterations =  1.6

     total cpu time spent up to now is        4.8 secs

     total energy              =     -39.50610734 Ry
     Harris-Foulkes estimate   =     -39.50610746 Ry
     estimated scf accuracy    <       0.00000045 Ry

     iteration #  4     ecut=    30.00 Ry     beta=0.70
     Davidson diagonalization with overlap
     ethr =  1.50E-08,  avg # of iterations =  2.9

     total cpu time spent up to now is        5.6 secs

     total energy              =     -39.50610876 Ry
     Harris-Foulkes estimate   =     -39.50610879 Ry
     estimated scf accuracy    <       0.00000003 Ry

     iteration #  5     ecut=    30.00 Ry     beta=0.70
     Davidson diagonalization with overlap
     ethr =  8.36E-10,  avg # of iterations =  1.1

     total cpu time spent up to now is        6.6 secs

     End of self-consistent calculation

     Number of k-points >= 100: set verbosity='high' to print the bands.

     the Fermi energy is     7.8704 ev

!    total energy              =     -39.50610876 Ry
     Harris-Foulkes estimate   =     -39.50610876 Ry
     estimated scf accuracy    <          1.3E-10 Ry

     total all-electron energy =      -485.648890 Ry

     The total energy is the sum of the following terms:

     one-electron contribution =       3.15989924 Ry
     hartree contribution      =       0.00580749 Ry
     xc contribution           =      -2.58883436 Ry
     ewald contribution        =      -5.39705962 Ry
     one-center paw contrib.   =     -34.67905545 Ry
     smearing contrib. (-TS)   =      -0.00686607 Ry

     convergence has been achieved in   5 iterations

     Forces acting on atoms (cartesian axes, Ry/au):

     atom    1 type  1   force =     0.00000000    0.00000000    0.00000000

     Total force =     0.000000     Total SCF correction =     0.000000


     Computing stress (Cartesian axis) and pressure

          total   stress  (Ry/bohr**3)                   (kbar)     P=   -0.30
  -0.00000207  -0.00000000  -0.00000000         -0.30     -0.00     -0.00
  -0.00000000  -0.00000207   0.00000000         -0.00     -0.30      0.00
  -0.00000000   0.00000000  -0.00000207         -0.00      0.00     -0.30


     Writing output data file aluminium.save

     init_run     :      0.78s CPU      0.79s WALL (       1 calls)
     electrons    :      5.11s CPU      5.31s WALL (       1 calls)
     forces       :      0.09s CPU      0.09s WALL (       1 calls)
     stress       :      0.46s CPU      0.46s WALL (       1 calls)

     Called by init_run:
     wfcinit      :      0.18s CPU      0.19s WALL (       1 calls)
     potinit      :      0.21s CPU      0.21s WALL (       1 calls)

     Called by electrons:
     c_bands      :      3.39s CPU      3.55s WALL (       6 calls)
     sum_band     :      0.62s CPU      0.66s WALL (       6 calls)
     v_of_rho     :      0.03s CPU      0.03s WALL (       6 calls)
     newd         :      0.04s CPU      0.04s WALL (       6 calls)
     PAW_pot      :      1.24s CPU      1.24s WALL (       6 calls)
     mix_rho      :      0.00s CPU      0.00s WALL (       6 calls)

     Called by c_bands:
     init_us_2    :      0.37s CPU      0.40s WALL (    2730 calls)
     cegterg      :      2.95s CPU      3.08s WALL (    1092 calls)

     Called by sum_band:
     sum_band:bec :      0.01s CPU      0.01s WALL (    1092 calls)
     addusdens    :      0.04s CPU      0.04s WALL (       6 calls)

     Called by *egterg:
     h_psi        :      2.12s CPU      2.23s WALL (    3651 calls)
     s_psi        :      0.19s CPU      0.19s WALL (    3651 calls)
     g_psi        :      0.03s CPU      0.03s WALL (    2377 calls)
     cdiaghg      :      0.27s CPU      0.28s WALL (    3287 calls)

     Called by h_psi:
     h_psi:pot    :      2.11s CPU      2.21s WALL (    3651 calls)
     h_psi:calbec :      0.20s CPU      0.21s WALL (    3651 calls)
     vloc_psi     :      1.70s CPU      1.79s WALL (    3651 calls)
     add_vuspsi   :      0.19s CPU      0.20s WALL (    3651 calls)

     General routines
     calbec       :      0.32s CPU      0.34s WALL (    5653 calls)
     fft          :      0.01s CPU      0.01s WALL (     105 calls)
     fftw         :      1.61s CPU      1.70s WALL (   41576 calls)
     davcio       :      0.00s CPU      0.00s WALL (     182 calls)

     Parallel routines
     fft_scatter  :      0.21s CPU      0.22s WALL (   41681 calls)

     PWSCF        :     7.23s CPU         7.47s WALL


   This run was terminated on:  14:50:29  30Oct2017            

=------------------------------------------------------------------------------=
   JOB DONE.
=------------------------------------------------------------------------------=
