
     Program PHONON v.5.4.0 starts on  7Jun2016 at  9:22:39 

     This program is part of the open-source Quantum ESPRESSO suite
     for quantum simulation of materials; please cite
         "P. Giannozzi et al., J. Phys.:Condens. Matter 21 395502 (2009);
          URL http://www.quantum-espresso.org", 
     in publications or presentations arising from this work. More details at
     http://www.quantum-espresso.org/quote

     Parallel version (MPI), running on   384 processors
     K-points division:     npool     =     384

     Reading data from directory:
     ./tmp/li-fcc.save

   Info: using nr1, nr2, nr3 values from input

   Info: using nr1, nr2, nr3 values from input

     IMPORTANT: XC functional enforced from input :
     Exchange-correlation      =  SLA  PW   PBX  PBC ( 1  4  3  4 0 0)
     Any further DFT definition will be discarded
     Please, verify this is what you really want

 
     G-vector sticks info
     --------------------
     sticks:   dense  smooth     PW     G-vecs:    dense   smooth      PW
     Sum        1111     559    187                24309     8609    1687
 


     Dynamical matrices for ( 8, 8, 8)  uniform grid of q-points
     (  29q-points):
       N         xq(1)         xq(2)         xq(3) 
       1   0.000000000   0.000000000   0.000000000
       2  -0.125000000   0.125000000  -0.125000000
       3  -0.250000000   0.250000000  -0.250000000
       4  -0.375000000   0.375000000  -0.375000000
       5   0.500000000  -0.500000000   0.500000000
       6   0.000000000   0.250000000   0.000000000
       7  -0.125000000   0.375000000  -0.125000000
       8  -0.250000000   0.500000000  -0.250000000
       9   0.625000000  -0.375000000   0.625000000
      10   0.500000000  -0.250000000   0.500000000
      11   0.375000000  -0.125000000   0.375000000
      12   0.250000000   0.000000000   0.250000000
      13   0.000000000   0.500000000   0.000000000
      14  -0.125000000   0.625000000  -0.125000000
      15   0.750000000  -0.250000000   0.750000000
      16   0.625000000  -0.125000000   0.625000000
      17   0.500000000   0.000000000   0.500000000
      18   0.000000000   0.750000000   0.000000000
      19   0.875000000  -0.125000000   0.875000000
      20   0.750000000   0.000000000   0.750000000
      21   0.000000000  -1.000000000   0.000000000
      22  -0.250000000   0.500000000   0.000000000
      23   0.625000000  -0.375000000   0.875000000
      24   0.500000000  -0.250000000   0.750000000
      25   0.750000000  -0.250000000   1.000000000
      26   0.625000000  -0.125000000   0.875000000
      27   0.500000000   0.000000000   0.750000000
      28  -0.250000000  -1.000000000   0.000000000
      29  -0.500000000  -1.000000000   0.000000000

     Calculation of q =    0.0000000   0.0000000   0.0000000

                                                                                

     bravais-lattice index     =            2
     lattice parameter (alat)  =       8.1784  a.u.
     unit-cell volume          =     136.7556 (a.u.)^3
     number of atoms/cell      =            1
     number of atomic types    =            1
     kinetic-energy cut-off    =      60.0000  Ry
     charge density cut-off    =     480.0000  Ry
     convergence threshold     =      1.0E-16
     beta                      =       0.7000
     number of iterations used =            4
     Exchange-correlation      =  SLA  PW   PBX  PBC ( 1  4  3  4 0 0)


     celldm(1)=    8.17840  celldm(2)=    0.00000  celldm(3)=    0.00000
     celldm(4)=    0.00000  celldm(5)=    0.00000  celldm(6)=    0.00000

     crystal axes: (cart. coord. in units of alat)
               a(1) = ( -0.5000  0.0000  0.5000 )  
               a(2) = (  0.0000  0.5000  0.5000 )  
               a(3) = ( -0.5000  0.5000  0.0000 )  

     reciprocal axes: (cart. coord. in units 2 pi/alat)
               b(1) = ( -1.0000 -1.0000  1.0000 )  
               b(2) = (  1.0000  1.0000  1.0000 )  
               b(3) = ( -1.0000  1.0000 -1.0000 )  


     Atoms inside the unit cell: 

     Cartesian axes

     site n.  atom      mass           positions (alat units)
        1     Li   6.9410   tau(    1) = (    0.00000    0.00000    0.00000  )

     Computing dynamical matrix for 
                    q = (   0.0000000   0.0000000   0.0000000 )
 
     49 Sym.Ops. (with q -> -q+G )


     G cutoff =  813.2389  (  24309 G-vectors)     FFT grid: ( 45, 45, 45)
     G cutoff =  406.6194  (   8609 G-vectors)  smooth grid: ( 30, 30, 30)

     number of k points=  2030  Marzari-Vanderbilt smearing, width (Ry)=  0.0200

     PseudoPot. # 1 for Li read from file:
     ../Li.pbe-s-gbrv14.UPF
     MD5 check sum: 7ca33c4f951f001da2db5c8738379802
     Pseudo is Ultrasoft, Zval =  3.0
     Generated by new atomic code, or converted to UPF format
     Using radial grid of  751 points,  5 beta functions with: 
                l(1) =   0
                l(2) =   0
                l(3) =   0
                l(4) =   1
                l(5) =   1
     Q(r) pseudized with 10 coefficients,  rinner =    1.150   1.150   1.150


     Mode symmetry, O_h (m-3m)  point group:


     Atomic displacements:
     There are   1 irreducible representations

     Representation     1      3 modes -T_1u G_15  G_4-  To be done



     Alpha used in Ewald sum =   2.8000
     PHONON       :    14.87s CPU        27.97s WALL



     Representation #  1 modes #   1  2  3

     Self-consistent Calculation
 
     Pert. #  1: Fermi energy shift (Ry) =    -6.8932E-26     2.5077E-37
     Pert. #  2: Fermi energy shift (Ry) =    -3.0158E-26    -6.8571E-38
     Pert. #  3: Fermi energy shift (Ry) =    -4.6529E-25    -9.4040E-38

      iter #   1 total cpu time :    29.2 secs   av.it.:   5.2
      thresh= 1.000E-02 alpha_mix =  0.700 |ddv_scf|^2 =  7.791E-08
 
     Pert. #  1: Fermi energy shift (Ry) =    -3.9636E-25     0.0000E+00
     Pert. #  2: Fermi energy shift (Ry) =    -1.3571E-25     0.0000E+00
     Pert. #  3: Fermi energy shift (Ry) =    -8.6165E-26    -3.6352E-41

      iter #   2 total cpu time :    31.2 secs   av.it.:   9.6
      thresh= 2.791E-05 alpha_mix =  0.700 |ddv_scf|^2 =  4.799E-09
 
     Pert. #  1: Fermi energy shift (Ry) =     1.4648E-25    -4.5918E-41
     Pert. #  2: Fermi energy shift (Ry) =    -7.2163E-26     4.5439E-41
     Pert. #  3: Fermi energy shift (Ry) =    -4.3082E-26    -1.2436E-41

      iter #   3 total cpu time :    33.9 secs   av.it.:   9.9
      thresh= 6.927E-06 alpha_mix =  0.700 |ddv_scf|^2 =  3.193E-11
 
     Pert. #  1: Fermi energy shift (Ry) =    -6.8932E-26    -2.3915E-43
     Pert. #  2: Fermi energy shift (Ry) =     1.0771E-25     3.5873E-43
     Pert. #  3: Fermi energy shift (Ry) =    -2.4988E-25     0.0000E+00

      iter #   4 total cpu time :    45.2 secs   av.it.:   9.4
      thresh= 5.651E-07 alpha_mix =  0.700 |ddv_scf|^2 =  7.660E-14
 
     Pert. #  1: Fermi energy shift (Ry) =    -2.6711E-25     3.1090E-42
     Pert. #  2: Fermi energy shift (Ry) =     2.9081E-26     8.3854E-42
     Pert. #  3: Fermi energy shift (Ry) =     1.9818E-25    -3.9461E-42

      iter #   5 total cpu time :    47.4 secs   av.it.:   9.2
      thresh= 2.768E-08 alpha_mix =  0.700 |ddv_scf|^2 =  1.225E-15
 
     Pert. #  1: Fermi energy shift (Ry) =    -3.8774E-25     3.1090E-42
     Pert. #  2: Fermi energy shift (Ry) =    -2.2618E-25     8.3854E-42
     Pert. #  3: Fermi energy shift (Ry) =     1.1201E-25    -3.9461E-42

      iter #   6 total cpu time :    50.9 secs   av.it.:   8.7
      thresh= 3.500E-09 alpha_mix =  0.700 |ddv_scf|^2 =  4.147E-19

     End of self-consistent calculation

     Convergence has been achieved 
 
     Number of q in the star =    1
     List of q in the star:
          1   0.000000000   0.000000000   0.000000000

     Diagonalizing the dynamical matrix

     q = (    0.000000000   0.000000000   0.000000000 ) 

 **************************************************************************
     freq (    1) =      -0.063366 [THz] =      -2.113651 [cm-1]
     freq (    2) =      -0.063366 [THz] =      -2.113651 [cm-1]
     freq (    3) =      -0.063366 [THz] =      -2.113651 [cm-1]
 **************************************************************************

     Mode symmetry, O_h (m-3m)  point group:

     freq (  1 -  3) =         -2.1  [cm-1]   --> T_1u G_15  G_4- I  

     Calculation of q =   -0.1250000   0.1250000  -0.1250000
 
     G-vector sticks info
     --------------------
     sticks:   dense  smooth     PW     G-vecs:    dense   smooth      PW
     Sum        1111     559    199                24309     8609    1807
 


     bravais-lattice index     =            2
     lattice parameter (alat)  =       8.1784  a.u.
     unit-cell volume          =     136.7556 (a.u.)^3
     number of atoms/cell      =            1
     number of atomic types    =            1
     number of electrons       =         3.00
     number of Kohn-Sham states=            6
     kinetic-energy cutoff     =      60.0000  Ry
     charge density cutoff     =     480.0000  Ry
     Exchange-correlation      =  SLA  PW   PBX  PBC ( 1  4  3  4 0 0)

     celldm(1)=   8.178399  celldm(2)=   0.000000  celldm(3)=   0.000000
     celldm(4)=   0.000000  celldm(5)=   0.000000  celldm(6)=   0.000000

     crystal axes: (cart. coord. in units of alat)
               a(1) = (  -0.500000   0.000000   0.500000 )  
               a(2) = (   0.000000   0.500000   0.500000 )  
               a(3) = (  -0.500000   0.500000   0.000000 )  

     reciprocal axes: (cart. coord. in units 2 pi/alat)
               b(1) = ( -1.000000 -1.000000  1.000000 )  
               b(2) = (  1.000000  1.000000  1.000000 )  
               b(3) = ( -1.000000  1.000000 -1.000000 )  


     PseudoPot. # 1 for Li read from file:
     ../Li.pbe-s-gbrv14.UPF
     MD5 check sum: 7ca33c4f951f001da2db5c8738379802
     Pseudo is Ultrasoft, Zval =  3.0
     Generated by new atomic code, or converted to UPF format
     Using radial grid of  751 points,  5 beta functions with: 
                l(1) =   0
                l(2) =   0
                l(3) =   0
                l(4) =   1
                l(5) =   1
     Q(r) pseudized with 10 coefficients,  rinner =    1.150   1.150   1.150


     atomic species   valence    mass     pseudopotential
        Li             3.00     6.94100     Li( 1.00)

     48 Sym. Ops., with inversion, found



   Cartesian axes

     site n.     atom                  positions (alat units)
         1           Li  tau(   1) = (   0.0000000   0.0000000   0.0000000  )

     number of k points= 30856  Marzari-Vanderbilt smearing, width (Ry)=  0.0200

     Number of k-points >= 100: set verbosity='high' to print them.

     Dense  grid:    24309 G-vectors     FFT dimensions: (  45,  45,  45)

     Smooth grid:     8609 G-vectors     FFT dimensions: (  30,  30,  30)

     Largest allocated arrays     est. size (Mb)     dimensions
        Kohn-Sham Wavefunctions         0.10 Mb     (    1095,    6)
        NL pseudopotentials             0.15 Mb     (    1095,    9)
        Each V/rho on FFT grid          1.39 Mb     (   91125)
        Each G-vector array             0.19 Mb     (   24309)
        G-vector shells                 0.00 Mb     (     274)
     Largest temporary arrays     est. size (Mb)     dimensions
        Auxiliary wavefunctions         0.40 Mb     (    1095,   24)
        Each subspace H/S matrix        0.01 Mb     (      24,   24)
        Each <psi_i|beta_j> matrix      0.00 Mb     (       9,    6)

     The potential is recalculated from file :
     ./tmp/_ph0/li-fcc.save/charge-density.dat

     Starting wfc are    5 atomic +    1 random wfc

     Band Structure Calculation
     Davidson diagonalization with overlap

     ethr =  3.33E-10,  avg # of iterations = 15.5

     total cpu time spent up to now is       10.8 secs

     End of band structure calculation

     Number of k-points >= 100: set verbosity='high' to print the bands.

     the Fermi energy is     0.9377 ev

                                                                                

     bravais-lattice index     =            2
     lattice parameter (alat)  =       8.1784  a.u.
     unit-cell volume          =     136.7556 (a.u.)^3
     number of atoms/cell      =            1
     number of atomic types    =            1
     kinetic-energy cut-off    =      60.0000  Ry
     charge density cut-off    =     480.0000  Ry
     convergence threshold     =      1.0E-16
     beta                      =       0.7000
     number of iterations used =            4
     Exchange-correlation      =  SLA  PW   PBX  PBC ( 1  4  3  4 0 0)


     celldm(1)=    8.17840  celldm(2)=    0.00000  celldm(3)=    0.00000
     celldm(4)=    0.00000  celldm(5)=    0.00000  celldm(6)=    0.00000

     crystal axes: (cart. coord. in units of alat)
               a(1) = ( -0.5000  0.0000  0.5000 )  
               a(2) = (  0.0000  0.5000  0.5000 )  
               a(3) = ( -0.5000  0.5000  0.0000 )  

     reciprocal axes: (cart. coord. in units 2 pi/alat)
               b(1) = ( -1.0000 -1.0000  1.0000 )  
               b(2) = (  1.0000  1.0000  1.0000 )  
               b(3) = ( -1.0000  1.0000 -1.0000 )  


     Atoms inside the unit cell: 

     Cartesian axes

     site n.  atom      mass           positions (alat units)
        1     Li   6.9410   tau(    1) = (    0.00000    0.00000    0.00000  )

     Computing dynamical matrix for 
                    q = (  -0.1250000   0.1250000  -0.1250000 )
 
      6 Sym.Ops. (no q -> -q+G )


     G cutoff =  813.2389  (  24309 G-vectors)     FFT grid: ( 45, 45, 45)
     G cutoff =  406.6194  (   8609 G-vectors)  smooth grid: ( 30, 30, 30)

     number of k points= 30856  Marzari-Vanderbilt smearing, width (Ry)=  0.0200

     PseudoPot. # 1 for Li read from file:
     ../Li.pbe-s-gbrv14.UPF
     MD5 check sum: 7ca33c4f951f001da2db5c8738379802
     Pseudo is Ultrasoft, Zval =  3.0
     Generated by new atomic code, or converted to UPF format
     Using radial grid of  751 points,  5 beta functions with: 
                l(1) =   0
                l(2) =   0
                l(3) =   0
                l(4) =   1
                l(5) =   1
     Q(r) pseudized with 10 coefficients,  rinner =    1.150   1.150   1.150


     Mode symmetry, C_3v (3m)   point group:


     Atomic displacements:
     There are   2 irreducible representations

     Representation     1      1 modes -A_1  L_1  To be done

     Representation     2      2 modes -E    L_3  To be done



     Alpha used in Ewald sum =   2.8000
     PHONON       :  0m49.72s CPU     1m 6.51s WALL



     Representation #  1 mode #   1

     Self-consistent Calculation

      iter #   1 total cpu time :    67.9 secs   av.it.:   6.3
      thresh= 1.000E-02 alpha_mix =  0.700 |ddv_scf|^2 =  5.487E-02

      iter #   2 total cpu time :    70.1 secs   av.it.:   7.9
      thresh= 1.000E-02 alpha_mix =  0.700 |ddv_scf|^2 =  4.725E+01

      iter #   3 total cpu time :    71.5 secs   av.it.:   7.9
      thresh= 1.000E-02 alpha_mix =  0.700 |ddv_scf|^2 =  3.745E-04

      iter #   4 total cpu time :    76.2 secs   av.it.:   5.2
      thresh= 1.935E-03 alpha_mix =  0.700 |ddv_scf|^2 =  3.039E-08

      iter #   5 total cpu time :    77.6 secs   av.it.:   8.5
      thresh= 1.743E-05 alpha_mix =  0.700 |ddv_scf|^2 =  2.719E-10

      iter #   6 total cpu time :    80.2 secs   av.it.:   8.8
      thresh= 1.649E-06 alpha_mix =  0.700 |ddv_scf|^2 =  6.347E-09

      iter #   7 total cpu time :    81.3 secs   av.it.:   3.6
      thresh= 7.967E-06 alpha_mix =  0.700 |ddv_scf|^2 =  1.052E-10

      iter #   8 total cpu time :    83.8 secs   av.it.:   7.5
      thresh= 1.026E-06 alpha_mix =  0.700 |ddv_scf|^2 =  4.398E-14

      iter #   9 total cpu time :    85.4 secs   av.it.:   8.5
      thresh= 2.097E-08 alpha_mix =  0.700 |ddv_scf|^2 =  1.055E-14

      iter #  10 total cpu time :    86.8 secs   av.it.:   7.3
      thresh= 1.027E-08 alpha_mix =  0.700 |ddv_scf|^2 =  1.439E-15

      iter #  11 total cpu time :    89.2 secs   av.it.:   6.4
      thresh= 3.793E-09 alpha_mix =  0.700 |ddv_scf|^2 =  5.983E-19

     End of self-consistent calculation

     Convergence has been achieved 


     Representation #  2 modes #   2  3

     Self-consistent Calculation

      iter #   1 total cpu time :    92.6 secs   av.it.:   5.3
      thresh= 1.000E-02 alpha_mix =  0.700 |ddv_scf|^2 =  1.768E-07

      iter #   2 total cpu time :    95.5 secs   av.it.:   9.4
      thresh= 4.205E-05 alpha_mix =  0.700 |ddv_scf|^2 =  1.086E-08

      iter #   3 total cpu time :    98.4 secs   av.it.:   9.6
      thresh= 1.042E-05 alpha_mix =  0.700 |ddv_scf|^2 =  7.994E-11

      iter #   4 total cpu time :   101.1 secs   av.it.:   9.1
      thresh= 8.941E-07 alpha_mix =  0.700 |ddv_scf|^2 =  1.707E-13

      iter #   5 total cpu time :   104.9 secs   av.it.:   9.1
      thresh= 4.132E-08 alpha_mix =  0.700 |ddv_scf|^2 =  2.769E-15

      iter #   6 total cpu time :   107.6 secs   av.it.:   8.2
      thresh= 5.262E-09 alpha_mix =  0.700 |ddv_scf|^2 =  1.220E-18

     End of self-consistent calculation

     Convergence has been achieved 
 
     Number of q in the star =    8
     List of q in the star:
          1  -0.125000000   0.125000000  -0.125000000
          2   0.125000000  -0.125000000  -0.125000000
          3   0.125000000  -0.125000000   0.125000000
          4  -0.125000000   0.125000000   0.125000000
          5   0.125000000   0.125000000  -0.125000000
          6  -0.125000000  -0.125000000  -0.125000000
          7  -0.125000000  -0.125000000   0.125000000
          8   0.125000000   0.125000000   0.125000000

     Diagonalizing the dynamical matrix

     q = (   -0.125000000   0.125000000  -0.125000000 ) 

 **************************************************************************
     freq (    1) =       1.404405 [THz] =      46.845898 [cm-1]
     freq (    2) =       1.404405 [THz] =      46.845898 [cm-1]
     freq (    3) =       3.579406 [THz] =     119.396127 [cm-1]
 **************************************************************************

     Mode symmetry, C_3v (3m)   point group:

     freq (  1 -  2) =         46.8  [cm-1]   --> E    L_3           
     freq (  3 -  3) =        119.4  [cm-1]   --> A_1  L_1           

     Calculation of q =   -0.2500000   0.2500000  -0.2500000
 
     G-vector sticks info
     --------------------
     sticks:   dense  smooth     PW     G-vecs:    dense   smooth      PW
     Sum        1111     559    199                24309     8609    1837
 


     bravais-lattice index     =            2
     lattice parameter (alat)  =       8.1784  a.u.
     unit-cell volume          =     136.7556 (a.u.)^3
     number of atoms/cell      =            1
     number of atomic types    =            1
     number of electrons       =         3.00
     number of Kohn-Sham states=            6
     kinetic-energy cutoff     =      60.0000  Ry
     charge density cutoff     =     480.0000  Ry
     Exchange-correlation      =  SLA  PW   PBX  PBC ( 1  4  3  4 0 0)

     celldm(1)=   8.178399  celldm(2)=   0.000000  celldm(3)=   0.000000
     celldm(4)=   0.000000  celldm(5)=   0.000000  celldm(6)=   0.000000

     crystal axes: (cart. coord. in units of alat)
               a(1) = (  -0.500000   0.000000   0.500000 )  
               a(2) = (   0.000000   0.500000   0.500000 )  
               a(3) = (  -0.500000   0.500000   0.000000 )  

     reciprocal axes: (cart. coord. in units 2 pi/alat)
               b(1) = ( -1.000000 -1.000000  1.000000 )  
               b(2) = (  1.000000  1.000000  1.000000 )  
               b(3) = ( -1.000000  1.000000 -1.000000 )  


     PseudoPot. # 1 for Li read from file:
     ../Li.pbe-s-gbrv14.UPF
     MD5 check sum: 7ca33c4f951f001da2db5c8738379802
     Pseudo is Ultrasoft, Zval =  3.0
     Generated by new atomic code, or converted to UPF format
     Using radial grid of  751 points,  5 beta functions with: 
                l(1) =   0
                l(2) =   0
                l(3) =   0
                l(4) =   1
                l(5) =   1
     Q(r) pseudized with 10 coefficients,  rinner =    1.150   1.150   1.150


     atomic species   valence    mass     pseudopotential
        Li             3.00     6.94100     Li( 1.00)

     48 Sym. Ops., with inversion, found



   Cartesian axes

     site n.     atom                  positions (alat units)
         1           Li  tau(   1) = (   0.0000000   0.0000000   0.0000000  )

     number of k points= 30856  Marzari-Vanderbilt smearing, width (Ry)=  0.0200

     Number of k-points >= 100: set verbosity='high' to print them.

     Dense  grid:    24309 G-vectors     FFT dimensions: (  45,  45,  45)

     Smooth grid:     8609 G-vectors     FFT dimensions: (  30,  30,  30)

     Largest allocated arrays     est. size (Mb)     dimensions
        Kohn-Sham Wavefunctions         0.10 Mb     (    1095,    6)
        NL pseudopotentials             0.15 Mb     (    1095,    9)
        Each V/rho on FFT grid          1.39 Mb     (   91125)
        Each G-vector array             0.19 Mb     (   24309)
        G-vector shells                 0.00 Mb     (     274)
     Largest temporary arrays     est. size (Mb)     dimensions
        Auxiliary wavefunctions         0.40 Mb     (    1095,   24)
        Each subspace H/S matrix        0.01 Mb     (      24,   24)
        Each <psi_i|beta_j> matrix      0.00 Mb     (       9,    6)

     The potential is recalculated from file :
     ./tmp/_ph0/li-fcc.save/charge-density.dat

     Starting wfc are    5 atomic +    1 random wfc

     Band Structure Calculation
     Davidson diagonalization with overlap

     ethr =  3.33E-10,  avg # of iterations = 15.5

     total cpu time spent up to now is       22.3 secs

     End of band structure calculation

     Number of k-points >= 100: set verbosity='high' to print the bands.

     the Fermi energy is     0.9377 ev

                                                                                

     bravais-lattice index     =            2
     lattice parameter (alat)  =       8.1784  a.u.
     unit-cell volume          =     136.7556 (a.u.)^3
     number of atoms/cell      =            1
     number of atomic types    =            1
     kinetic-energy cut-off    =      60.0000  Ry
     charge density cut-off    =     480.0000  Ry
     convergence threshold     =      1.0E-16
     beta                      =       0.7000
     number of iterations used =            4
     Exchange-correlation      =  SLA  PW   PBX  PBC ( 1  4  3  4 0 0)


     celldm(1)=    8.17840  celldm(2)=    0.00000  celldm(3)=    0.00000
     celldm(4)=    0.00000  celldm(5)=    0.00000  celldm(6)=    0.00000

     crystal axes: (cart. coord. in units of alat)
               a(1) = ( -0.5000  0.0000  0.5000 )  
               a(2) = (  0.0000  0.5000  0.5000 )  
               a(3) = ( -0.5000  0.5000  0.0000 )  

     reciprocal axes: (cart. coord. in units 2 pi/alat)
               b(1) = ( -1.0000 -1.0000  1.0000 )  
               b(2) = (  1.0000  1.0000  1.0000 )  
               b(3) = ( -1.0000  1.0000 -1.0000 )  


     Atoms inside the unit cell: 

     Cartesian axes

     site n.  atom      mass           positions (alat units)
        1     Li   6.9410   tau(    1) = (    0.00000    0.00000    0.00000  )

     Computing dynamical matrix for 
                    q = (  -0.2500000   0.2500000  -0.2500000 )
 
      6 Sym.Ops. (no q -> -q+G )


     G cutoff =  813.2389  (  24309 G-vectors)     FFT grid: ( 45, 45, 45)
     G cutoff =  406.6194  (   8609 G-vectors)  smooth grid: ( 30, 30, 30)

     number of k points= 30856  Marzari-Vanderbilt smearing, width (Ry)=  0.0200

     PseudoPot. # 1 for Li read from file:
     ../Li.pbe-s-gbrv14.UPF
     MD5 check sum: 7ca33c4f951f001da2db5c8738379802
     Pseudo is Ultrasoft, Zval =  3.0
     Generated by new atomic code, or converted to UPF format
     Using radial grid of  751 points,  5 beta functions with: 
                l(1) =   0
                l(2) =   0
                l(3) =   0
                l(4) =   1
                l(5) =   1
     Q(r) pseudized with 10 coefficients,  rinner =    1.150   1.150   1.150


     Mode symmetry, C_3v (3m)   point group:


     Atomic displacements:
     There are   2 irreducible representations

     Representation     1      1 modes -A_1  L_1  To be done

     Representation     2      2 modes -E    L_3  To be done



     Alpha used in Ewald sum =   2.8000
     PHONON       :  1m40.94s CPU     2m 2.91s WALL



     Representation #  1 mode #   1

     Self-consistent Calculation

      iter #   1 total cpu time :   124.2 secs   av.it.:   6.4
      thresh= 1.000E-02 alpha_mix =  0.700 |ddv_scf|^2 =  6.636E-04

      iter #   2 total cpu time :   125.8 secs   av.it.:   7.9
      thresh= 2.576E-03 alpha_mix =  0.700 |ddv_scf|^2 =  2.413E-02

      iter #   3 total cpu time :   128.4 secs   av.it.:   6.4
      thresh= 1.000E-02 alpha_mix =  0.700 |ddv_scf|^2 =  6.260E-08

      iter #   4 total cpu time :   129.9 secs   av.it.:   9.0
      thresh= 2.502E-05 alpha_mix =  0.700 |ddv_scf|^2 =  2.965E-09

      iter #   5 total cpu time :   132.0 secs   av.it.:   9.0
      thresh= 5.445E-06 alpha_mix =  0.700 |ddv_scf|^2 =  6.236E-11

      iter #   6 total cpu time :   134.5 secs   av.it.:   8.7
      thresh= 7.897E-07 alpha_mix =  0.700 |ddv_scf|^2 =  1.888E-13

      iter #   7 total cpu time :   136.1 secs   av.it.:   9.6
      thresh= 4.345E-08 alpha_mix =  0.700 |ddv_scf|^2 =  1.677E-14

      iter #   8 total cpu time :   138.5 secs   av.it.:   8.6
      thresh= 1.295E-08 alpha_mix =  0.700 |ddv_scf|^2 =  4.660E-14

      iter #   9 total cpu time :   149.4 secs   av.it.:   6.7
      thresh= 2.159E-08 alpha_mix =  0.700 |ddv_scf|^2 =  1.428E-14

      iter #  10 total cpu time :   156.7 secs   av.it.:   6.7
      thresh= 1.195E-08 alpha_mix =  0.700 |ddv_scf|^2 =  3.112E-17

     End of self-consistent calculation

     Convergence has been achieved 


     Representation #  2 modes #   2  3

     Self-consistent Calculation

      iter #   1 total cpu time :   168.8 secs   av.it.:   5.4
      thresh= 1.000E-02 alpha_mix =  0.700 |ddv_scf|^2 =  1.804E-07

      iter #   2 total cpu time :   171.8 secs   av.it.:   9.5
      thresh= 4.247E-05 alpha_mix =  0.700 |ddv_scf|^2 =  1.102E-08

      iter #   3 total cpu time :   175.4 secs   av.it.:   9.7
      thresh= 1.050E-05 alpha_mix =  0.700 |ddv_scf|^2 =  9.718E-11

      iter #   4 total cpu time :   178.3 secs   av.it.:   9.1
      thresh= 9.858E-07 alpha_mix =  0.700 |ddv_scf|^2 =  1.753E-13

      iter #   5 total cpu time :   181.5 secs   av.it.:   9.2
      thresh= 4.187E-08 alpha_mix =  0.700 |ddv_scf|^2 =  2.857E-15

      iter #   6 total cpu time :   185.3 secs   av.it.:   7.6
      thresh= 5.345E-09 alpha_mix =  0.700 |ddv_scf|^2 =  1.490E-18

     End of self-consistent calculation

     Convergence has been achieved 
 
     Number of q in the star =    8
     List of q in the star:
          1  -0.250000000   0.250000000  -0.250000000
          2   0.250000000  -0.250000000  -0.250000000
          3   0.250000000  -0.250000000   0.250000000
          4  -0.250000000   0.250000000   0.250000000
          5   0.250000000   0.250000000  -0.250000000
          6  -0.250000000  -0.250000000  -0.250000000
          7  -0.250000000  -0.250000000   0.250000000
          8   0.250000000   0.250000000   0.250000000

     Diagonalizing the dynamical matrix

     q = (   -0.250000000   0.250000000  -0.250000000 ) 

 **************************************************************************
     freq (    1) =       2.617938 [THz] =      87.324997 [cm-1]
     freq (    2) =       2.617938 [THz] =      87.324997 [cm-1]
     freq (    3) =       6.889046 [THz] =     229.793847 [cm-1]
 **************************************************************************

     Mode symmetry, C_3v (3m)   point group:

     freq (  1 -  2) =         87.3  [cm-1]   --> E    L_3           
     freq (  3 -  3) =        229.8  [cm-1]   --> A_1  L_1           

     Calculation of q =   -0.3750000   0.3750000  -0.3750000
 
     G-vector sticks info
     --------------------
     sticks:   dense  smooth     PW     G-vecs:    dense   smooth      PW
     Sum        1111     559    199                24309     8609    1917
 


     bravais-lattice index     =            2
     lattice parameter (alat)  =       8.1784  a.u.
     unit-cell volume          =     136.7556 (a.u.)^3
     number of atoms/cell      =            1
     number of atomic types    =            1
     number of electrons       =         3.00
     number of Kohn-Sham states=            6
     kinetic-energy cutoff     =      60.0000  Ry
     charge density cutoff     =     480.0000  Ry
     Exchange-correlation      =  SLA  PW   PBX  PBC ( 1  4  3  4 0 0)

     celldm(1)=   8.178399  celldm(2)=   0.000000  celldm(3)=   0.000000
     celldm(4)=   0.000000  celldm(5)=   0.000000  celldm(6)=   0.000000

     crystal axes: (cart. coord. in units of alat)
               a(1) = (  -0.500000   0.000000   0.500000 )  
               a(2) = (   0.000000   0.500000   0.500000 )  
               a(3) = (  -0.500000   0.500000   0.000000 )  

     reciprocal axes: (cart. coord. in units 2 pi/alat)
               b(1) = ( -1.000000 -1.000000  1.000000 )  
               b(2) = (  1.000000  1.000000  1.000000 )  
               b(3) = ( -1.000000  1.000000 -1.000000 )  


     PseudoPot. # 1 for Li read from file:
     ../Li.pbe-s-gbrv14.UPF
     MD5 check sum: 7ca33c4f951f001da2db5c8738379802
     Pseudo is Ultrasoft, Zval =  3.0
     Generated by new atomic code, or converted to UPF format
     Using radial grid of  751 points,  5 beta functions with: 
                l(1) =   0
                l(2) =   0
                l(3) =   0
                l(4) =   1
                l(5) =   1
     Q(r) pseudized with 10 coefficients,  rinner =    1.150   1.150   1.150


     atomic species   valence    mass     pseudopotential
        Li             3.00     6.94100     Li( 1.00)

     48 Sym. Ops., with inversion, found



   Cartesian axes

     site n.     atom                  positions (alat units)
         1           Li  tau(   1) = (   0.0000000   0.0000000   0.0000000  )

     number of k points= 30856  Marzari-Vanderbilt smearing, width (Ry)=  0.0200

     Number of k-points >= 100: set verbosity='high' to print them.

     Dense  grid:    24309 G-vectors     FFT dimensions: (  45,  45,  45)

     Smooth grid:     8609 G-vectors     FFT dimensions: (  30,  30,  30)

     Largest allocated arrays     est. size (Mb)     dimensions
        Kohn-Sham Wavefunctions         0.10 Mb     (    1095,    6)
        NL pseudopotentials             0.15 Mb     (    1095,    9)
        Each V/rho on FFT grid          1.39 Mb     (   91125)
        Each G-vector array             0.19 Mb     (   24309)
        G-vector shells                 0.00 Mb     (     274)
     Largest temporary arrays     est. size (Mb)     dimensions
        Auxiliary wavefunctions         0.40 Mb     (    1095,   24)
        Each subspace H/S matrix        0.01 Mb     (      24,   24)
        Each <psi_i|beta_j> matrix      0.00 Mb     (       9,    6)

     The potential is recalculated from file :
     ./tmp/_ph0/li-fcc.save/charge-density.dat

     Starting wfc are    5 atomic +    1 random wfc

     Band Structure Calculation
     Davidson diagonalization with overlap

     ethr =  3.33E-10,  avg # of iterations = 15.5

     total cpu time spent up to now is       33.2 secs

     End of band structure calculation

     Number of k-points >= 100: set verbosity='high' to print the bands.

     the Fermi energy is     0.9377 ev

                                                                                

     bravais-lattice index     =            2
     lattice parameter (alat)  =       8.1784  a.u.
     unit-cell volume          =     136.7556 (a.u.)^3
     number of atoms/cell      =            1
     number of atomic types    =            1
     kinetic-energy cut-off    =      60.0000  Ry
     charge density cut-off    =     480.0000  Ry
     convergence threshold     =      1.0E-16
     beta                      =       0.7000
     number of iterations used =            4
     Exchange-correlation      =  SLA  PW   PBX  PBC ( 1  4  3  4 0 0)


     celldm(1)=    8.17840  celldm(2)=    0.00000  celldm(3)=    0.00000
     celldm(4)=    0.00000  celldm(5)=    0.00000  celldm(6)=    0.00000

     crystal axes: (cart. coord. in units of alat)
               a(1) = ( -0.5000  0.0000  0.5000 )  
               a(2) = (  0.0000  0.5000  0.5000 )  
               a(3) = ( -0.5000  0.5000  0.0000 )  

     reciprocal axes: (cart. coord. in units 2 pi/alat)
               b(1) = ( -1.0000 -1.0000  1.0000 )  
               b(2) = (  1.0000  1.0000  1.0000 )  
               b(3) = ( -1.0000  1.0000 -1.0000 )  


     Atoms inside the unit cell: 

     Cartesian axes

     site n.  atom      mass           positions (alat units)
        1     Li   6.9410   tau(    1) = (    0.00000    0.00000    0.00000  )

     Computing dynamical matrix for 
                    q = (  -0.3750000   0.3750000  -0.3750000 )
 
      6 Sym.Ops. (no q -> -q+G )


     G cutoff =  813.2389  (  24309 G-vectors)     FFT grid: ( 45, 45, 45)
     G cutoff =  406.6194  (   8609 G-vectors)  smooth grid: ( 30, 30, 30)

     number of k points= 30856  Marzari-Vanderbilt smearing, width (Ry)=  0.0200

     PseudoPot. # 1 for Li read from file:
     ../Li.pbe-s-gbrv14.UPF
     MD5 check sum: 7ca33c4f951f001da2db5c8738379802
     Pseudo is Ultrasoft, Zval =  3.0
     Generated by new atomic code, or converted to UPF format
     Using radial grid of  751 points,  5 beta functions with: 
                l(1) =   0
                l(2) =   0
                l(3) =   0
                l(4) =   1
                l(5) =   1
     Q(r) pseudized with 10 coefficients,  rinner =    1.150   1.150   1.150


     Mode symmetry, C_3v (3m)   point group:


     Atomic displacements:
     There are   2 irreducible representations

     Representation     1      1 modes -A_1  L_1  To be done

     Representation     2      2 modes -E    L_3  To be done



     Alpha used in Ewald sum =   2.8000
     PHONON       :  2m54.52s CPU     3m19.55s WALL



     Representation #  1 mode #   1

     Self-consistent Calculation

      iter #   1 total cpu time :   200.9 secs   av.it.:   6.4
      thresh= 1.000E-02 alpha_mix =  0.700 |ddv_scf|^2 =  4.473E-05

      iter #   2 total cpu time :   202.5 secs   av.it.:   8.6
      thresh= 6.688E-04 alpha_mix =  0.700 |ddv_scf|^2 =  1.694E-04

      iter #   3 total cpu time :   205.0 secs   av.it.:   7.1
      thresh= 1.301E-03 alpha_mix =  0.700 |ddv_scf|^2 =  4.196E-08

      iter #   4 total cpu time :   206.4 secs   av.it.:   8.8
      thresh= 2.048E-05 alpha_mix =  0.700 |ddv_scf|^2 =  2.305E-09

      iter #   5 total cpu time :   208.2 secs   av.it.:   8.9
      thresh= 4.801E-06 alpha_mix =  0.700 |ddv_scf|^2 =  2.767E-12

      iter #   6 total cpu time :   209.8 secs   av.it.:   9.1
      thresh= 1.663E-07 alpha_mix =  0.700 |ddv_scf|^2 =  1.600E-13

      iter #   7 total cpu time :   211.3 secs   av.it.:   9.2
      thresh= 3.999E-08 alpha_mix =  0.700 |ddv_scf|^2 =  8.078E-16

      iter #   8 total cpu time :   212.9 secs   av.it.:   9.6
      thresh= 2.842E-09 alpha_mix =  0.700 |ddv_scf|^2 =  5.744E-16

      iter #   9 total cpu time :   214.9 secs   av.it.:   8.5
      thresh= 2.397E-09 alpha_mix =  0.700 |ddv_scf|^2 =  1.684E-17

     End of self-consistent calculation

     Convergence has been achieved 


     Representation #  2 modes #   2  3

     Self-consistent Calculation

      iter #   1 total cpu time :   220.8 secs   av.it.:   5.5
      thresh= 1.000E-02 alpha_mix =  0.700 |ddv_scf|^2 =  1.838E-07

      iter #   2 total cpu time :   223.6 secs   av.it.:   9.5
      thresh= 4.287E-05 alpha_mix =  0.700 |ddv_scf|^2 =  1.117E-08

      iter #   3 total cpu time :   226.7 secs   av.it.:   9.7
      thresh= 1.057E-05 alpha_mix =  0.700 |ddv_scf|^2 =  1.097E-10

      iter #   4 total cpu time :   229.6 secs   av.it.:   9.2
      thresh= 1.047E-06 alpha_mix =  0.700 |ddv_scf|^2 =  1.812E-13

      iter #   5 total cpu time :   232.6 secs   av.it.:   9.3
      thresh= 4.257E-08 alpha_mix =  0.700 |ddv_scf|^2 =  3.061E-15

      iter #   6 total cpu time :   236.7 secs   av.it.:   8.2
      thresh= 5.532E-09 alpha_mix =  0.700 |ddv_scf|^2 =  1.095E-18

     End of self-consistent calculation

     Convergence has been achieved 
 
     Number of q in the star =    8
     List of q in the star:
          1  -0.375000000   0.375000000  -0.375000000
          2   0.375000000  -0.375000000  -0.375000000
          3   0.375000000  -0.375000000   0.375000000
          4  -0.375000000   0.375000000   0.375000000
          5   0.375000000   0.375000000  -0.375000000
          6  -0.375000000  -0.375000000  -0.375000000
          7  -0.375000000  -0.375000000   0.375000000
          8   0.375000000   0.375000000   0.375000000

     Diagonalizing the dynamical matrix

     q = (   -0.375000000   0.375000000  -0.375000000 ) 

 **************************************************************************
     freq (    1) =       3.482749 [THz] =     116.171992 [cm-1]
     freq (    2) =       3.482749 [THz] =     116.171992 [cm-1]
     freq (    3) =       8.852889 [THz] =     295.300605 [cm-1]
 **************************************************************************

     Mode symmetry, C_3v (3m)   point group:

     freq (  1 -  2) =        116.2  [cm-1]   --> E    L_3           
     freq (  3 -  3) =        295.3  [cm-1]   --> A_1  L_1           

     Calculation of q =    0.5000000  -0.5000000   0.5000000
 
     G-vector sticks info
     --------------------
     sticks:   dense  smooth     PW     G-vecs:    dense   smooth      PW
     Sum        1111     559    211                24309     8609    2085
 


     bravais-lattice index     =            2
     lattice parameter (alat)  =       8.1784  a.u.
     unit-cell volume          =     136.7556 (a.u.)^3
     number of atoms/cell      =            1
     number of atomic types    =            1
     number of electrons       =         3.00
     number of Kohn-Sham states=            6
     kinetic-energy cutoff     =      60.0000  Ry
     charge density cutoff     =     480.0000  Ry
     Exchange-correlation      =  SLA  PW   PBX  PBC ( 1  4  3  4 0 0)

     celldm(1)=   8.178399  celldm(2)=   0.000000  celldm(3)=   0.000000
     celldm(4)=   0.000000  celldm(5)=   0.000000  celldm(6)=   0.000000

     crystal axes: (cart. coord. in units of alat)
               a(1) = (  -0.500000   0.000000   0.500000 )  
               a(2) = (   0.000000   0.500000   0.500000 )  
               a(3) = (  -0.500000   0.500000   0.000000 )  

     reciprocal axes: (cart. coord. in units 2 pi/alat)
               b(1) = ( -1.000000 -1.000000  1.000000 )  
               b(2) = (  1.000000  1.000000  1.000000 )  
               b(3) = ( -1.000000  1.000000 -1.000000 )  


     PseudoPot. # 1 for Li read from file:
     ../Li.pbe-s-gbrv14.UPF
     MD5 check sum: 7ca33c4f951f001da2db5c8738379802
     Pseudo is Ultrasoft, Zval =  3.0
     Generated by new atomic code, or converted to UPF format
     Using radial grid of  751 points,  5 beta functions with: 
                l(1) =   0
                l(2) =   0
                l(3) =   0
                l(4) =   1
                l(5) =   1
     Q(r) pseudized with 10 coefficients,  rinner =    1.150   1.150   1.150


     atomic species   valence    mass     pseudopotential
        Li             3.00     6.94100     Li( 1.00)

     48 Sym. Ops., with inversion, found



   Cartesian axes

     site n.     atom                  positions (alat units)
         1           Li  tau(   1) = (   0.0000000   0.0000000   0.0000000  )

     number of k points= 15428  Marzari-Vanderbilt smearing, width (Ry)=  0.0200

     Number of k-points >= 100: set verbosity='high' to print them.

     Dense  grid:    24309 G-vectors     FFT dimensions: (  45,  45,  45)

     Smooth grid:     8609 G-vectors     FFT dimensions: (  30,  30,  30)

     Largest allocated arrays     est. size (Mb)     dimensions
        Kohn-Sham Wavefunctions         0.10 Mb     (    1095,    6)
        NL pseudopotentials             0.15 Mb     (    1095,    9)
        Each V/rho on FFT grid          1.39 Mb     (   91125)
        Each G-vector array             0.19 Mb     (   24309)
        G-vector shells                 0.00 Mb     (     274)
     Largest temporary arrays     est. size (Mb)     dimensions
        Auxiliary wavefunctions         0.40 Mb     (    1095,   24)
        Each subspace H/S matrix        0.01 Mb     (      24,   24)
        Each <psi_i|beta_j> matrix      0.00 Mb     (       9,    6)

     The potential is recalculated from file :
     ./tmp/_ph0/li-fcc.save/charge-density.dat

     Starting wfc are    5 atomic +    1 random wfc

     Band Structure Calculation
     Davidson diagonalization with overlap

     ethr =  3.33E-10,  avg # of iterations = 15.5

     total cpu time spent up to now is       39.3 secs

     End of band structure calculation

     Number of k-points >= 100: set verbosity='high' to print the bands.

     the Fermi energy is     0.9377 ev

                                                                                

     bravais-lattice index     =            2
     lattice parameter (alat)  =       8.1784  a.u.
     unit-cell volume          =     136.7556 (a.u.)^3
     number of atoms/cell      =            1
     number of atomic types    =            1
     kinetic-energy cut-off    =      60.0000  Ry
     charge density cut-off    =     480.0000  Ry
     convergence threshold     =      1.0E-16
     beta                      =       0.7000
     number of iterations used =            4
     Exchange-correlation      =  SLA  PW   PBX  PBC ( 1  4  3  4 0 0)


     celldm(1)=    8.17840  celldm(2)=    0.00000  celldm(3)=    0.00000
     celldm(4)=    0.00000  celldm(5)=    0.00000  celldm(6)=    0.00000

     crystal axes: (cart. coord. in units of alat)
               a(1) = ( -0.5000  0.0000  0.5000 )  
               a(2) = (  0.0000  0.5000  0.5000 )  
               a(3) = ( -0.5000  0.5000  0.0000 )  

     reciprocal axes: (cart. coord. in units 2 pi/alat)
               b(1) = ( -1.0000 -1.0000  1.0000 )  
               b(2) = (  1.0000  1.0000  1.0000 )  
               b(3) = ( -1.0000  1.0000 -1.0000 )  


     Atoms inside the unit cell: 

     Cartesian axes

     site n.  atom      mass           positions (alat units)
        1     Li   6.9410   tau(    1) = (    0.00000    0.00000    0.00000  )

     Computing dynamical matrix for 
                    q = (   0.5000000  -0.5000000   0.5000000 )
 
     13 Sym.Ops. (with q -> -q+G )


     G cutoff =  813.2389  (  24309 G-vectors)     FFT grid: ( 45, 45, 45)
     G cutoff =  406.6194  (   8609 G-vectors)  smooth grid: ( 30, 30, 30)

     number of k points= 15428  Marzari-Vanderbilt smearing, width (Ry)=  0.0200

     PseudoPot. # 1 for Li read from file:
     ../Li.pbe-s-gbrv14.UPF
     MD5 check sum: 7ca33c4f951f001da2db5c8738379802
     Pseudo is Ultrasoft, Zval =  3.0
     Generated by new atomic code, or converted to UPF format
     Using radial grid of  751 points,  5 beta functions with: 
                l(1) =   0
                l(2) =   0
                l(3) =   0
                l(4) =   1
                l(5) =   1
     Q(r) pseudized with 10 coefficients,  rinner =    1.150   1.150   1.150


     Mode symmetry, D_3d (-3m)  point group:


     Atomic displacements:
     There are   2 irreducible representations

     Representation     1      1 modes -A_2u L_2'  To be done

     Representation     2      2 modes -E_u  L_3'  To be done



     Alpha used in Ewald sum =   2.8000
     PHONON       :  3m38.13s CPU     4m 6.17s WALL



     Representation #  1 mode #   1

     Self-consistent Calculation

      iter #   1 total cpu time :   247.0 secs   av.it.:   6.3
      thresh= 1.000E-02 alpha_mix =  0.700 |ddv_scf|^2 =  1.180E-05

      iter #   2 total cpu time :   249.1 secs   av.it.:   8.8
      thresh= 3.436E-04 alpha_mix =  0.700 |ddv_scf|^2 =  5.233E-06

      iter #   3 total cpu time :   251.5 secs   av.it.:   8.0
      thresh= 2.288E-04 alpha_mix =  0.700 |ddv_scf|^2 =  1.398E-08

      iter #   4 total cpu time :   252.4 secs   av.it.:   9.0
      thresh= 1.183E-05 alpha_mix =  0.700 |ddv_scf|^2 =  8.312E-12

      iter #   5 total cpu time :   254.3 secs   av.it.:   8.7
      thresh= 2.883E-07 alpha_mix =  0.700 |ddv_scf|^2 =  5.167E-13

      iter #   6 total cpu time :   255.3 secs   av.it.:   8.4
      thresh= 7.188E-08 alpha_mix =  0.700 |ddv_scf|^2 =  2.478E-15

      iter #   7 total cpu time :   256.2 secs   av.it.:   9.0
      thresh= 4.978E-09 alpha_mix =  0.700 |ddv_scf|^2 =  1.974E-18

     End of self-consistent calculation

     Convergence has been achieved 


     Representation #  2 modes #   2  3

     Self-consistent Calculation

      iter #   1 total cpu time :   259.5 secs   av.it.:   5.4
      thresh= 1.000E-02 alpha_mix =  0.700 |ddv_scf|^2 =  1.852E-07

      iter #   2 total cpu time :   261.2 secs   av.it.:   9.3
      thresh= 4.304E-05 alpha_mix =  0.700 |ddv_scf|^2 =  1.122E-08

      iter #   3 total cpu time :   262.9 secs   av.it.:   9.6
      thresh= 1.059E-05 alpha_mix =  0.700 |ddv_scf|^2 =  1.129E-10

      iter #   4 total cpu time :   264.6 secs   av.it.:   9.0
      thresh= 1.063E-06 alpha_mix =  0.700 |ddv_scf|^2 =  1.828E-13

      iter #   5 total cpu time :   266.5 secs   av.it.:   9.1
      thresh= 4.276E-08 alpha_mix =  0.700 |ddv_scf|^2 =  3.351E-15

      iter #   6 total cpu time :   269.7 secs   av.it.:   7.9
      thresh= 5.789E-09 alpha_mix =  0.700 |ddv_scf|^2 =  7.274E-19

     End of self-consistent calculation

     Convergence has been achieved 
 
     Number of q in the star =    4
     List of q in the star:
          1   0.500000000  -0.500000000   0.500000000
          2   0.500000000   0.500000000   0.500000000
          3  -0.500000000   0.500000000   0.500000000
          4   0.500000000   0.500000000  -0.500000000

     Diagonalizing the dynamical matrix

     q = (    0.500000000  -0.500000000   0.500000000 ) 

 **************************************************************************
     freq (    1) =       3.807198 [THz] =     126.994467 [cm-1]
     freq (    2) =       3.807198 [THz] =     126.994467 [cm-1]
     freq (    3) =       9.484798 [THz] =     316.378797 [cm-1]
 **************************************************************************

     Mode symmetry, D_3d (-3m)  point group:

     freq (  1 -  2) =        127.0  [cm-1]   --> E_u  L_3'          
     freq (  3 -  3) =        316.4  [cm-1]   --> A_2u L_2'          

     Calculation of q =    0.0000000   0.2500000   0.0000000
 
     G-vector sticks info
     --------------------
     sticks:   dense  smooth     PW     G-vecs:    dense   smooth      PW
     Sum        1111     559    199                24309     8609    1807
 


     bravais-lattice index     =            2
     lattice parameter (alat)  =       8.1784  a.u.
     unit-cell volume          =     136.7556 (a.u.)^3
     number of atoms/cell      =            1
     number of atomic types    =            1
     number of electrons       =         3.00
     number of Kohn-Sham states=            6
     kinetic-energy cutoff     =      60.0000  Ry
     charge density cutoff     =     480.0000  Ry
     Exchange-correlation      =  SLA  PW   PBX  PBC ( 1  4  3  4 0 0)

     celldm(1)=   8.178399  celldm(2)=   0.000000  celldm(3)=   0.000000
     celldm(4)=   0.000000  celldm(5)=   0.000000  celldm(6)=   0.000000

     crystal axes: (cart. coord. in units of alat)
               a(1) = (  -0.500000   0.000000   0.500000 )  
               a(2) = (   0.000000   0.500000   0.500000 )  
               a(3) = (  -0.500000   0.500000   0.000000 )  

     reciprocal axes: (cart. coord. in units 2 pi/alat)
               b(1) = ( -1.000000 -1.000000  1.000000 )  
               b(2) = (  1.000000  1.000000  1.000000 )  
               b(3) = ( -1.000000  1.000000 -1.000000 )  


     PseudoPot. # 1 for Li read from file:
     ../Li.pbe-s-gbrv14.UPF
     MD5 check sum: 7ca33c4f951f001da2db5c8738379802
     Pseudo is Ultrasoft, Zval =  3.0
     Generated by new atomic code, or converted to UPF format
     Using radial grid of  751 points,  5 beta functions with: 
                l(1) =   0
                l(2) =   0
                l(3) =   0
                l(4) =   1
                l(5) =   1
     Q(r) pseudized with 10 coefficients,  rinner =    1.150   1.150   1.150


     atomic species   valence    mass     pseudopotential
        Li             3.00     6.94100     Li( 1.00)

     48 Sym. Ops., with inversion, found



   Cartesian axes

     site n.     atom                  positions (alat units)
         1           Li  tau(   1) = (   0.0000000   0.0000000   0.0000000  )

     number of k points= 22736  Marzari-Vanderbilt smearing, width (Ry)=  0.0200

     Number of k-points >= 100: set verbosity='high' to print them.

     Dense  grid:    24309 G-vectors     FFT dimensions: (  45,  45,  45)

     Smooth grid:     8609 G-vectors     FFT dimensions: (  30,  30,  30)

     Largest allocated arrays     est. size (Mb)     dimensions
        Kohn-Sham Wavefunctions         0.10 Mb     (    1095,    6)
        NL pseudopotentials             0.15 Mb     (    1095,    9)
        Each V/rho on FFT grid          1.39 Mb     (   91125)
        Each G-vector array             0.19 Mb     (   24309)
        G-vector shells                 0.00 Mb     (     274)
     Largest temporary arrays     est. size (Mb)     dimensions
        Auxiliary wavefunctions         0.40 Mb     (    1095,   24)
        Each subspace H/S matrix        0.01 Mb     (      24,   24)
        Each <psi_i|beta_j> matrix      0.00 Mb     (       9,    6)

     The potential is recalculated from file :
     ./tmp/_ph0/li-fcc.save/charge-density.dat

     Starting wfc are    5 atomic +    1 random wfc

     Band Structure Calculation
     Davidson diagonalization with overlap

     ethr =  3.33E-10,  avg # of iterations = 15.5

     total cpu time spent up to now is       47.3 secs

     End of band structure calculation

     Number of k-points >= 100: set verbosity='high' to print the bands.

     the Fermi energy is     0.9377 ev

                                                                                

     bravais-lattice index     =            2
     lattice parameter (alat)  =       8.1784  a.u.
     unit-cell volume          =     136.7556 (a.u.)^3
     number of atoms/cell      =            1
     number of atomic types    =            1
     kinetic-energy cut-off    =      60.0000  Ry
     charge density cut-off    =     480.0000  Ry
     convergence threshold     =      1.0E-16
     beta                      =       0.7000
     number of iterations used =            4
     Exchange-correlation      =  SLA  PW   PBX  PBC ( 1  4  3  4 0 0)


     celldm(1)=    8.17840  celldm(2)=    0.00000  celldm(3)=    0.00000
     celldm(4)=    0.00000  celldm(5)=    0.00000  celldm(6)=    0.00000

     crystal axes: (cart. coord. in units of alat)
               a(1) = ( -0.5000  0.0000  0.5000 )  
               a(2) = (  0.0000  0.5000  0.5000 )  
               a(3) = ( -0.5000  0.5000  0.0000 )  

     reciprocal axes: (cart. coord. in units 2 pi/alat)
               b(1) = ( -1.0000 -1.0000  1.0000 )  
               b(2) = (  1.0000  1.0000  1.0000 )  
               b(3) = ( -1.0000  1.0000 -1.0000 )  


     Atoms inside the unit cell: 

     Cartesian axes

     site n.  atom      mass           positions (alat units)
        1     Li   6.9410   tau(    1) = (    0.00000    0.00000    0.00000  )

     Computing dynamical matrix for 
                    q = (   0.0000000   0.2500000   0.0000000 )
 
      8 Sym.Ops. (no q -> -q+G )


     G cutoff =  813.2389  (  24309 G-vectors)     FFT grid: ( 45, 45, 45)
     G cutoff =  406.6194  (   8609 G-vectors)  smooth grid: ( 30, 30, 30)

     number of k points= 22736  Marzari-Vanderbilt smearing, width (Ry)=  0.0200

     PseudoPot. # 1 for Li read from file:
     ../Li.pbe-s-gbrv14.UPF
     MD5 check sum: 7ca33c4f951f001da2db5c8738379802
     Pseudo is Ultrasoft, Zval =  3.0
     Generated by new atomic code, or converted to UPF format
     Using radial grid of  751 points,  5 beta functions with: 
                l(1) =   0
                l(2) =   0
                l(3) =   0
                l(4) =   1
                l(5) =   1
     Q(r) pseudized with 10 coefficients,  rinner =    1.150   1.150   1.150


     Mode symmetry, C_4v (4mm)  point group:


     Atomic displacements:
     There are   2 irreducible representations

     Representation     1      1 modes -A_1  G_1 D_1  To be done

     Representation     2      2 modes -E    G_5 D_5  To be done



     Alpha used in Ewald sum =   2.8000
     PHONON       :  4m14.66s CPU     4m45.60s WALL



     Representation #  1 mode #   1

     Self-consistent Calculation

      iter #   1 total cpu time :   286.6 secs   av.it.:   6.4
      thresh= 1.000E-02 alpha_mix =  0.700 |ddv_scf|^2 =  2.343E-02

      iter #   2 total cpu time :   292.2 secs   av.it.:   7.7
      thresh= 1.000E-02 alpha_mix =  0.700 |ddv_scf|^2 =  1.136E+01

      iter #   3 total cpu time :   293.4 secs   av.it.:   7.6
      thresh= 1.000E-02 alpha_mix =  0.700 |ddv_scf|^2 =  4.531E-05

      iter #   4 total cpu time :   295.0 secs   av.it.:   6.4
      thresh= 6.731E-04 alpha_mix =  0.700 |ddv_scf|^2 =  2.168E-08

      iter #   5 total cpu time :   296.2 secs   av.it.:   8.6
      thresh= 1.473E-05 alpha_mix =  0.700 |ddv_scf|^2 =  9.845E-11

      iter #   6 total cpu time :   297.3 secs   av.it.:   8.6
      thresh= 9.922E-07 alpha_mix =  0.700 |ddv_scf|^2 =  1.796E-10

      iter #   7 total cpu time :   298.4 secs   av.it.:   5.6
      thresh= 1.340E-06 alpha_mix =  0.700 |ddv_scf|^2 =  6.903E-10

      iter #   8 total cpu time :   299.4 secs   av.it.:   6.3
      thresh= 2.627E-06 alpha_mix =  0.700 |ddv_scf|^2 =  4.277E-14

      iter #   9 total cpu time :   301.3 secs   av.it.:   8.5
      thresh= 2.068E-08 alpha_mix =  0.700 |ddv_scf|^2 =  4.605E-15

      iter #  10 total cpu time :   302.3 secs   av.it.:   7.5
      thresh= 6.786E-09 alpha_mix =  0.700 |ddv_scf|^2 =  1.503E-15

      iter #  11 total cpu time :   303.9 secs   av.it.:   6.4
      thresh= 3.877E-09 alpha_mix =  0.700 |ddv_scf|^2 =  5.782E-19

     End of self-consistent calculation

     Convergence has been achieved 


     Representation #  2 modes #   2  3

     Self-consistent Calculation

      iter #   1 total cpu time :   310.1 secs   av.it.:   5.4
      thresh= 1.000E-02 alpha_mix =  0.700 |ddv_scf|^2 =  1.813E-07

      iter #   2 total cpu time :   312.4 secs   av.it.:   9.4
      thresh= 4.258E-05 alpha_mix =  0.700 |ddv_scf|^2 =  1.102E-08

      iter #   3 total cpu time :   333.9 secs   av.it.:   9.6
      thresh= 1.050E-05 alpha_mix =  0.700 |ddv_scf|^2 =  1.104E-10

      iter #   4 total cpu time :   337.2 secs   av.it.:   9.0
      thresh= 1.051E-06 alpha_mix =  0.700 |ddv_scf|^2 =  1.678E-13

      iter #   5 total cpu time :   339.4 secs   av.it.:   9.0
      thresh= 4.096E-08 alpha_mix =  0.700 |ddv_scf|^2 =  2.922E-15

      iter #   6 total cpu time :   341.5 secs   av.it.:   8.4
      thresh= 5.406E-09 alpha_mix =  0.700 |ddv_scf|^2 =  2.068E-18

     End of self-consistent calculation

     Convergence has been achieved 
 
     Number of q in the star =    6
     List of q in the star:
          1   0.000000000   0.250000000   0.000000000
          2   0.000000000  -0.250000000   0.000000000
          3   0.250000000   0.000000000   0.000000000
          4   0.000000000   0.000000000   0.250000000
          5   0.000000000   0.000000000  -0.250000000
          6  -0.250000000   0.000000000   0.000000000

     Diagonalizing the dynamical matrix

     q = (    0.000000000   0.250000000   0.000000000 ) 

 **************************************************************************
     freq (    1) =       2.448097 [THz] =      81.659735 [cm-1]
     freq (    2) =       2.448097 [THz] =      81.659735 [cm-1]
     freq (    3) =       3.084680 [THz] =     102.893862 [cm-1]
 **************************************************************************

     Mode symmetry, C_4v (4mm)  point group:

     freq (  1 -  2) =         81.7  [cm-1]   --> E    G_5 D_5       
     freq (  3 -  3) =        102.9  [cm-1]   --> A_1  G_1 D_1       

     Calculation of q =   -0.1250000   0.3750000  -0.1250000
 
     G-vector sticks info
     --------------------
     sticks:   dense  smooth     PW     G-vecs:    dense   smooth      PW
     Sum        1111     559    199                24309     8609    1837
 


     bravais-lattice index     =            2
     lattice parameter (alat)  =       8.1784  a.u.
     unit-cell volume          =     136.7556 (a.u.)^3
     number of atoms/cell      =            1
     number of atomic types    =            1
     number of electrons       =         3.00
     number of Kohn-Sham states=            6
     kinetic-energy cutoff     =      60.0000  Ry
     charge density cutoff     =     480.0000  Ry
     Exchange-correlation      =  SLA  PW   PBX  PBC ( 1  4  3  4 0 0)

     celldm(1)=   8.178399  celldm(2)=   0.000000  celldm(3)=   0.000000
     celldm(4)=   0.000000  celldm(5)=   0.000000  celldm(6)=   0.000000

     crystal axes: (cart. coord. in units of alat)
               a(1) = (  -0.500000   0.000000   0.500000 )  
               a(2) = (   0.000000   0.500000   0.500000 )  
               a(3) = (  -0.500000   0.500000   0.000000 )  

     reciprocal axes: (cart. coord. in units 2 pi/alat)
               b(1) = ( -1.000000 -1.000000  1.000000 )  
               b(2) = (  1.000000  1.000000  1.000000 )  
               b(3) = ( -1.000000  1.000000 -1.000000 )  


     PseudoPot. # 1 for Li read from file:
     ../Li.pbe-s-gbrv14.UPF
     MD5 check sum: 7ca33c4f951f001da2db5c8738379802
     Pseudo is Ultrasoft, Zval =  3.0
     Generated by new atomic code, or converted to UPF format
     Using radial grid of  751 points,  5 beta functions with: 
                l(1) =   0
                l(2) =   0
                l(3) =   0
                l(4) =   1
                l(5) =   1
     Q(r) pseudized with 10 coefficients,  rinner =    1.150   1.150   1.150


     atomic species   valence    mass     pseudopotential
        Li             3.00     6.94100     Li( 1.00)

     48 Sym. Ops., with inversion, found



   Cartesian axes

     site n.     atom                  positions (alat units)
         1           Li  tau(   1) = (   0.0000000   0.0000000   0.0000000  )

     number of k points= 89376  Marzari-Vanderbilt smearing, width (Ry)=  0.0200

     Number of k-points >= 100: set verbosity='high' to print them.

     Dense  grid:    24309 G-vectors     FFT dimensions: (  45,  45,  45)

     Smooth grid:     8609 G-vectors     FFT dimensions: (  30,  30,  30)

     Largest allocated arrays     est. size (Mb)     dimensions
        Kohn-Sham Wavefunctions         0.10 Mb     (    1095,    6)
        NL pseudopotentials             0.15 Mb     (    1095,    9)
        Each V/rho on FFT grid          1.39 Mb     (   91125)
        Each G-vector array             0.19 Mb     (   24309)
        G-vector shells                 0.00 Mb     (     274)
     Largest temporary arrays     est. size (Mb)     dimensions
        Auxiliary wavefunctions         0.40 Mb     (    1095,   24)
        Each subspace H/S matrix        0.01 Mb     (      24,   24)
        Each <psi_i|beta_j> matrix      0.00 Mb     (       9,    6)

     The potential is recalculated from file :
     ./tmp/_ph0/li-fcc.save/charge-density.dat

     Starting wfc are    5 atomic +    1 random wfc

     Band Structure Calculation
     Davidson diagonalization with overlap

     ethr =  3.33E-10,  avg # of iterations = 15.5

     total cpu time spent up to now is       79.0 secs

     End of band structure calculation

     Number of k-points >= 100: set verbosity='high' to print the bands.

     the Fermi energy is     0.9377 ev

                                                                                

     bravais-lattice index     =            2
     lattice parameter (alat)  =       8.1784  a.u.
     unit-cell volume          =     136.7556 (a.u.)^3
     number of atoms/cell      =            1
     number of atomic types    =            1
     kinetic-energy cut-off    =      60.0000  Ry
     charge density cut-off    =     480.0000  Ry
     convergence threshold     =      1.0E-16
     beta                      =       0.7000
     number of iterations used =            4
     Exchange-correlation      =  SLA  PW   PBX  PBC ( 1  4  3  4 0 0)


     celldm(1)=    8.17840  celldm(2)=    0.00000  celldm(3)=    0.00000
     celldm(4)=    0.00000  celldm(5)=    0.00000  celldm(6)=    0.00000

     crystal axes: (cart. coord. in units of alat)
               a(1) = ( -0.5000  0.0000  0.5000 )  
               a(2) = (  0.0000  0.5000  0.5000 )  
               a(3) = ( -0.5000  0.5000  0.0000 )  

     reciprocal axes: (cart. coord. in units 2 pi/alat)
               b(1) = ( -1.0000 -1.0000  1.0000 )  
               b(2) = (  1.0000  1.0000  1.0000 )  
               b(3) = ( -1.0000  1.0000 -1.0000 )  


     Atoms inside the unit cell: 

     Cartesian axes

     site n.  atom      mass           positions (alat units)
        1     Li   6.9410   tau(    1) = (    0.00000    0.00000    0.00000  )

     Computing dynamical matrix for 
                    q = (  -0.1250000   0.3750000  -0.1250000 )
 
      2 Sym.Ops. (no q -> -q+G )


     G cutoff =  813.2389  (  24309 G-vectors)     FFT grid: ( 45, 45, 45)
     G cutoff =  406.6194  (   8609 G-vectors)  smooth grid: ( 30, 30, 30)

     number of k points= 89376  Marzari-Vanderbilt smearing, width (Ry)=  0.0200

     PseudoPot. # 1 for Li read from file:
     ../Li.pbe-s-gbrv14.UPF
     MD5 check sum: 7ca33c4f951f001da2db5c8738379802
     Pseudo is Ultrasoft, Zval =  3.0
     Generated by new atomic code, or converted to UPF format
     Using radial grid of  751 points,  5 beta functions with: 
                l(1) =   0
                l(2) =   0
                l(3) =   0
                l(4) =   1
                l(5) =   1
     Q(r) pseudized with 10 coefficients,  rinner =    1.150   1.150   1.150


     Mode symmetry, C_s (m)     point group:


     Atomic displacements:
     There are   3 irreducible representations

     Representation     1      1 modes -A'  To be done

     Representation     2      1 modes -A'  To be done

     Representation     3      1 modes -A''  To be done



     Alpha used in Ewald sum =   2.8000
     PHONON       :  5m51.63s CPU     6m31.44s WALL



     Representation #  1 mode #   1

     Self-consistent Calculation

      iter #   1 total cpu time :   394.9 secs   av.it.:   6.4
      thresh= 1.000E-02 alpha_mix =  0.700 |ddv_scf|^2 =  7.904E-04

      iter #   2 total cpu time :   402.2 secs   av.it.:   7.9
      thresh= 2.811E-03 alpha_mix =  0.700 |ddv_scf|^2 =  3.681E-02

      iter #   3 total cpu time :   405.3 secs   av.it.:   6.4
      thresh= 1.000E-02 alpha_mix =  0.700 |ddv_scf|^2 =  7.131E-08

      iter #   4 total cpu time :   409.1 secs   av.it.:   9.2
      thresh= 2.670E-05 alpha_mix =  0.700 |ddv_scf|^2 =  4.251E-09

      iter #   5 total cpu time :   422.2 secs   av.it.:   9.1
      thresh= 6.520E-06 alpha_mix =  0.700 |ddv_scf|^2 =  6.662E-11

      iter #   6 total cpu time :   438.6 secs   av.it.:   8.7
      thresh= 8.162E-07 alpha_mix =  0.700 |ddv_scf|^2 =  1.690E-12

      iter #   7 total cpu time :   442.2 secs   av.it.:   8.1
      thresh= 1.300E-07 alpha_mix =  0.700 |ddv_scf|^2 =  1.493E-11

      iter #   8 total cpu time :   445.4 secs   av.it.:   6.7
      thresh= 3.864E-07 alpha_mix =  0.700 |ddv_scf|^2 =  3.853E-14

      iter #   9 total cpu time :   449.0 secs   av.it.:   9.0
      thresh= 1.963E-08 alpha_mix =  0.700 |ddv_scf|^2 =  2.965E-14

      iter #  10 total cpu time :   452.2 secs   av.it.:   7.5
      thresh= 1.722E-08 alpha_mix =  0.700 |ddv_scf|^2 =  3.120E-16

      iter #  11 total cpu time :   456.9 secs   av.it.:   8.7
      thresh= 1.766E-09 alpha_mix =  0.700 |ddv_scf|^2 =  8.927E-19

     End of self-consistent calculation

     Convergence has been achieved 


     Representation #  2 mode #   2

     Self-consistent Calculation

      iter #   1 total cpu time :   461.8 secs   av.it.:   6.1
      thresh= 1.000E-02 alpha_mix =  0.700 |ddv_scf|^2 =  1.199E-04

      iter #   2 total cpu time :   474.1 secs   av.it.:   8.1
      thresh= 1.095E-03 alpha_mix =  0.700 |ddv_scf|^2 =  5.548E-03

      iter #   3 total cpu time :   477.2 secs   av.it.:   5.8
      thresh= 7.448E-03 alpha_mix =  0.700 |ddv_scf|^2 =  3.719E-08

      iter #   4 total cpu time :   481.0 secs   av.it.:   9.3
      thresh= 1.928E-05 alpha_mix =  0.700 |ddv_scf|^2 =  2.055E-09

      iter #   5 total cpu time :   484.8 secs   av.it.:   9.1
      thresh= 4.533E-06 alpha_mix =  0.700 |ddv_scf|^2 =  3.842E-11

      iter #   6 total cpu time :   488.5 secs   av.it.:   9.0
      thresh= 6.198E-07 alpha_mix =  0.700 |ddv_scf|^2 =  2.562E-12

      iter #   7 total cpu time :   491.9 secs   av.it.:   7.8
      thresh= 1.601E-07 alpha_mix =  0.700 |ddv_scf|^2 =  1.797E-11

      iter #   8 total cpu time :   495.7 secs   av.it.:   6.7
      thresh= 4.239E-07 alpha_mix =  0.700 |ddv_scf|^2 =  1.454E-12

      iter #   9 total cpu time :   499.0 secs   av.it.:   6.9
      thresh= 1.206E-07 alpha_mix =  0.700 |ddv_scf|^2 =  3.516E-13

      iter #  10 total cpu time :   502.4 secs   av.it.:   7.7
      thresh= 5.930E-08 alpha_mix =  0.700 |ddv_scf|^2 =  1.154E-16

      iter #  11 total cpu time :   506.7 secs   av.it.:   9.2
      thresh= 1.074E-09 alpha_mix =  0.700 |ddv_scf|^2 =  6.593E-18

     End of self-consistent calculation

     Convergence has been achieved 


     Representation #  3 mode #   3

     Self-consistent Calculation

      iter #   1 total cpu time :   511.0 secs   av.it.:   5.5
      thresh= 1.000E-02 alpha_mix =  0.700 |ddv_scf|^2 =  7.501E-07

      iter #   2 total cpu time :   515.5 secs   av.it.:   8.7
      thresh= 8.661E-05 alpha_mix =  0.700 |ddv_scf|^2 =  4.504E-08

      iter #   3 total cpu time :   519.3 secs   av.it.:   9.2
      thresh= 2.122E-05 alpha_mix =  0.700 |ddv_scf|^2 =  6.127E-10

      iter #   4 total cpu time :   522.8 secs   av.it.:   8.3
      thresh= 2.475E-06 alpha_mix =  0.700 |ddv_scf|^2 =  7.175E-13

      iter #   5 total cpu time :   526.3 secs   av.it.:   8.5
      thresh= 8.471E-08 alpha_mix =  0.700 |ddv_scf|^2 =  1.240E-14

      iter #   6 total cpu time :   530.0 secs   av.it.:   7.8
      thresh= 1.113E-08 alpha_mix =  0.700 |ddv_scf|^2 =  1.536E-17

     End of self-consistent calculation

     Convergence has been achieved 
 
     Number of q in the star =   24
     List of q in the star:
          1  -0.125000000   0.375000000  -0.125000000
          2  -0.125000000   0.375000000   0.125000000
          3   0.125000000   0.375000000  -0.125000000
          4   0.125000000   0.375000000   0.125000000
          5   0.125000000  -0.375000000   0.125000000
          6   0.375000000  -0.125000000   0.125000000
          7   0.125000000  -0.125000000   0.375000000
          8  -0.125000000  -0.375000000  -0.125000000
          9   0.125000000  -0.375000000  -0.125000000
         10  -0.125000000  -0.375000000   0.125000000
         11   0.125000000  -0.125000000  -0.375000000
         12   0.375000000  -0.125000000  -0.125000000
         13  -0.375000000  -0.125000000   0.125000000
         14   0.375000000   0.125000000   0.125000000
         15  -0.125000000  -0.125000000   0.375000000
         16   0.125000000   0.125000000   0.375000000
         17  -0.375000000   0.125000000  -0.125000000
         18  -0.125000000   0.125000000  -0.375000000
         19  -0.375000000  -0.125000000  -0.125000000
         20   0.125000000   0.125000000  -0.375000000
         21   0.375000000   0.125000000  -0.125000000
         22  -0.125000000  -0.125000000  -0.375000000
         23  -0.375000000   0.125000000   0.125000000
         24  -0.125000000   0.125000000   0.375000000

     Diagonalizing the dynamical matrix

     q = (   -0.125000000   0.375000000  -0.125000000 ) 

 **************************************************************************
     freq (    1) =       3.368498 [THz] =     112.361007 [cm-1]
     freq (    2) =       3.543318 [THz] =     118.192379 [cm-1]
     freq (    3) =       5.973483 [THz] =     199.253954 [cm-1]
 **************************************************************************

     Mode symmetry, C_s (m)     point group:

     freq (  1 -  1) =        112.4  [cm-1]   --> A'                 
     freq (  2 -  2) =        118.2  [cm-1]   --> A''                
     freq (  3 -  3) =        199.3  [cm-1]   --> A'                 

     Calculation of q =   -0.2500000   0.5000000  -0.2500000
 
     G-vector sticks info
     --------------------
     sticks:   dense  smooth     PW     G-vecs:    dense   smooth      PW
     Sum        1111     559    199                24309     8609    1917
 


     bravais-lattice index     =            2
     lattice parameter (alat)  =       8.1784  a.u.
     unit-cell volume          =     136.7556 (a.u.)^3
     number of atoms/cell      =            1
     number of atomic types    =            1
     number of electrons       =         3.00
     number of Kohn-Sham states=            6
     kinetic-energy cutoff     =      60.0000  Ry
     charge density cutoff     =     480.0000  Ry
     Exchange-correlation      =  SLA  PW   PBX  PBC ( 1  4  3  4 0 0)

     celldm(1)=   8.178399  celldm(2)=   0.000000  celldm(3)=   0.000000
     celldm(4)=   0.000000  celldm(5)=   0.000000  celldm(6)=   0.000000

     crystal axes: (cart. coord. in units of alat)
               a(1) = (  -0.500000   0.000000   0.500000 )  
               a(2) = (   0.000000   0.500000   0.500000 )  
               a(3) = (  -0.500000   0.500000   0.000000 )  

     reciprocal axes: (cart. coord. in units 2 pi/alat)
               b(1) = ( -1.000000 -1.000000  1.000000 )  
               b(2) = (  1.000000  1.000000  1.000000 )  
               b(3) = ( -1.000000  1.000000 -1.000000 )  


     PseudoPot. # 1 for Li read from file:
     ../Li.pbe-s-gbrv14.UPF
     MD5 check sum: 7ca33c4f951f001da2db5c8738379802
     Pseudo is Ultrasoft, Zval =  3.0
     Generated by new atomic code, or converted to UPF format
     Using radial grid of  751 points,  5 beta functions with: 
                l(1) =   0
                l(2) =   0
                l(3) =   0
                l(4) =   1
                l(5) =   1
     Q(r) pseudized with 10 coefficients,  rinner =    1.150   1.150   1.150


     atomic species   valence    mass     pseudopotential
        Li             3.00     6.94100     Li( 1.00)

     48 Sym. Ops., with inversion, found



   Cartesian axes

     site n.     atom                  positions (alat units)
         1           Li  tau(   1) = (   0.0000000   0.0000000   0.0000000  )

     number of k points= 89376  Marzari-Vanderbilt smearing, width (Ry)=  0.0200

     Number of k-points >= 100: set verbosity='high' to print them.

     Dense  grid:    24309 G-vectors     FFT dimensions: (  45,  45,  45)

     Smooth grid:     8609 G-vectors     FFT dimensions: (  30,  30,  30)

     Largest allocated arrays     est. size (Mb)     dimensions
        Kohn-Sham Wavefunctions         0.10 Mb     (    1095,    6)
        NL pseudopotentials             0.15 Mb     (    1095,    9)
        Each V/rho on FFT grid          1.39 Mb     (   91125)
        Each G-vector array             0.19 Mb     (   24309)
        G-vector shells                 0.00 Mb     (     274)
     Largest temporary arrays     est. size (Mb)     dimensions
        Auxiliary wavefunctions         0.40 Mb     (    1095,   24)
        Each subspace H/S matrix        0.01 Mb     (      24,   24)
        Each <psi_i|beta_j> matrix      0.00 Mb     (       9,    6)

     The potential is recalculated from file :
     ./tmp/_ph0/li-fcc.save/charge-density.dat

     Starting wfc are    5 atomic +    1 random wfc

     Band Structure Calculation
     Davidson diagonalization with overlap

     ethr =  3.33E-10,  avg # of iterations = 15.5

     total cpu time spent up to now is      123.8 secs

     End of band structure calculation

     Number of k-points >= 100: set verbosity='high' to print the bands.

     the Fermi energy is     0.9377 ev

                                                                                

     bravais-lattice index     =            2
     lattice parameter (alat)  =       8.1784  a.u.
     unit-cell volume          =     136.7556 (a.u.)^3
     number of atoms/cell      =            1
     number of atomic types    =            1
     kinetic-energy cut-off    =      60.0000  Ry
     charge density cut-off    =     480.0000  Ry
     convergence threshold     =      1.0E-16
     beta                      =       0.7000
     number of iterations used =            4
     Exchange-correlation      =  SLA  PW   PBX  PBC ( 1  4  3  4 0 0)


     celldm(1)=    8.17840  celldm(2)=    0.00000  celldm(3)=    0.00000
     celldm(4)=    0.00000  celldm(5)=    0.00000  celldm(6)=    0.00000

     crystal axes: (cart. coord. in units of alat)
               a(1) = ( -0.5000  0.0000  0.5000 )  
               a(2) = (  0.0000  0.5000  0.5000 )  
               a(3) = ( -0.5000  0.5000  0.0000 )  

     reciprocal axes: (cart. coord. in units 2 pi/alat)
               b(1) = ( -1.0000 -1.0000  1.0000 )  
               b(2) = (  1.0000  1.0000  1.0000 )  
               b(3) = ( -1.0000  1.0000 -1.0000 )  


     Atoms inside the unit cell: 

     Cartesian axes

     site n.  atom      mass           positions (alat units)
        1     Li   6.9410   tau(    1) = (    0.00000    0.00000    0.00000  )

     Computing dynamical matrix for 
                    q = (  -0.2500000   0.5000000  -0.2500000 )
 
      2 Sym.Ops. (no q -> -q+G )


     G cutoff =  813.2389  (  24309 G-vectors)     FFT grid: ( 45, 45, 45)
     G cutoff =  406.6194  (   8609 G-vectors)  smooth grid: ( 30, 30, 30)

     number of k points= 89376  Marzari-Vanderbilt smearing, width (Ry)=  0.0200

     PseudoPot. # 1 for Li read from file:
     ../Li.pbe-s-gbrv14.UPF
     MD5 check sum: 7ca33c4f951f001da2db5c8738379802
     Pseudo is Ultrasoft, Zval =  3.0
     Generated by new atomic code, or converted to UPF format
     Using radial grid of  751 points,  5 beta functions with: 
                l(1) =   0
                l(2) =   0
                l(3) =   0
                l(4) =   1
                l(5) =   1
     Q(r) pseudized with 10 coefficients,  rinner =    1.150   1.150   1.150


     Mode symmetry, C_s (m)     point group:


     Atomic displacements:
     There are   3 irreducible representations

     Representation     1      1 modes -A'  To be done

     Representation     2      1 modes -A'  To be done

     Representation     3      1 modes -A''  To be done



     Alpha used in Ewald sum =   2.8000
     PHONON       :  8m41.34s CPU     9m27.94s WALL



     Representation #  1 mode #   1

     Self-consistent Calculation

      iter #   1 total cpu time :   571.4 secs   av.it.:   6.5
      thresh= 1.000E-02 alpha_mix =  0.700 |ddv_scf|^2 =  5.469E-05

      iter #   2 total cpu time :   575.9 secs   av.it.:   8.6
      thresh= 7.396E-04 alpha_mix =  0.700 |ddv_scf|^2 =  3.167E-04

      iter #   3 total cpu time :   579.7 secs   av.it.:   7.0
      thresh= 1.780E-03 alpha_mix =  0.700 |ddv_scf|^2 =  3.719E-08

      iter #   4 total cpu time :   583.5 secs   av.it.:   9.1
      thresh= 1.929E-05 alpha_mix =  0.700 |ddv_scf|^2 =  9.461E-10

      iter #   5 total cpu time :   588.2 secs   av.it.:   9.1
      thresh= 3.076E-06 alpha_mix =  0.700 |ddv_scf|^2 =  1.496E-11

      iter #   6 total cpu time :   592.3 secs   av.it.:   9.0
      thresh= 3.867E-07 alpha_mix =  0.700 |ddv_scf|^2 =  8.935E-14

      iter #   7 total cpu time :   597.7 secs   av.it.:   9.2
      thresh= 2.989E-08 alpha_mix =  0.700 |ddv_scf|^2 =  1.627E-13

      iter #   8 total cpu time :   602.2 secs   av.it.:   7.3
      thresh= 4.034E-08 alpha_mix =  0.700 |ddv_scf|^2 =  5.595E-15

      iter #   9 total cpu time :   607.5 secs   av.it.:   9.0
      thresh= 7.480E-09 alpha_mix =  0.700 |ddv_scf|^2 =  3.521E-16

      iter #  10 total cpu time :   612.3 secs   av.it.:   8.1
      thresh= 1.876E-09 alpha_mix =  0.700 |ddv_scf|^2 =  6.610E-18

     End of self-consistent calculation

     Convergence has been achieved 


     Representation #  2 mode #   2

     Self-consistent Calculation

      iter #   1 total cpu time :   617.1 secs   av.it.:   6.3
      thresh= 1.000E-02 alpha_mix =  0.700 |ddv_scf|^2 =  1.442E-05

      iter #   2 total cpu time :   621.5 secs   av.it.:   8.8
      thresh= 3.798E-04 alpha_mix =  0.700 |ddv_scf|^2 =  7.812E-05

      iter #   3 total cpu time :   626.2 secs   av.it.:   7.1
      thresh= 8.839E-04 alpha_mix =  0.700 |ddv_scf|^2 =  3.686E-08

      iter #   4 total cpu time :   630.7 secs   av.it.:   9.1
      thresh= 1.920E-05 alpha_mix =  0.700 |ddv_scf|^2 =  1.245E-09

      iter #   5 total cpu time :   639.0 secs   av.it.:   9.1
      thresh= 3.528E-06 alpha_mix =  0.700 |ddv_scf|^2 =  1.419E-11

      iter #   6 total cpu time :   651.4 secs   av.it.:   9.4
      thresh= 3.767E-07 alpha_mix =  0.700 |ddv_scf|^2 =  1.769E-13

      iter #   7 total cpu time :   655.5 secs   av.it.:   9.2
      thresh= 4.206E-08 alpha_mix =  0.700 |ddv_scf|^2 =  7.569E-13

      iter #   8 total cpu time :   658.7 secs   av.it.:   7.2
      thresh= 8.700E-08 alpha_mix =  0.700 |ddv_scf|^2 =  5.820E-15

      iter #   9 total cpu time :   662.5 secs   av.it.:   9.1
      thresh= 7.629E-09 alpha_mix =  0.700 |ddv_scf|^2 =  8.673E-15

      iter #  10 total cpu time :   666.5 secs   av.it.:   8.0
      thresh= 9.313E-09 alpha_mix =  0.700 |ddv_scf|^2 =  1.034E-17

     End of self-consistent calculation

     Convergence has been achieved 


     Representation #  3 mode #   3

     Self-consistent Calculation

      iter #   1 total cpu time :   673.8 secs   av.it.:   5.6
      thresh= 1.000E-02 alpha_mix =  0.700 |ddv_scf|^2 =  7.659E-07

      iter #   2 total cpu time :   677.8 secs   av.it.:   8.7
      thresh= 8.752E-05 alpha_mix =  0.700 |ddv_scf|^2 =  4.578E-08

      iter #   3 total cpu time :   682.2 secs   av.it.:   9.2
      thresh= 2.140E-05 alpha_mix =  0.700 |ddv_scf|^2 =  7.155E-10

      iter #   4 total cpu time :   685.7 secs   av.it.:   8.3
      thresh= 2.675E-06 alpha_mix =  0.700 |ddv_scf|^2 =  7.882E-13

      iter #   5 total cpu time :   689.4 secs   av.it.:   8.5
      thresh= 8.878E-08 alpha_mix =  0.700 |ddv_scf|^2 =  1.301E-14

      iter #   6 total cpu time :   692.9 secs   av.it.:   7.9
      thresh= 1.141E-08 alpha_mix =  0.700 |ddv_scf|^2 =  1.973E-17

     End of self-consistent calculation

     Convergence has been achieved 
 
     Number of q in the star =   24
     List of q in the star:
          1  -0.250000000   0.500000000  -0.250000000
          2  -0.250000000   0.500000000   0.250000000
          3   0.250000000   0.500000000  -0.250000000
          4   0.250000000   0.500000000   0.250000000
          5   0.250000000  -0.500000000   0.250000000
[...]
      thresh= 1.104E-04 alpha_mix =  0.700 |ddv_scf|^2 =  7.342E-08

      iter #   3 total cpu time :  5643.4 secs   av.it.:   8.9
      thresh= 2.710E-05 alpha_mix =  0.700 |ddv_scf|^2 =  4.558E-09

      iter #   4 total cpu time :  5651.1 secs   av.it.:   9.0
      thresh= 6.751E-06 alpha_mix =  0.700 |ddv_scf|^2 =  1.431E-10

      iter #   5 total cpu time :  5655.6 secs   av.it.:   8.4
      thresh= 1.196E-06 alpha_mix =  0.700 |ddv_scf|^2 =  1.533E-12

      iter #   6 total cpu time :  5659.1 secs   av.it.:   9.5
      thresh= 1.238E-07 alpha_mix =  0.700 |ddv_scf|^2 =  2.464E-15

      iter #   7 total cpu time :  5671.2 secs   av.it.:   9.6
      thresh= 4.964E-09 alpha_mix =  0.700 |ddv_scf|^2 =  2.048E-16

      iter #   8 total cpu time :  5674.8 secs   av.it.:   9.5
      thresh= 1.431E-09 alpha_mix =  0.700 |ddv_scf|^2 =  3.847E-19

     End of self-consistent calculation

     Convergence has been achieved 


     Representation #  2 mode #   2

     Self-consistent Calculation

      iter #   1 total cpu time :  5678.2 secs   av.it.:   6.1
      thresh= 1.000E-02 alpha_mix =  0.700 |ddv_scf|^2 =  1.190E-06

      iter #   2 total cpu time :  5680.1 secs   av.it.:   8.9
      thresh= 1.091E-04 alpha_mix =  0.700 |ddv_scf|^2 =  4.851E-08

      iter #   3 total cpu time :  5686.7 secs   av.it.:   8.9
      thresh= 2.203E-05 alpha_mix =  0.700 |ddv_scf|^2 =  2.693E-09

      iter #   4 total cpu time :  5690.1 secs   av.it.:   8.7
      thresh= 5.189E-06 alpha_mix =  0.700 |ddv_scf|^2 =  8.828E-12

      iter #   5 total cpu time :  5692.9 secs   av.it.:   8.8
      thresh= 2.971E-07 alpha_mix =  0.700 |ddv_scf|^2 =  7.104E-15

      iter #   6 total cpu time :  5694.7 secs   av.it.:   8.0
      thresh= 8.429E-09 alpha_mix =  0.700 |ddv_scf|^2 =  4.475E-16

      iter #   7 total cpu time :  5697.3 secs   av.it.:   8.2
      thresh= 2.115E-09 alpha_mix =  0.700 |ddv_scf|^2 =  1.632E-19

     End of self-consistent calculation

     Convergence has been achieved 


     Representation #  3 mode #   3

     Self-consistent Calculation

      iter #   1 total cpu time :  5701.1 secs   av.it.:   6.3
      thresh= 1.000E-02 alpha_mix =  0.700 |ddv_scf|^2 =  3.858E-06

      iter #   2 total cpu time :  5703.5 secs   av.it.:   8.9
      thresh= 1.964E-04 alpha_mix =  0.700 |ddv_scf|^2 =  3.475E-07

      iter #   3 total cpu time :  5706.5 secs   av.it.:   8.3
      thresh= 5.895E-05 alpha_mix =  0.700 |ddv_scf|^2 =  8.657E-09

      iter #   4 total cpu time :  5710.8 secs   av.it.:   8.9
      thresh= 9.305E-06 alpha_mix =  0.700 |ddv_scf|^2 =  3.793E-12

      iter #   5 total cpu time :  5713.9 secs   av.it.:   9.0
      thresh= 1.948E-07 alpha_mix =  0.700 |ddv_scf|^2 =  5.817E-14

      iter #   6 total cpu time :  5715.9 secs   av.it.:   8.8
      thresh= 2.412E-08 alpha_mix =  0.700 |ddv_scf|^2 =  1.081E-15

      iter #   7 total cpu time :  5719.7 secs   av.it.:   8.6
      thresh= 3.288E-09 alpha_mix =  0.700 |ddv_scf|^2 =  1.649E-18

     End of self-consistent calculation

     Convergence has been achieved 
 
     Number of q in the star =   12
     List of q in the star:
          1  -0.250000000  -1.000000000   0.000000000
          2   0.000000000  -1.000000000   0.250000000
          3   0.000000000  -1.000000000  -0.250000000
          4   0.250000000  -1.000000000   0.000000000
          5  -1.000000000   0.000000000  -0.250000000
          6   1.000000000   0.000000000   0.250000000
          7  -1.000000000  -0.250000000   0.000000000
          8   0.000000000  -0.250000000  -1.000000000
          9   0.000000000   0.250000000  -1.000000000
         10   1.000000000   0.250000000   0.000000000
         11  -0.250000000   0.000000000   1.000000000
         12   0.250000000   0.000000000   1.000000000

     Diagonalizing the dynamical matrix

     q = (   -0.250000000  -1.000000000   0.000000000 ) 

 **************************************************************************
     freq (    1) =       6.857882 [THz] =     228.754306 [cm-1]
     freq (    2) =       7.960534 [THz] =     265.534844 [cm-1]
     freq (    3) =       9.976117 [THz] =     332.767460 [cm-1]
 **************************************************************************

     Mode symmetry, C_2v (mm2)  point group:

     freq (  1 -  1) =        228.8  [cm-1]   --> A_1  D_1  S_1      
     freq (  2 -  2) =        265.5  [cm-1]   --> B_1  D_3  S_3      
     freq (  3 -  3) =        332.8  [cm-1]   --> B_2  D_4  S_4      

     Calculation of q =   -0.5000000  -1.0000000   0.0000000
 
     G-vector sticks info
     --------------------
     sticks:   dense  smooth     PW     G-vecs:    dense   smooth      PW
     Sum        1111     559    211                24309     8609    2109
 


     bravais-lattice index     =            2
     lattice parameter (alat)  =       8.1784  a.u.
     unit-cell volume          =     136.7556 (a.u.)^3
     number of atoms/cell      =            1
     number of atomic types    =            1
     number of electrons       =         3.00
     number of Kohn-Sham states=            6
     kinetic-energy cutoff     =      60.0000  Ry
     charge density cutoff     =     480.0000  Ry
     Exchange-correlation      =  SLA  PW   PBX  PBC ( 1  4  3  4 0 0)

     celldm(1)=   8.178399  celldm(2)=   0.000000  celldm(3)=   0.000000
     celldm(4)=   0.000000  celldm(5)=   0.000000  celldm(6)=   0.000000

     crystal axes: (cart. coord. in units of alat)
               a(1) = (  -0.500000   0.000000   0.500000 )  
               a(2) = (   0.000000   0.500000   0.500000 )  
               a(3) = (  -0.500000   0.500000   0.000000 )  

     reciprocal axes: (cart. coord. in units 2 pi/alat)
               b(1) = ( -1.000000 -1.000000  1.000000 )  
               b(2) = (  1.000000  1.000000  1.000000 )  
               b(3) = ( -1.000000  1.000000 -1.000000 )  


     PseudoPot. # 1 for Li read from file:
     ../Li.pbe-s-gbrv14.UPF
     MD5 check sum: 7ca33c4f951f001da2db5c8738379802
     Pseudo is Ultrasoft, Zval =  3.0
     Generated by new atomic code, or converted to UPF format
     Using radial grid of  751 points,  5 beta functions with: 
                l(1) =   0
                l(2) =   0
                l(3) =   0
                l(4) =   1
                l(5) =   1
     Q(r) pseudized with 10 coefficients,  rinner =    1.150   1.150   1.150


     atomic species   valence    mass     pseudopotential
        Li             3.00     6.94100     Li( 1.00)

     48 Sym. Ops., with inversion, found



   Cartesian axes

     site n.     atom                  positions (alat units)
         1           Li  tau(   1) = (   0.0000000   0.0000000   0.0000000  )

     number of k points= 21952  Marzari-Vanderbilt smearing, width (Ry)=  0.0200

     Number of k-points >= 100: set verbosity='high' to print them.

     Dense  grid:    24309 G-vectors     FFT dimensions: (  45,  45,  45)

     Smooth grid:     8609 G-vectors     FFT dimensions: (  30,  30,  30)

     Largest allocated arrays     est. size (Mb)     dimensions
        Kohn-Sham Wavefunctions         0.10 Mb     (    1095,    6)
        NL pseudopotentials             0.15 Mb     (    1095,    9)
        Each V/rho on FFT grid          1.39 Mb     (   91125)
        Each G-vector array             0.19 Mb     (   24309)
        G-vector shells                 0.00 Mb     (     274)
     Largest temporary arrays     est. size (Mb)     dimensions
        Auxiliary wavefunctions         0.40 Mb     (    1095,   24)
        Each subspace H/S matrix        0.01 Mb     (      24,   24)
        Each <psi_i|beta_j> matrix      0.00 Mb     (       9,    6)

     The potential is recalculated from file :
     ./tmp/_ph0/li-fcc.save/charge-density.dat

     Starting wfc are    5 atomic +    1 random wfc

     Band Structure Calculation
     Davidson diagonalization with overlap

     ethr =  3.33E-10,  avg # of iterations = 15.4

     total cpu time spent up to now is      769.9 secs

     End of band structure calculation

     Number of k-points >= 100: set verbosity='high' to print the bands.

     the Fermi energy is     0.9377 ev

                                                                                

     bravais-lattice index     =            2
     lattice parameter (alat)  =       8.1784  a.u.
     unit-cell volume          =     136.7556 (a.u.)^3
     number of atoms/cell      =            1
     number of atomic types    =            1
     kinetic-energy cut-off    =      60.0000  Ry
     charge density cut-off    =     480.0000  Ry
     convergence threshold     =      1.0E-16
     beta                      =       0.7000
     number of iterations used =            4
     Exchange-correlation      =  SLA  PW   PBX  PBC ( 1  4  3  4 0 0)


     celldm(1)=    8.17840  celldm(2)=    0.00000  celldm(3)=    0.00000
     celldm(4)=    0.00000  celldm(5)=    0.00000  celldm(6)=    0.00000

     crystal axes: (cart. coord. in units of alat)
               a(1) = ( -0.5000  0.0000  0.5000 )  
               a(2) = (  0.0000  0.5000  0.5000 )  
               a(3) = ( -0.5000  0.5000  0.0000 )  

     reciprocal axes: (cart. coord. in units 2 pi/alat)
               b(1) = ( -1.0000 -1.0000  1.0000 )  
               b(2) = (  1.0000  1.0000  1.0000 )  
               b(3) = ( -1.0000  1.0000 -1.0000 )  


     Atoms inside the unit cell: 

     Cartesian axes

     site n.  atom      mass           positions (alat units)
        1     Li   6.9410   tau(    1) = (    0.00000    0.00000    0.00000  )

     Computing dynamical matrix for 
                    q = (  -0.5000000  -1.0000000   0.0000000 )
 
      8 Sym.Ops. (no q -> -q+G )


     G cutoff =  813.2389  (  24309 G-vectors)     FFT grid: ( 45, 45, 45)
     G cutoff =  406.6194  (   8609 G-vectors)  smooth grid: ( 30, 30, 30)

     number of k points= 21952  Marzari-Vanderbilt smearing, width (Ry)=  0.0200

     PseudoPot. # 1 for Li read from file:
     ../Li.pbe-s-gbrv14.UPF
     MD5 check sum: 7ca33c4f951f001da2db5c8738379802
     Pseudo is Ultrasoft, Zval =  3.0
     Generated by new atomic code, or converted to UPF format
     Using radial grid of  751 points,  5 beta functions with: 
                l(1) =   0
                l(2) =   0
                l(3) =   0
                l(4) =   1
                l(5) =   1
     Q(r) pseudized with 10 coefficients,  rinner =    1.150   1.150   1.150


     Mode symmetry, D_2d (-42m) point group:


     Atomic displacements:
     There are   2 irreducible representations

     Representation     1      1 modes -B_2  X_3  W_2  To be done

     Representation     2      2 modes -E    X_5  W_3  To be done



     Alpha used in Ewald sum =   2.8000
     PHONON       :     1h14m CPU        1h35m WALL



     Representation #  1 mode #   1

     Self-consistent Calculation

      iter #   1 total cpu time :  5736.4 secs   av.it.:   6.1
      thresh= 1.000E-02 alpha_mix =  0.700 |ddv_scf|^2 =  1.454E-06

      iter #   2 total cpu time :  5738.3 secs   av.it.:   8.9
      thresh= 1.206E-04 alpha_mix =  0.700 |ddv_scf|^2 =  6.762E-08

      iter #   3 total cpu time :  5740.2 secs   av.it.:   8.8
      thresh= 2.600E-05 alpha_mix =  0.700 |ddv_scf|^2 =  3.768E-09

      iter #   4 total cpu time :  5747.1 secs   av.it.:   9.0
      thresh= 6.139E-06 alpha_mix =  0.700 |ddv_scf|^2 =  1.753E-11

      iter #   5 total cpu time :  5749.1 secs   av.it.:   9.0
      thresh= 4.187E-07 alpha_mix =  0.700 |ddv_scf|^2 =  3.928E-14

      iter #   6 total cpu time :  5750.3 secs   av.it.:   8.7
      thresh= 1.982E-08 alpha_mix =  0.700 |ddv_scf|^2 =  9.904E-16

      iter #   7 total cpu time :  5770.9 secs   av.it.:   8.4
      thresh= 3.147E-09 alpha_mix =  0.700 |ddv_scf|^2 =  6.922E-19

     End of self-consistent calculation

     Convergence has been achieved 


     Representation #  2 modes #   2  3

     Self-consistent Calculation

      iter #   1 total cpu time :  5784.5 secs   av.it.:   6.3
      thresh= 1.000E-02 alpha_mix =  0.700 |ddv_scf|^2 =  5.424E-07

      iter #   2 total cpu time :  5787.2 secs   av.it.:   9.5
      thresh= 7.365E-05 alpha_mix =  0.700 |ddv_scf|^2 =  2.378E-08

      iter #   3 total cpu time :  5790.8 secs   av.it.:   8.9
      thresh= 1.542E-05 alpha_mix =  0.700 |ddv_scf|^2 =  1.429E-09

      iter #   4 total cpu time :  5793.0 secs   av.it.:   9.5
      thresh= 3.781E-06 alpha_mix =  0.700 |ddv_scf|^2 =  1.371E-12

      iter #   5 total cpu time :  5795.2 secs   av.it.:   9.2
      thresh= 1.171E-07 alpha_mix =  0.700 |ddv_scf|^2 =  3.870E-15

      iter #   6 total cpu time :  5797.9 secs   av.it.:   9.3
      thresh= 6.221E-09 alpha_mix =  0.700 |ddv_scf|^2 =  2.064E-16

      iter #   7 total cpu time :  5802.3 secs   av.it.:   9.3
      thresh= 1.437E-09 alpha_mix =  0.700 |ddv_scf|^2 =  2.706E-19

     End of self-consistent calculation

     Convergence has been achieved 
 
     Number of q in the star =    6
     List of q in the star:
          1  -0.500000000  -1.000000000   0.000000000
          2   0.000000000   1.000000000   0.500000000
          3   0.500000000  -1.000000000   0.000000000
          4   0.000000000   1.000000000  -0.500000000
          5  -1.000000000  -0.500000000   0.000000000
          6   0.000000000  -0.500000000  -1.000000000

     Diagonalizing the dynamical matrix

     q = (   -0.500000000  -1.000000000   0.000000000 ) 

 **************************************************************************
     freq (    1) =       6.582909 [THz] =     219.582223 [cm-1]
     freq (    2) =       9.152175 [THz] =     305.283682 [cm-1]
     freq (    3) =       9.152175 [THz] =     305.283682 [cm-1]
 **************************************************************************

     Mode symmetry, D_2d (-42m) point group:

     freq (  1 -  1) =        219.6  [cm-1]   --> B_2  X_3  W_2      
     freq (  2 -  3) =        305.3  [cm-1]   --> E    X_5  W_3      
 
     init_run     :      9.36s CPU      9.79s WALL (      28 calls)
     electrons    :    625.50s CPU    630.86s WALL (      28 calls)

     Called by init_run:
     wfcinit      :      0.00s CPU      0.03s WALL (      28 calls)
     potinit      :      2.67s CPU      2.87s WALL (      28 calls)

     Called by electrons:
     c_bands      :    625.18s CPU    630.48s WALL (      28 calls)
     v_of_rho     :      1.78s CPU      1.84s WALL (      29 calls)
     newd         :      0.47s CPU      0.62s WALL (      29 calls)

     Called by c_bands:
     init_us_2    :     15.39s CPU     16.17s WALL (   80631 calls)
     cegterg      :    419.32s CPU    421.95s WALL (    6651 calls)

     Called by sum_band:

     Called by *egterg:
     h_psi        :    405.02s CPU    407.96s WALL (  105190 calls)
     s_psi        :     45.28s CPU     46.16s WALL ( 1300768 calls)
     g_psi        :      2.44s CPU      2.51s WALL (   93571 calls)
     cdiaghg      :     13.34s CPU     13.48s WALL (   98539 calls)

     Called by h_psi:
     add_vuspsi   :     34.18s CPU     34.30s WALL (  672833 calls)

     General routines
     calbec       :     29.52s CPU     30.24s WALL ( 1433252 calls)
     fft          :     28.76s CPU     29.16s WALL (   10723 calls)
     ffts         :      6.35s CPU      6.44s WALL (    9274 calls)
     fftw         :   1524.50s CPU   1537.71s WALL ( 3395656 calls)
     interpolate  :      5.58s CPU      5.62s WALL (    1477 calls)
     davcio       :      0.36s CPU     20.23s WALL (   14916 calls)
 
     Parallel routines
     fft_scatter  :     79.39s CPU     81.08s WALL ( 3415653 calls)
 
     PHONON       :     1h15m CPU        1h36m WALL

     INITIALIZATION: 
     phq_setup    :      4.37s CPU     30.19s WALL (      29 calls)
     phq_init     :    183.35s CPU    240.63s WALL (      29 calls)
 
     phq_init     :    183.35s CPU    240.63s WALL (      29 calls)
     init_vloc    :      0.03s CPU      0.04s WALL (      29 calls)
     init_us_1    :      4.54s CPU      4.54s WALL (      29 calls)
     newd         :      0.47s CPU      0.62s WALL (      29 calls)
     dvanqq       :      3.36s CPU      3.42s WALL (      29 calls)
     drho         :    172.60s CPU    173.10s WALL (      29 calls)
 
     DYNAMICAL MATRIX:
     dynmat0      :      1.98s CPU     39.79s WALL (      29 calls)
     phqscf       :   3515.13s CPU   4600.20s WALL (      29 calls)
     dynmatrix    :     45.36s CPU     55.39s WALL (      29 calls)
 
     phqscf       :   3515.13s CPU   4600.20s WALL (      29 calls)
     solve_linter :   3511.08s CPU   4516.07s WALL (      76 calls)
     drhodv       :      3.81s CPU      4.09s WALL (      76 calls)
 
     dynmat0      :      1.98s CPU     39.79s WALL (      29 calls)
     dynmat_us    :      1.85s CPU      1.93s WALL (      29 calls)
     d2ionq       :      0.08s CPU      0.09s WALL (      29 calls)
 
     dynmat_us    :      1.85s CPU      1.93s WALL (      29 calls)
     addusdynmat  :      0.00s CPU      0.00s WALL (      29 calls)
 
     phqscf       :   3515.13s CPU   4600.20s WALL (      29 calls)
     solve_linter :   3511.08s CPU   4516.07s WALL (      76 calls)
 
     solve_linter :   3511.08s CPU   4516.07s WALL (      76 calls)
     dvqpsi_us    :     51.53s CPU     52.27s WALL (    7470 calls)
     ortho        :     10.74s CPU     10.94s WALL (   60292 calls)
     cgsolve      :   1216.88s CPU   1228.27s WALL (   60292 calls)
     incdrhoscf   :    129.40s CPU    130.22s WALL (   60292 calls)
     addusddens   :     16.71s CPU     16.84s WALL (     675 calls)
     vpsifft      :    105.19s CPU    107.04s WALL (   52822 calls)
     dv_of_drho   :     39.71s CPU     40.14s WALL (     666 calls)
     mix_pot      :      7.32s CPU      7.49s WALL (     599 calls)
     ef_shift     :      0.12s CPU      0.12s WALL (       7 calls)
     localdos     :      0.04s CPU      0.05s WALL (       1 calls)
     psymdvscf    :     15.82s CPU     15.80s WALL (     547 calls)
     newdq        :     15.94s CPU     15.97s WALL (     599 calls)
     adddvscf     :      3.54s CPU      3.37s WALL (   52822 calls)
     drhodvus     :      0.32s CPU      0.32s WALL (      76 calls)
 
     dvqpsi_us    :     51.53s CPU     52.27s WALL (    7470 calls)
     dvqpsi_us_on :      2.63s CPU      2.55s WALL (    7470 calls)
 
     cgsolve      :   1216.88s CPU   1228.27s WALL (   60292 calls)
     ch_psi       :   1202.64s CPU   1213.90s WALL (  567643 calls)
 
     ch_psi       :   1202.64s CPU   1213.90s WALL (  567643 calls)
     h_psiq       :   1153.46s CPU   1164.16s WALL (  567643 calls)
     last         :     45.41s CPU     45.89s WALL (  567643 calls)
 
     h_psiq       :   1153.46s CPU   1164.16s WALL (  567643 calls)
     firstfft     :    576.28s CPU    582.21s WALL ( 1041221 calls)
     secondfft    :    472.86s CPU    476.22s WALL ( 1041221 calls)
     add_vuspsi   :     34.18s CPU     34.30s WALL (  672833 calls)
 
     incdrhoscf   :    129.40s CPU    130.22s WALL (   60292 calls)
     addusdbec    :      3.46s CPU      3.60s WALL (   67762 calls)
 
     drhodvus     :      0.32s CPU      0.32s WALL (      76 calls)
 
      General routines
     calbec       :     29.52s CPU     30.24s WALL ( 1433252 calls)
     fft          :     28.76s CPU     29.16s WALL (   10723 calls)
     ffts         :      6.35s CPU      6.44s WALL (    9274 calls)
     fftw         :   1524.50s CPU   1537.71s WALL ( 3395656 calls)
     davcio       :      0.36s CPU     20.23s WALL (   14916 calls)
     write_rec    :      1.74s CPU   1065.77s WALL (     675 calls)
 
 
     PHONON       :     1h15m CPU        1h36m WALL

 
   This run was terminated on:  10:59:24   7Jun2016            

=------------------------------------------------------------------------------=
   JOB DONE.
=------------------------------------------------------------------------------=
Application 22025754 resources: utime ~2047102s, stime ~7681s, Rss ~214600, inblocks ~871297086, outblocks ~1721199024
