
     Program PWSCF v.6.1 (svn rev. 13369) starts on  2Feb2018 at  6:34:55 

     This program is part of the open-source Quantum ESPRESSO suite
     for quantum simulation of materials; please cite
         "P. Giannozzi et al., J. Phys.:Condens. Matter 21 395502 (2009);
          URL http://www.quantum-espresso.org", 
     in publications or presentations arising from this work. More details at
     http://www.quantum-espresso.org/quote

     Parallel version (MPI), running on    64 processors
     K-points division:     npool     =       4
     R & G space division:  proc/nbgrp/npool/nimage =      16
     Waiting for input...
     Reading input from standard input

     Current dimensions of program PWSCF are:
     Max number of different atomic species (ntypx) = 10
     Max number of k-points (npk) =  80000
     Max angular momentum in pseudopotentials (lmaxx) =  3

     Subspace diagonalization in iterative solution of the eigenvalue problem:
     a serial algorithm will be used


     Parallelization info
     --------------------
     sticks:   dense  smooth     PW     G-vecs:    dense   smooth      PW
     Min          65      33     10                 1365      487      87
     Max          66      34     11                 1368      489      89
     Sum        1051     535    169                21865     7803    1409



     bravais-lattice index     =            3
     lattice parameter (alat)  =       7.6800  a.u.
     unit-cell volume          =     226.4924 (a.u.)^3
     number of atoms/cell      =            1
     number of atomic types    =            1
     number of electrons       =         9.00
     number of Kohn-Sham states=            9
     kinetic-energy cutoff     =      40.0000  Ry
     charge density cutoff     =     320.0000  Ry
     convergence threshold     =      1.0E-10
     mixing beta               =       0.7000
     number of iterations used =            8  plain     mixing
     Exchange-correlation      = SLA  PW   PBE  PBE ( 1  4  3  4 0 0)

     celldm(1)=   7.680000  celldm(2)=   0.000000  celldm(3)=   0.000000
     celldm(4)=   0.000000  celldm(5)=   0.000000  celldm(6)=   0.000000

     crystal axes: (cart. coord. in units of alat)
               a(1) = (   0.500000   0.500000   0.500000 )  
               a(2) = (  -0.500000   0.500000   0.500000 )  
               a(3) = (  -0.500000  -0.500000   0.500000 )  

     reciprocal axes: (cart. coord. in units 2 pi/alat)
               b(1) = (  1.000000  0.000000  1.000000 )  
               b(2) = ( -1.000000  1.000000  0.000000 )  
               b(3) = (  0.000000 -1.000000  1.000000 )  


     PseudoPot. # 1 for Na read from file:
     /home/s1333534/quantum_espresso/qe-6.1/pseudo/Na_pbe_v1.uspp.F.UPF
     MD5 check sum: 76a99c7e9422403d3e93cbc85ab7bccb
     Pseudo is Ultrasoft, Zval =  9.0
     Generated by new atomic code, or converted to UPF format
     Using radial grid of  819 points,  5 beta functions with: 
                l(1) =   0
                l(2) =   0
                l(3) =   1
                l(4) =   1
                l(5) =   2
     Q(r) pseudized with  8 coefficients,  rinner =    1.250   1.250   1.250
                                                       1.250   1.250

     atomic species   valence    mass     pseudopotential
        Na             9.00    22.99000     Na( 1.00)

     48 Sym. Ops., with inversion, found



   Cartesian axes

     site n.     atom                  positions (alat units)
         1           Na  tau(   1) = (   0.0000000   0.0000000   0.0000000  )

     number of k points=   250  Marzari-Vanderbilt smearing, width (Ry)=  0.0200

     Number of k-points >= 100: set verbosity='high' to print them.

     Dense  grid:    21865 G-vectors     FFT dimensions: (  40,  40,  40)

     Smooth grid:     7803 G-vectors     FFT dimensions: (  27,  27,  27)

     Estimated max dynamical RAM per process >       1.52MB

     Estimated total allocated dynamical RAM >      97.03MB

     Initial potential from superposition of free atoms

     starting charge    8.99371, renormalised to    9.00000
     Starting wfc are    5 randomized atomic wfcs +    4 random wfc

     total cpu time spent up to now is        0.5 secs

     per-process dynamical memory:     7.1 Mb

     Self-consistent Calculation

     iteration #  1     ecut=    40.00 Ry     beta=0.70
     Davidson diagonalization with overlap
     ethr =  1.00E-02,  avg # of iterations =  5.8

     Threshold (ethr) on eigenvalues was too large:
     Diagonalizing with lowered threshold

     Davidson diagonalization with overlap
     ethr =  1.03E-05,  avg # of iterations =  4.3

     total cpu time spent up to now is        3.0 secs

     total energy              =     -95.10574802 Ry
     Harris-Foulkes estimate   =     -95.10600715 Ry
     estimated scf accuracy    <       0.00092672 Ry

     iteration #  2     ecut=    40.00 Ry     beta=0.70
     Davidson diagonalization with overlap
     ethr =  1.03E-05,  avg # of iterations =  2.0

     total cpu time spent up to now is        3.7 secs

     total energy              =     -95.10585814 Ry
     Harris-Foulkes estimate   =     -95.10588227 Ry
     estimated scf accuracy    <       0.00010322 Ry

     iteration #  3     ecut=    40.00 Ry     beta=0.70
     Davidson diagonalization with overlap
     ethr =  1.15E-06,  avg # of iterations =  2.1

     total cpu time spent up to now is        4.5 secs

     total energy              =     -95.10586975 Ry
     Harris-Foulkes estimate   =     -95.10587093 Ry
     estimated scf accuracy    <       0.00000638 Ry

     iteration #  4     ecut=    40.00 Ry     beta=0.70
     Davidson diagonalization with overlap
     ethr =  7.09E-08,  avg # of iterations =  1.0

     total cpu time spent up to now is        5.0 secs

     total energy              =     -95.10587034 Ry
     Harris-Foulkes estimate   =     -95.10587029 Ry
     estimated scf accuracy    <          9.6E-09 Ry

     iteration #  5     ecut=    40.00 Ry     beta=0.70
     Davidson diagonalization with overlap
     ethr =  1.06E-10,  avg # of iterations =  3.0

     total cpu time spent up to now is        5.9 secs

     total energy              =     -95.10587037 Ry
     Harris-Foulkes estimate   =     -95.10587037 Ry
     estimated scf accuracy    <          1.5E-09 Ry

     iteration #  6     ecut=    40.00 Ry     beta=0.70
     Davidson diagonalization with overlap
     ethr =  1.70E-11,  avg # of iterations =  1.6

     total cpu time spent up to now is        6.5 secs

     End of self-consistent calculation

     Number of k-points >= 100: set verbosity='high' to print the bands.

     the Fermi energy is     2.0425 ev

!    total energy              =     -95.10587037 Ry
     Harris-Foulkes estimate   =     -95.10587037 Ry
     estimated scf accuracy    <          4.2E-11 Ry

     The total energy is the sum of the following terms:

     one-electron contribution =     -85.94466267 Ry
     hartree contribution      =      43.50305492 Ry
     xc contribution           =     -14.28162476 Ry
     ewald contribution        =     -38.38254029 Ry
     smearing contrib. (-TS)   =      -0.00009757 Ry

     convergence has been achieved in   6 iterations


     Computing stress (Cartesian axis) and pressure

          total   stress  (Ry/bohr**3)                   (kbar)     P=    6.00
   0.00004078  -0.00000000   0.00000000          6.00     -0.00      0.00
  -0.00000000   0.00004078  -0.00000000         -0.00      6.00     -0.00
   0.00000000  -0.00000000   0.00004078          0.00     -0.00      6.00


     Writing output data file na.bcc.save

     init_run     :      0.34s CPU      0.37s WALL (       1 calls)
     electrons    :      5.57s CPU      6.00s WALL (       1 calls)
     stress       :      0.18s CPU      0.18s WALL (       1 calls)

     Called by init_run:
     wfcinit      :      0.17s CPU      0.18s WALL (       1 calls)
     potinit      :      0.04s CPU      0.04s WALL (       1 calls)

     Called by electrons:
     c_bands      :      4.67s CPU      5.03s WALL (       7 calls)
     sum_band     :      0.76s CPU      0.80s WALL (       7 calls)
     v_of_rho     :      0.07s CPU      0.07s WALL (       7 calls)
     newd         :      0.06s CPU      0.07s WALL (       7 calls)
     mix_rho      :      0.01s CPU      0.01s WALL (       7 calls)

     Called by c_bands:
     init_us_2    :      0.08s CPU      0.08s WALL (    1008 calls)
     cegterg      :      4.10s CPU      4.45s WALL (     441 calls)

     Called by sum_band:
     sum_band:bec :      0.00s CPU      0.01s WALL (     441 calls)
     addusdens    :      0.07s CPU      0.08s WALL (       7 calls)

     Called by *egterg:
     h_psi        :      2.97s CPU      3.18s WALL (    1785 calls)
     s_psi        :      0.04s CPU      0.04s WALL (    1785 calls)
     g_psi        :      0.01s CPU      0.01s WALL (    1281 calls)
     cdiaghg      :      0.76s CPU      0.83s WALL (    1659 calls)

     Called by h_psi:
     h_psi:pot    :      2.96s CPU      3.16s WALL (    1785 calls)
     h_psi:calbec :      0.12s CPU      0.13s WALL (    1785 calls)
     vloc_psi     :      2.79s CPU      2.98s WALL (    1785 calls)
     add_vuspsi   :      0.04s CPU      0.04s WALL (    1785 calls)

     General routines
     calbec       :      0.15s CPU      0.16s WALL (    2289 calls)
     fft          :      0.07s CPU      0.08s WALL (     117 calls)
     ffts         :      0.01s CPU      0.01s WALL (      14 calls)
     fftw         :      2.96s CPU      3.16s WALL (   25911 calls)
     interpolate  :      0.02s CPU      0.02s WALL (      14 calls)
     davcio       :      0.00s CPU      0.01s WALL (      63 calls)

     Parallel routines
     fft_scatter  :      1.34s CPU      1.44s WALL (   26042 calls)

     PWSCF        :     7.28s CPU         7.84s WALL


   This run was terminated on:   6:35: 3   2Feb2018            

=------------------------------------------------------------------------------=
   JOB DONE.
=------------------------------------------------------------------------------=
