
     Program PHONON v.6.1 (svn rev. 13369) starts on  2Feb2018 at  6:35: 4 

     This program is part of the open-source Quantum ESPRESSO suite
     for quantum simulation of materials; please cite
         "P. Giannozzi et al., J. Phys.:Condens. Matter 21 395502 (2009);
          URL http://www.quantum-espresso.org", 
     in publications or presentations arising from this work. More details at
     http://www.quantum-espresso.org/quote

     Parallel version (MPI), running on    64 processors
     K-points division:     npool     =       4
     R & G space division:  proc/nbgrp/npool/nimage =      16

     Reading data from directory:
     ./na.bcc.save

   Info: using nr1, nr2, nr3 values from input

   Info: using nr1, nr2, nr3 values from input

     IMPORTANT: XC functional enforced from input :
     Exchange-correlation      = SLA  PW   PBE  PBE ( 1  4  3  4 0 0)
     Any further DFT definition will be discarded
     Please, verify this is what you really want


     Parallelization info
     --------------------
     sticks:   dense  smooth     PW     G-vecs:    dense   smooth      PW
     Min          65      33     10                 1365      487      87
     Max          66      34     11                 1368      489      89
     Sum        1051     535    169                21865     7803    1409



     Dynamical matrices for ( 6, 6, 6)  uniform grid of q-points
     (  16q-points):
       N         xq(1)         xq(2)         xq(3) 
       1   0.000000000   0.000000000   0.000000000
       2   0.000000000  -0.166666667   0.166666667
       3   0.000000000  -0.333333333   0.333333333
       4   0.000000000   0.500000000  -0.500000000
       5  -0.166666667  -0.166666667   0.333333333
       6  -0.166666667   0.666666667  -0.500000000
       7  -0.333333333   0.666666667  -0.333333333
       8   0.000000000   0.000000000   0.333333333
       9   0.000000000  -0.166666667   0.500000000
      10   0.000000000   0.666666667  -0.333333333
      11  -0.166666667   0.833333333  -0.333333333
      12   0.666666667  -0.666666667   0.333333333
      13   0.500000000  -0.500000000   0.333333333
      14   0.000000000   0.000000000   0.666666667
      15   0.000000000   0.833333333  -0.166666667
      16   0.000000000   0.000000000  -1.000000000

     Calculation of q =    0.0000000   0.0000000   0.0000000

                                                                                

     bravais-lattice index     =            3
     lattice parameter (alat)  =       7.6800  a.u.
     unit-cell volume          =     226.4924 (a.u.)^3
     number of atoms/cell      =            1
     number of atomic types    =            1
     kinetic-energy cut-off    =      40.0000  Ry
     charge density cut-off    =     320.0000  Ry
     convergence threshold     =      1.0E-16
     beta                      =       0.7000
     number of iterations used =            4
     Exchange-correlation      = SLA  PW   PBE  PBE ( 1  4  3  4 0 0)


     celldm(1)=    7.68000  celldm(2)=    0.00000  celldm(3)=    0.00000
     celldm(4)=    0.00000  celldm(5)=    0.00000  celldm(6)=    0.00000

     crystal axes: (cart. coord. in units of alat)
               a(1) = (  0.5000  0.5000  0.5000 )  
               a(2) = ( -0.5000  0.5000  0.5000 )  
               a(3) = ( -0.5000 -0.5000  0.5000 )  

     reciprocal axes: (cart. coord. in units 2 pi/alat)
               b(1) = (  1.0000  0.0000  1.0000 )  
               b(2) = ( -1.0000  1.0000  0.0000 )  
               b(3) = (  0.0000 -1.0000  1.0000 )  


     Atoms inside the unit cell: 

     Cartesian axes

     site n.  atom      mass           positions (alat units)
        1     Na  22.9900   tau(    1) = (    0.00000    0.00000    0.00000  )

     Computing dynamical matrix for 
                    q = (   0.0000000   0.0000000   0.0000000 )

     49 Sym.Ops. (with q -> -q+G )


     G cutoff =  478.0933  (   1365 G-vectors)     FFT grid: ( 40, 40, 40)
     G cutoff =  239.0467  (    489 G-vectors)  smooth grid: ( 27, 27, 27)

     number of k points=   250  Marzari-Vanderbilt smearing, width (Ry)=  0.0200

     PseudoPot. # 1 for Na read from file:
     /home/s1333534/quantum_espresso/qe-6.1/pseudo/Na_pbe_v1.uspp.F.UPF
     MD5 check sum: 76a99c7e9422403d3e93cbc85ab7bccb
     Pseudo is Ultrasoft, Zval =  9.0
     Generated by new atomic code, or converted to UPF format
     Using radial grid of  819 points,  5 beta functions with: 
                l(1) =   0
                l(2) =   0
                l(3) =   1
                l(4) =   1
                l(5) =   2
     Q(r) pseudized with  8 coefficients,  rinner =    1.250   1.250   1.250
                                                       1.250   1.250

     Mode symmetry, O_h (m-3m)  point group:


     Atomic displacements:
     There are   1 irreducible representations

     Representation     1      3 modes -T_1u G_15  G_4-  To be done



     Alpha used in Ewald sum =   2.8000
     PHONON       :     3.05s CPU         3.25s WALL



     Representation #  1 modes #   1  2  3

     Self-consistent Calculation

     Pert. #  1: Fermi energy shift (Ry) =     1.1201E-25     4.5452E-37
     Pert. #  2: Fermi energy shift (Ry) =    -6.8932E-26     3.3698E-37
     Pert. #  3: Fermi energy shift (Ry) =     1.7233E-25    -6.2693E-38

      iter #   1 total cpu time :     7.3 secs   av.it.:   5.4
      thresh= 1.000E-02 alpha_mix =  0.700 |ddv_scf|^2 =  1.056E-06

     Pert. #  1: Fermi energy shift (Ry) =     3.3389E-26    -4.4081E-39
     Pert. #  2: Fermi energy shift (Ry) =    -8.6030E-26    -9.3060E-39
     Pert. #  3: Fermi energy shift (Ry) =    -7.3105E-26     0.0000E+00

      iter #   2 total cpu time :    11.8 secs   av.it.:   8.4
      thresh= 1.028E-04 alpha_mix =  0.700 |ddv_scf|^2 =  1.999E-08

     Pert. #  1: Fermi energy shift (Ry) =    -5.8161E-26    -3.6734E-40
     Pert. #  2: Fermi energy shift (Ry) =     3.0158E-26     1.2245E-40
     Pert. #  3: Fermi energy shift (Ry) =     5.8161E-26    -1.2245E-40

      iter #   3 total cpu time :    16.3 secs   av.it.:   8.6
      thresh= 1.414E-05 alpha_mix =  0.700 |ddv_scf|^2 =  3.601E-10

     Pert. #  1: Fermi energy shift (Ry) =    -4.3513E-25     5.7397E-42
     Pert. #  2: Fermi energy shift (Ry) =    -1.7233E-26    -7.8443E-41
     Pert. #  3: Fermi energy shift (Ry) =    -6.0315E-26     2.6785E-41

      iter #   4 total cpu time :    20.8 secs   av.it.:   8.1
      thresh= 1.898E-06 alpha_mix =  0.700 |ddv_scf|^2 =  1.292E-12

     Pert. #  1: Fermi energy shift (Ry) =    -1.8741E-25     7.6530E-42
     Pert. #  2: Fermi energy shift (Ry) =    -1.0447E-25    -1.3871E-41
     Pert. #  3: Fermi energy shift (Ry) =     1.4002E-26     1.4828E-41

      iter #   5 total cpu time :    25.4 secs   av.it.:   8.5
      thresh= 1.137E-07 alpha_mix =  0.700 |ddv_scf|^2 =  3.046E-15

     Pert. #  1: Fermi energy shift (Ry) =     4.9545E-26    -4.0656E-42
     Pert. #  2: Fermi energy shift (Ry) =    -1.8310E-26    -2.7503E-42
     Pert. #  3: Fermi energy shift (Ry) =     1.0017E-25    -2.2720E-42

      iter #   6 total cpu time :    29.9 secs   av.it.:   8.1
      thresh= 5.519E-09 alpha_mix =  0.700 |ddv_scf|^2 =  7.037E-17

     End of self-consistent calculation

     Convergence has been achieved 

     Number of q in the star =    1
     List of q in the star:
          1   0.000000000   0.000000000   0.000000000

     Diagonalizing the dynamical matrix

     q = (    0.000000000   0.000000000   0.000000000 ) 

 **************************************************************************
     freq (    1) =      -0.239762 [THz] =      -7.997587 [cm-1]
     freq (    2) =      -0.239762 [THz] =      -7.997587 [cm-1]
     freq (    3) =      -0.239762 [THz] =      -7.997587 [cm-1]
 **************************************************************************

     Mode symmetry, O_h (m-3m)  point group:

     freq (  1 -  3) =         -8.0  [cm-1]   --> T_1u G_15  G_4- I  

     Calculation of q =    0.0000000  -0.1666667   0.1666667

   Info: using nr1, nr2, nr3 values from input

   Info: using nr1, nr2, nr3 values from input

     Parallelization info
     --------------------
     sticks:   dense  smooth     PW     G-vecs:    dense   smooth      PW
     Min          65      33     10                 1365      487      90
     Max          66      34     11                 1368      489      94
     Sum        1051     535    173                21865     7803    1481



     bravais-lattice index     =            3
     lattice parameter (alat)  =       7.6800  a.u.
     unit-cell volume          =     226.4924 (a.u.)^3
     number of atoms/cell      =            1
     number of atomic types    =            1
     number of electrons       =         9.00
     number of Kohn-Sham states=            9
     kinetic-energy cutoff     =      40.0000  Ry
     charge density cutoff     =     320.0000  Ry
     Exchange-correlation      = SLA  PW   PBE  PBE ( 1  4  3  4 0 0)

     celldm(1)=   7.680000  celldm(2)=   0.000000  celldm(3)=   0.000000
     celldm(4)=   0.000000  celldm(5)=   0.000000  celldm(6)=   0.000000

     crystal axes: (cart. coord. in units of alat)
               a(1) = (   0.500000   0.500000   0.500000 )  
               a(2) = (  -0.500000   0.500000   0.500000 )  
               a(3) = (  -0.500000  -0.500000   0.500000 )  

     reciprocal axes: (cart. coord. in units 2 pi/alat)
               b(1) = (  1.000000  0.000000  1.000000 )  
               b(2) = ( -1.000000  1.000000  0.000000 )  
               b(3) = (  0.000000 -1.000000  1.000000 )  


     PseudoPot. # 1 for Na read from file:
     /home/s1333534/quantum_espresso/qe-6.1/pseudo/Na_pbe_v1.uspp.F.UPF
     MD5 check sum: 76a99c7e9422403d3e93cbc85ab7bccb
     Pseudo is Ultrasoft, Zval =  9.0
     Generated by new atomic code, or converted to UPF format
     Using radial grid of  819 points,  5 beta functions with: 
                l(1) =   0
                l(2) =   0
                l(3) =   1
                l(4) =   1
                l(5) =   2
     Q(r) pseudized with  8 coefficients,  rinner =    1.250   1.250   1.250
                                                       1.250   1.250

     atomic species   valence    mass     pseudopotential
        Na             9.00    22.99000     Na( 1.00)

     48 Sym. Ops., with inversion, found



   Cartesian axes

     site n.     atom                  positions (alat units)
         1           Na  tau(   1) = (   0.0000000   0.0000000   0.0000000  )

     number of k points=  4400  Marzari-Vanderbilt smearing, width (Ry)=  0.0200

     Number of k-points >= 100: set verbosity='high' to print them.

     Dense  grid:    21865 G-vectors     FFT dimensions: (  40,  40,  40)

     Smooth grid:     7803 G-vectors     FFT dimensions: (  27,  27,  27)

     Estimated max dynamical RAM per process >       0.75MB

     Estimated total allocated dynamical RAM >      48.04MB

     The potential is recalculated from file :
     ./_ph0/na.bcc.save/charge-density.dat

     Starting wfc are    5 atomic +    4 random wfc

     Band Structure Calculation
     Davidson diagonalization with overlap

     ethr =  1.11E-10,  avg # of iterations = 20.4

     total cpu time spent up to now is       70.1 secs

     End of band structure calculation

     Number of k-points >= 100: set verbosity='high' to print the bands.

     the Fermi energy is     2.0425 ev

     Writing output data file na.bcc.save

                                                                                

     bravais-lattice index     =            3
     lattice parameter (alat)  =       7.6800  a.u.
     unit-cell volume          =     226.4924 (a.u.)^3
     number of atoms/cell      =            1
     number of atomic types    =            1
     kinetic-energy cut-off    =      40.0000  Ry
     charge density cut-off    =     320.0000  Ry
     convergence threshold     =      1.0E-16
     beta                      =       0.7000
     number of iterations used =            4
     Exchange-correlation      = SLA  PW   PBE  PBE ( 1  4  3  4 0 0)


     celldm(1)=    7.68000  celldm(2)=    0.00000  celldm(3)=    0.00000
     celldm(4)=    0.00000  celldm(5)=    0.00000  celldm(6)=    0.00000

     crystal axes: (cart. coord. in units of alat)
               a(1) = (  0.5000  0.5000  0.5000 )  
               a(2) = ( -0.5000  0.5000  0.5000 )  
               a(3) = ( -0.5000 -0.5000  0.5000 )  

     reciprocal axes: (cart. coord. in units 2 pi/alat)
               b(1) = (  1.0000  0.0000  1.0000 )  
               b(2) = ( -1.0000  1.0000  0.0000 )  
               b(3) = (  0.0000 -1.0000  1.0000 )  


     Atoms inside the unit cell: 

     Cartesian axes

     site n.  atom      mass           positions (alat units)
        1     Na  22.9900   tau(    1) = (    0.00000    0.00000    0.00000  )

     Computing dynamical matrix for 
                    q = (   0.0000000  -0.1666667   0.1666667 )

      4 Sym.Ops. (no q -> -q+G )


     G cutoff =  478.0933  (   1368 G-vectors)     FFT grid: ( 40, 40, 40)
     G cutoff =  239.0467  (    489 G-vectors)  smooth grid: ( 27, 27, 27)

     number of k points=  4400  Marzari-Vanderbilt smearing, width (Ry)=  0.0200

     PseudoPot. # 1 for Na read from file:
     /home/s1333534/quantum_espresso/qe-6.1/pseudo/Na_pbe_v1.uspp.F.UPF
     MD5 check sum: 76a99c7e9422403d3e93cbc85ab7bccb
     Pseudo is Ultrasoft, Zval =  9.0
     Generated by new atomic code, or converted to UPF format
     Using radial grid of  819 points,  5 beta functions with: 
                l(1) =   0
                l(2) =   0
                l(3) =   1
                l(4) =   1
                l(5) =   2
     Q(r) pseudized with  8 coefficients,  rinner =    1.250   1.250   1.250
                                                       1.250   1.250

     Mode symmetry, C_2v (mm2)  point group:


     Atomic displacements:
     There are   3 irreducible representations

     Representation     1      1 modes -A_1  D_1  S_1  To be done

     Representation     2      1 modes -B_1  D_3  S_3  To be done

     Representation     3      1 modes -B_2  D_4  S_4  To be done



     Alpha used in Ewald sum =   2.8000
     PHONON       :  1m50.49s CPU     1m56.71s WALL



     Representation #  1 mode #   1

     Self-consistent Calculation

      iter #   1 total cpu time :   125.1 secs   av.it.:   5.7
      thresh= 1.000E-02 alpha_mix =  0.700 |ddv_scf|^2 =  2.481E-02

      iter #   2 total cpu time :   133.4 secs   av.it.:   6.4
      thresh= 1.000E-02 alpha_mix =  0.700 |ddv_scf|^2 =  3.527E+00

      iter #   3 total cpu time :   141.7 secs   av.it.:   6.4
      thresh= 1.000E-02 alpha_mix =  0.700 |ddv_scf|^2 =  4.178E-07

      iter #   4 total cpu time :   151.8 secs   av.it.:   7.9
      thresh= 6.463E-05 alpha_mix =  0.700 |ddv_scf|^2 =  5.724E-08

      iter #   5 total cpu time :   160.8 secs   av.it.:   7.5
      thresh= 2.393E-05 alpha_mix =  0.700 |ddv_scf|^2 =  3.259E-09

      iter #   6 total cpu time :   169.8 secs   av.it.:   7.6
      thresh= 5.708E-06 alpha_mix =  0.700 |ddv_scf|^2 =  4.283E-08

      iter #   7 total cpu time :   175.9 secs   av.it.:   4.3
      thresh= 2.069E-05 alpha_mix =  0.700 |ddv_scf|^2 =  2.376E-10

      iter #   8 total cpu time :   185.0 secs   av.it.:   7.6
      thresh= 1.542E-06 alpha_mix =  0.700 |ddv_scf|^2 =  3.752E-11

      iter #   9 total cpu time :   193.8 secs   av.it.:   7.2
      thresh= 6.126E-07 alpha_mix =  0.700 |ddv_scf|^2 =  1.463E-12

      iter #  10 total cpu time :   202.7 secs   av.it.:   7.1
      thresh= 1.210E-07 alpha_mix =  0.700 |ddv_scf|^2 =  9.132E-14

      iter #  11 total cpu time :   212.1 secs   av.it.:   7.3
      thresh= 3.022E-08 alpha_mix =  0.700 |ddv_scf|^2 =  5.120E-16

      iter #  12 total cpu time :   221.3 secs   av.it.:   7.8
      thresh= 2.263E-09 alpha_mix =  0.700 |ddv_scf|^2 =  9.879E-16

      iter #  13 total cpu time :   229.1 secs   av.it.:   6.1
      thresh= 3.143E-09 alpha_mix =  0.700 |ddv_scf|^2 =  2.695E-15

      iter #  14 total cpu time :   237.2 secs   av.it.:   6.6
      thresh= 5.191E-09 alpha_mix =  0.700 |ddv_scf|^2 =  3.321E-18

     End of self-consistent calculation

     Convergence has been achieved 


     Representation #  2 mode #   2

     Self-consistent Calculation

      iter #   1 total cpu time :   245.6 secs   av.it.:   5.4
      thresh= 1.000E-02 alpha_mix =  0.700 |ddv_scf|^2 =  9.612E-06

      iter #   2 total cpu time :   255.0 secs   av.it.:   7.7
      thresh= 3.100E-04 alpha_mix =  0.700 |ddv_scf|^2 =  1.780E-07

      iter #   3 total cpu time :   264.7 secs   av.it.:   7.9
      thresh= 4.219E-05 alpha_mix =  0.700 |ddv_scf|^2 =  3.550E-09

      iter #   4 total cpu time :   274.2 secs   av.it.:   7.4
      thresh= 5.958E-06 alpha_mix =  0.700 |ddv_scf|^2 =  1.244E-11

      iter #   5 total cpu time :   283.6 secs   av.it.:   7.7
      thresh= 3.527E-07 alpha_mix =  0.700 |ddv_scf|^2 =  2.628E-14

      iter #   6 total cpu time :   292.6 secs   av.it.:   7.4
      thresh= 1.621E-08 alpha_mix =  0.700 |ddv_scf|^2 =  6.772E-16

      iter #   7 total cpu time :   303.4 secs   av.it.:   7.7
      thresh= 2.602E-09 alpha_mix =  0.700 |ddv_scf|^2 =  6.399E-19

     End of self-consistent calculation

     Convergence has been achieved 


     Representation #  3 mode #   3

     Self-consistent Calculation

      iter #   1 total cpu time :   311.9 secs   av.it.:   5.4
      thresh= 1.000E-02 alpha_mix =  0.700 |ddv_scf|^2 =  9.941E-06

      iter #   2 total cpu time :   321.2 secs   av.it.:   7.7
      thresh= 3.153E-04 alpha_mix =  0.700 |ddv_scf|^2 =  1.769E-07

      iter #   3 total cpu time :   330.9 secs   av.it.:   7.9
      thresh= 4.206E-05 alpha_mix =  0.700 |ddv_scf|^2 =  4.580E-09

      iter #   4 total cpu time :   340.1 secs   av.it.:   7.5
      thresh= 6.767E-06 alpha_mix =  0.700 |ddv_scf|^2 =  1.561E-11

      iter #   5 total cpu time :   349.6 secs   av.it.:   7.8
      thresh= 3.951E-07 alpha_mix =  0.700 |ddv_scf|^2 =  2.736E-14

      iter #   6 total cpu time :   358.8 secs   av.it.:   7.2
      thresh= 1.654E-08 alpha_mix =  0.700 |ddv_scf|^2 =  1.084E-15

      iter #   7 total cpu time :   368.3 secs   av.it.:   7.8
      thresh= 3.293E-09 alpha_mix =  0.700 |ddv_scf|^2 =  1.281E-18

     End of self-consistent calculation

     Convergence has been achieved 

     Number of q in the star =   12
     List of q in the star:
          1   0.000000000  -0.166666667   0.166666667
          2  -0.166666667   0.000000000   0.166666667
          3   0.166666667   0.000000000   0.166666667
          4   0.000000000   0.166666667   0.166666667
          5   0.166666667   0.166666667   0.000000000
          6  -0.166666667   0.166666667   0.000000000
          7   0.166666667  -0.166666667   0.000000000
          8  -0.166666667  -0.166666667   0.000000000
          9  -0.166666667   0.000000000  -0.166666667
         10   0.000000000  -0.166666667  -0.166666667
         11   0.000000000   0.166666667  -0.166666667
         12   0.166666667   0.000000000  -0.166666667

     Diagonalizing the dynamical matrix

     q = (    0.000000000  -0.166666667   0.166666667 ) 

 **************************************************************************
     freq (    1) =       0.598353 [THz] =      19.958906 [cm-1]
     freq (    2) =       1.442299 [THz] =      48.109921 [cm-1]
     freq (    3) =       2.280200 [THz] =      76.059270 [cm-1]
 **************************************************************************

     Mode symmetry, C_2v (mm2)  point group:

     freq (  1 -  1) =         20.0  [cm-1]   --> B_1  D_3  S_3      
     freq (  2 -  2) =         48.1  [cm-1]   --> B_2  D_4  S_4      
     freq (  3 -  3) =         76.1  [cm-1]   --> A_1  D_1  S_1      

     Calculation of q =    0.0000000  -0.3333333   0.3333333

   Info: using nr1, nr2, nr3 values from input

   Info: using nr1, nr2, nr3 values from input

     Parallelization info
     --------------------
     sticks:   dense  smooth     PW     G-vecs:    dense   smooth      PW
     Min          65      33     11                 1365      487      96
     Max          66      34     12                 1368      489      98
     Sum        1051     535    181                21865     7803    1553



     bravais-lattice index     =            3
     lattice parameter (alat)  =       7.6800  a.u.
     unit-cell volume          =     226.4924 (a.u.)^3
     number of atoms/cell      =            1
     number of atomic types    =            1
     number of electrons       =         9.00
     number of Kohn-Sham states=            9
     kinetic-energy cutoff     =      40.0000  Ry
     charge density cutoff     =     320.0000  Ry
     Exchange-correlation      = SLA  PW   PBE  PBE ( 1  4  3  4 0 0)

     celldm(1)=   7.680000  celldm(2)=   0.000000  celldm(3)=   0.000000
     celldm(4)=   0.000000  celldm(5)=   0.000000  celldm(6)=   0.000000

     crystal axes: (cart. coord. in units of alat)
               a(1) = (   0.500000   0.500000   0.500000 )  
               a(2) = (  -0.500000   0.500000   0.500000 )  
               a(3) = (  -0.500000  -0.500000   0.500000 )  

     reciprocal axes: (cart. coord. in units 2 pi/alat)
               b(1) = (  1.000000  0.000000  1.000000 )  
               b(2) = ( -1.000000  1.000000  0.000000 )  
               b(3) = (  0.000000 -1.000000  1.000000 )  


     PseudoPot. # 1 for Na read from file:
     /home/s1333534/quantum_espresso/qe-6.1/pseudo/Na_pbe_v1.uspp.F.UPF
     MD5 check sum: 76a99c7e9422403d3e93cbc85ab7bccb
     Pseudo is Ultrasoft, Zval =  9.0
     Generated by new atomic code, or converted to UPF format
     Using radial grid of  819 points,  5 beta functions with: 
                l(1) =   0
                l(2) =   0
                l(3) =   1
                l(4) =   1
                l(5) =   2
     Q(r) pseudized with  8 coefficients,  rinner =    1.250   1.250   1.250
                                                       1.250   1.250

     atomic species   valence    mass     pseudopotential
        Na             9.00    22.99000     Na( 1.00)

     48 Sym. Ops., with inversion, found



   Cartesian axes

     site n.     atom                  positions (alat units)
         1           Na  tau(   1) = (   0.0000000   0.0000000   0.0000000  )

     number of k points=  4400  Marzari-Vanderbilt smearing, width (Ry)=  0.0200

     Number of k-points >= 100: set verbosity='high' to print them.

     Dense  grid:    21865 G-vectors     FFT dimensions: (  40,  40,  40)

     Smooth grid:     7803 G-vectors     FFT dimensions: (  27,  27,  27)

     Estimated max dynamical RAM per process >       0.75MB

     Estimated total allocated dynamical RAM >      48.04MB

     The potential is recalculated from file :
     ./_ph0/na.bcc.save/charge-density.dat

     Starting wfc are    5 atomic +    4 random wfc

     Band Structure Calculation
     Davidson diagonalization with overlap

     ethr =  1.11E-10,  avg # of iterations = 20.4

     total cpu time spent up to now is      152.9 secs

     End of band structure calculation

     Number of k-points >= 100: set verbosity='high' to print the bands.

     the Fermi energy is     2.0425 ev

     Writing output data file na.bcc.save

                                                                                

     bravais-lattice index     =            3
     lattice parameter (alat)  =       7.6800  a.u.
     unit-cell volume          =     226.4924 (a.u.)^3
     number of atoms/cell      =            1
     number of atomic types    =            1
     kinetic-energy cut-off    =      40.0000  Ry
     charge density cut-off    =     320.0000  Ry
     convergence threshold     =      1.0E-16
     beta                      =       0.7000
     number of iterations used =            4
     Exchange-correlation      = SLA  PW   PBE  PBE ( 1  4  3  4 0 0)


     celldm(1)=    7.68000  celldm(2)=    0.00000  celldm(3)=    0.00000
     celldm(4)=    0.00000  celldm(5)=    0.00000  celldm(6)=    0.00000

     crystal axes: (cart. coord. in units of alat)
               a(1) = (  0.5000  0.5000  0.5000 )  
               a(2) = ( -0.5000  0.5000  0.5000 )  
               a(3) = ( -0.5000 -0.5000  0.5000 )  

     reciprocal axes: (cart. coord. in units 2 pi/alat)
               b(1) = (  1.0000  0.0000  1.0000 )  
               b(2) = ( -1.0000  1.0000  0.0000 )  
               b(3) = (  0.0000 -1.0000  1.0000 )  


     Atoms inside the unit cell: 

     Cartesian axes

     site n.  atom      mass           positions (alat units)
        1     Na  22.9900   tau(    1) = (    0.00000    0.00000    0.00000  )

     Computing dynamical matrix for 
                    q = (   0.0000000  -0.3333333   0.3333333 )

      4 Sym.Ops. (no q -> -q+G )


     G cutoff =  478.0933  (   1368 G-vectors)     FFT grid: ( 40, 40, 40)
     G cutoff =  239.0467  (    489 G-vectors)  smooth grid: ( 27, 27, 27)

     number of k points=  4400  Marzari-Vanderbilt smearing, width (Ry)=  0.0200

     PseudoPot. # 1 for Na read from file:
     /home/s1333534/quantum_espresso/qe-6.1/pseudo/Na_pbe_v1.uspp.F.UPF
     MD5 check sum: 76a99c7e9422403d3e93cbc85ab7bccb
     Pseudo is Ultrasoft, Zval =  9.0
     Generated by new atomic code, or converted to UPF format
     Using radial grid of  819 points,  5 beta functions with: 
                l(1) =   0
                l(2) =   0
                l(3) =   1
                l(4) =   1
                l(5) =   2
     Q(r) pseudized with  8 coefficients,  rinner =    1.250   1.250   1.250
                                                       1.250   1.250

     Mode symmetry, C_2v (mm2)  point group:


     Atomic displacements:
     There are   3 irreducible representations

     Representation     1      1 modes -A_1  D_1  S_1  To be done

     Representation     2      1 modes -B_1  D_3  S_3  To be done

     Representation     3      1 modes -B_2  D_4  S_4  To be done



     Alpha used in Ewald sum =   2.8000
     PHONON       :  7m 2.47s CPU     7m34.78s WALL



     Representation #  1 mode #   1

     Self-consistent Calculation

      iter #   1 total cpu time :   463.4 secs   av.it.:   5.7
      thresh= 1.000E-02 alpha_mix =  0.700 |ddv_scf|^2 =  4.236E-04

      iter #   2 total cpu time :   471.9 secs   av.it.:   6.7
      thresh= 2.058E-03 alpha_mix =  0.700 |ddv_scf|^2 =  2.351E-03

      iter #   3 total cpu time :   479.6 secs   av.it.:   5.8
      thresh= 4.848E-03 alpha_mix =  0.700 |ddv_scf|^2 =  4.634E-07

      iter #   4 total cpu time :   489.0 secs   av.it.:   7.8
      thresh= 6.807E-05 alpha_mix =  0.700 |ddv_scf|^2 =  7.747E-09

      iter #   5 total cpu time :   498.9 secs   av.it.:   8.3
      thresh= 8.802E-06 alpha_mix =  0.700 |ddv_scf|^2 =  4.018E-10

      iter #   6 total cpu time :   508.7 secs   av.it.:   8.1
      thresh= 2.004E-06 alpha_mix =  0.700 |ddv_scf|^2 =  1.468E-11

      iter #   7 total cpu time :   518.3 secs   av.it.:   7.8
      thresh= 3.831E-07 alpha_mix =  0.700 |ddv_scf|^2 =  1.720E-14

      iter #   8 total cpu time :   528.0 secs   av.it.:   8.1
      thresh= 1.311E-08 alpha_mix =  0.700 |ddv_scf|^2 =  1.816E-14

      iter #   9 total cpu time :   536.5 secs   av.it.:   6.8
      thresh= 1.348E-08 alpha_mix =  0.700 |ddv_scf|^2 =  7.055E-15

      iter #  10 total cpu time :   545.2 secs   av.it.:   7.0
      thresh= 8.399E-09 alpha_mix =  0.700 |ddv_scf|^2 =  2.472E-15

      iter #  11 total cpu time :   554.2 secs   av.it.:   7.3
      thresh= 4.972E-09 alpha_mix =  0.700 |ddv_scf|^2 =  9.908E-18

     End of self-consistent calculation

     Convergence has been achieved 


     Representation #  2 mode #   2

     Self-consistent Calculation

      iter #   1 total cpu time :   562.7 secs   av.it.:   5.5
      thresh= 1.000E-02 alpha_mix =  0.700 |ddv_scf|^2 =  9.877E-06

      iter #   2 total cpu time :   572.2 secs   av.it.:   7.7
      thresh= 3.143E-04 alpha_mix =  0.700 |ddv_scf|^2 =  1.726E-07

      iter #   3 total cpu time :   581.9 secs   av.it.:   7.9
      thresh= 4.155E-05 alpha_mix =  0.700 |ddv_scf|^2 =  4.529E-09

      iter #   4 total cpu time :   591.2 secs   av.it.:   7.5
      thresh= 6.730E-06 alpha_mix =  0.700 |ddv_scf|^2 =  1.475E-11

      iter #   5 total cpu time :   600.7 secs   av.it.:   7.8
      thresh= 3.840E-07 alpha_mix =  0.700 |ddv_scf|^2 =  2.228E-14

      iter #   6 total cpu time :   609.8 secs   av.it.:   7.4
      thresh= 1.493E-08 alpha_mix =  0.700 |ddv_scf|^2 =  7.230E-16

      iter #   7 total cpu time :   619.3 secs   av.it.:   7.8
      thresh= 2.689E-09 alpha_mix =  0.700 |ddv_scf|^2 =  7.695E-19

     End of self-consistent calculation

     Convergence has been achieved 


     Representation #  3 mode #   3

     Self-consistent Calculation

      iter #   1 total cpu time :   627.8 secs   av.it.:   5.5
      thresh= 1.000E-02 alpha_mix =  0.700 |ddv_scf|^2 =  1.091E-05

      iter #   2 total cpu time :   637.2 secs   av.it.:   7.7
      thresh= 3.303E-04 alpha_mix =  0.700 |ddv_scf|^2 =  1.710E-07

      iter #   3 total cpu time :   646.7 secs   av.it.:   7.9
      thresh= 4.135E-05 alpha_mix =  0.700 |ddv_scf|^2 =  8.108E-09

      iter #   4 total cpu time :   655.8 secs   av.it.:   7.5
      thresh= 9.005E-06 alpha_mix =  0.700 |ddv_scf|^2 =  2.627E-11

      iter #   5 total cpu time :   665.2 secs   av.it.:   7.8
      thresh= 5.126E-07 alpha_mix =  0.700 |ddv_scf|^2 =  2.959E-14

      iter #   6 total cpu time :   673.4 secs   av.it.:   6.4
      thresh= 1.720E-08 alpha_mix =  0.700 |ddv_scf|^2 =  1.795E-15

      iter #   7 total cpu time :   682.9 secs   av.it.:   7.7
      thresh= 4.237E-09 alpha_mix =  0.700 |ddv_scf|^2 =  2.008E-18

     End of self-consistent calculation

     Convergence has been achieved 

     Number of q in the star =   12
     List of q in the star:
          1   0.000000000  -0.333333333   0.333333333
          2  -0.333333333   0.000000000   0.333333333
          3   0.333333333   0.000000000   0.333333333
          4   0.000000000   0.333333333   0.333333333
          5   0.333333333   0.333333333   0.000000000
          6  -0.333333333   0.333333333   0.000000000
          7   0.333333333  -0.333333333   0.000000000
          8  -0.333333333  -0.333333333   0.000000000
          9  -0.333333333   0.000000000  -0.333333333
         10   0.000000000  -0.333333333  -0.333333333
         11   0.000000000   0.333333333  -0.333333333
         12   0.333333333   0.000000000  -0.333333333

     Diagonalizing the dynamical matrix

     q = (    0.000000000  -0.333333333   0.333333333 ) 

 **************************************************************************
     freq (    1) =       0.934807 [THz] =      31.181790 [cm-1]
     freq (    2) =       2.468617 [THz] =      82.344198 [cm-1]
     freq (    3) =       3.922939 [THz] =     130.855144 [cm-1]
 **************************************************************************

     Mode symmetry, C_2v (mm2)  point group:

     freq (  1 -  1) =         31.2  [cm-1]   --> B_1  D_3  S_3      
     freq (  2 -  2) =         82.3  [cm-1]   --> B_2  D_4  S_4      
     freq (  3 -  3) =        130.9  [cm-1]   --> A_1  D_1  S_1      

     Calculation of q =    0.0000000   0.5000000  -0.5000000

   Info: using nr1, nr2, nr3 values from input

   Info: using nr1, nr2, nr3 values from input

     Parallelization info
     --------------------
     sticks:   dense  smooth     PW     G-vecs:    dense   smooth      PW
     Min          65      33     12                 1365      487     108
     Max          66      34     13                 1368      489     110
     Sum        1051     535    201                21865     7803    1745



     bravais-lattice index     =            3
     lattice parameter (alat)  =       7.6800  a.u.
     unit-cell volume          =     226.4924 (a.u.)^3
     number of atoms/cell      =            1
     number of atomic types    =            1
     number of electrons       =         9.00
     number of Kohn-Sham states=            9
     kinetic-energy cutoff     =      40.0000  Ry
     charge density cutoff     =     320.0000  Ry
     Exchange-correlation      = SLA  PW   PBE  PBE ( 1  4  3  4 0 0)

     celldm(1)=   7.680000  celldm(2)=   0.000000  celldm(3)=   0.000000
     celldm(4)=   0.000000  celldm(5)=   0.000000  celldm(6)=   0.000000

     crystal axes: (cart. coord. in units of alat)
               a(1) = (   0.500000   0.500000   0.500000 )  
               a(2) = (  -0.500000   0.500000   0.500000 )  
               a(3) = (  -0.500000  -0.500000   0.500000 )  

     reciprocal axes: (cart. coord. in units 2 pi/alat)
               b(1) = (  1.000000  0.000000  1.000000 )  
               b(2) = ( -1.000000  1.000000  0.000000 )  
               b(3) = (  0.000000 -1.000000  1.000000 )  


     PseudoPot. # 1 for Na read from file:
     /home/s1333534/quantum_espresso/qe-6.1/pseudo/Na_pbe_v1.uspp.F.UPF
     MD5 check sum: 76a99c7e9422403d3e93cbc85ab7bccb
     Pseudo is Ultrasoft, Zval =  9.0
     Generated by new atomic code, or converted to UPF format
     Using radial grid of  819 points,  5 beta functions with: 
                l(1) =   0
                l(2) =   0
                l(3) =   1
                l(4) =   1
                l(5) =   2
     Q(r) pseudized with  8 coefficients,  rinner =    1.250   1.250   1.250
                                                       1.250   1.250

     atomic species   valence    mass     pseudopotential
        Na             9.00    22.99000     Na( 1.00)

     48 Sym. Ops., with inversion, found



   Cartesian axes

     site n.     atom                  positions (alat units)
         1           Na  tau(   1) = (   0.0000000   0.0000000   0.0000000  )

     number of k points=  2310  Marzari-Vanderbilt smearing, width (Ry)=  0.0200

     Number of k-points >= 100: set verbosity='high' to print them.

     Dense  grid:    21865 G-vectors     FFT dimensions: (  40,  40,  40)

     Smooth grid:     7803 G-vectors     FFT dimensions: (  27,  27,  27)

     Estimated max dynamical RAM per process >       0.75MB

     Estimated total allocated dynamical RAM >      48.04MB

     The potential is recalculated from file :
     ./_ph0/na.bcc.save/charge-density.dat

     Starting wfc are    5 atomic +    4 random wfc

     Band Structure Calculation
     Davidson diagonalization with overlap

     ethr =  1.11E-10,  avg # of iterations = 20.4

     total cpu time spent up to now is      203.0 secs

     End of band structure calculation

     Number of k-points >= 100: set verbosity='high' to print the bands.

     the Fermi energy is     2.0425 ev

     Writing output data file na.bcc.save

                                                                                

     bravais-lattice index     =            3
     lattice parameter (alat)  =       7.6800  a.u.
     unit-cell volume          =     226.4924 (a.u.)^3
     number of atoms/cell      =            1
     number of atomic types    =            1
     kinetic-energy cut-off    =      40.0000  Ry
     charge density cut-off    =     320.0000  Ry
     convergence threshold     =      1.0E-16
     beta                      =       0.7000
     number of iterations used =            4
     Exchange-correlation      = SLA  PW   PBE  PBE ( 1  4  3  4 0 0)


     celldm(1)=    7.68000  celldm(2)=    0.00000  celldm(3)=    0.00000
     celldm(4)=    0.00000  celldm(5)=    0.00000  celldm(6)=    0.00000

     crystal axes: (cart. coord. in units of alat)
               a(1) = (  0.5000  0.5000  0.5000 )  
               a(2) = ( -0.5000  0.5000  0.5000 )  
               a(3) = ( -0.5000 -0.5000  0.5000 )  

     reciprocal axes: (cart. coord. in units 2 pi/alat)
               b(1) = (  1.0000  0.0000  1.0000 )  
               b(2) = ( -1.0000  1.0000  0.0000 )  
               b(3) = (  0.0000 -1.0000  1.0000 )  


     Atoms inside the unit cell: 

     Cartesian axes

     site n.  atom      mass           positions (alat units)
        1     Na  22.9900   tau(    1) = (    0.00000    0.00000    0.00000  )

     Computing dynamical matrix for 
                    q = (   0.0000000   0.5000000  -0.5000000 )

      9 Sym.Ops. (with q -> -q+G )


     G cutoff =  478.0933  (   1368 G-vectors)     FFT grid: ( 40, 40, 40)
     G cutoff =  239.0467  (    489 G-vectors)  smooth grid: ( 27, 27, 27)

     number of k points=  2310  Marzari-Vanderbilt smearing, width (Ry)=  0.0200

     PseudoPot. # 1 for Na read from file:
     /home/s1333534/quantum_espresso/qe-6.1/pseudo/Na_pbe_v1.uspp.F.UPF
     MD5 check sum: 76a99c7e9422403d3e93cbc85ab7bccb
     Pseudo is Ultrasoft, Zval =  9.0
     Generated by new atomic code, or converted to UPF format
     Using radial grid of  819 points,  5 beta functions with: 
                l(1) =   0
                l(2) =   0
                l(3) =   1
                l(4) =   1
                l(5) =   2
     Q(r) pseudized with  8 coefficients,  rinner =    1.250   1.250   1.250
                                                       1.250   1.250

     Mode symmetry, D_2h (mmm)  point group:


     Atomic displacements:
     There are   3 irreducible representations

     Representation     1      1 modes -B_1u  To be done

     Representation     2      1 modes -B_2u  To be done

     Representation     3      1 modes -B_3u  To be done



     Alpha used in Ewald sum =   2.8000
     PHONON       : 11m13.20s CPU    12m 9.27s WALL



     Representation #  1 mode #   1

     Self-consistent Calculation

      iter #   1 total cpu time :   733.9 secs   av.it.:   5.5
      thresh= 1.000E-02 alpha_mix =  0.700 |ddv_scf|^2 =  1.144E-05

      iter #   2 total cpu time :   739.1 secs   av.it.:   7.7
      thresh= 3.383E-04 alpha_mix =  0.700 |ddv_scf|^2 =  1.684E-07

      iter #   3 total cpu time :   744.5 secs   av.it.:   7.8
      thresh= 4.104E-05 alpha_mix =  0.700 |ddv_scf|^2 =  1.024E-08

      iter #   4 total cpu time :   749.4 secs   av.it.:   7.3
      thresh= 1.012E-05 alpha_mix =  0.700 |ddv_scf|^2 =  3.332E-11

      iter #   5 total cpu time :   754.6 secs   av.it.:   7.6
      thresh= 5.772E-07 alpha_mix =  0.700 |ddv_scf|^2 =  3.207E-14

      iter #   6 total cpu time :   759.4 secs   av.it.:   6.8
      thresh= 1.791E-08 alpha_mix =  0.700 |ddv_scf|^2 =  2.102E-15

      iter #   7 total cpu time :   764.6 secs   av.it.:   7.5
      thresh= 4.585E-09 alpha_mix =  0.700 |ddv_scf|^2 =  1.926E-18

     End of self-consistent calculation

     Convergence has been achieved 


     Representation #  2 mode #   2

     Self-consistent Calculation

      iter #   1 total cpu time :   769.2 secs   av.it.:   5.5
      thresh= 1.000E-02 alpha_mix =  0.700 |ddv_scf|^2 =  1.004E-05

      iter #   2 total cpu time :   774.5 secs   av.it.:   7.7
      thresh= 3.168E-04 alpha_mix =  0.700 |ddv_scf|^2 =  1.693E-07

      iter #   3 total cpu time :   779.7 secs   av.it.:   7.9
      thresh= 4.114E-05 alpha_mix =  0.700 |ddv_scf|^2 =  5.167E-09

      iter #   4 total cpu time :   784.6 secs   av.it.:   7.2
      thresh= 7.188E-06 alpha_mix =  0.700 |ddv_scf|^2 =  1.617E-11

      iter #   5 total cpu time :   789.8 secs   av.it.:   7.6
      thresh= 4.021E-07 alpha_mix =  0.700 |ddv_scf|^2 =  1.965E-14

      iter #   6 total cpu time :   794.7 secs   av.it.:   7.2
      thresh= 1.402E-08 alpha_mix =  0.700 |ddv_scf|^2 =  6.715E-16

      iter #   7 total cpu time :   799.8 secs   av.it.:   7.6
      thresh= 2.591E-09 alpha_mix =  0.700 |ddv_scf|^2 =  3.967E-19

     End of self-consistent calculation

     Convergence has been achieved 


     Representation #  3 mode #   3

     Self-consistent Calculation

      iter #   1 total cpu time :   804.8 secs   av.it.:   5.7
      thresh= 1.000E-02 alpha_mix =  0.700 |ddv_scf|^2 =  8.601E-05

      iter #   2 total cpu time :   809.7 secs   av.it.:   6.8
      thresh= 9.274E-04 alpha_mix =  0.700 |ddv_scf|^2 =  4.293E-05

      iter #   3 total cpu time :   814.5 secs   av.it.:   6.7
      thresh= 6.552E-04 alpha_mix =  0.700 |ddv_scf|^2 =  6.682E-08

      iter #   4 total cpu time :   819.8 secs   av.it.:   7.8
      thresh= 2.585E-05 alpha_mix =  0.700 |ddv_scf|^2 =  2.319E-10

      iter #   5 total cpu time :   824.5 secs   av.it.:   6.7
      thresh= 1.523E-06 alpha_mix =  0.700 |ddv_scf|^2 =  4.461E-12

      iter #   6 total cpu time :   829.2 secs   av.it.:   6.8
      thresh= 2.112E-07 alpha_mix =  0.700 |ddv_scf|^2 =  1.512E-14

      iter #   7 total cpu time :   834.3 secs   av.it.:   7.3
      thresh= 1.229E-08 alpha_mix =  0.700 |ddv_scf|^2 =  4.480E-17

     End of self-consistent calculation

     Convergence has been achieved 

     Number of q in the star =    6
     List of q in the star:
          1   0.000000000   0.500000000  -0.500000000
          2  -0.500000000  -0.500000000   0.000000000
          3   0.500000000  -0.500000000   0.000000000
          4   0.500000000   0.000000000   0.500000000
          5   0.000000000  -0.500000000  -0.500000000
          6   0.500000000   0.000000000  -0.500000000

     Diagonalizing the dynamical matrix

     q = (    0.000000000   0.500000000  -0.500000000 ) 

 **************************************************************************
     freq (    1) =       1.051432 [THz] =      35.071990 [cm-1]
     freq (    2) =       2.847170 [THz] =      94.971355 [cm-1]
     freq (    3) =       4.521814 [THz] =     150.831481 [cm-1]
 **************************************************************************

     Mode symmetry, D_2h (mmm)  point group:

     freq (  1 -  1) =         35.1  [cm-1]   --> B_2u               
     freq (  2 -  2) =         95.0  [cm-1]   --> B_1u               
     freq (  3 -  3) =        150.8  [cm-1]   --> B_3u               

     Calculation of q =   -0.1666667  -0.1666667   0.3333333

   Info: using nr1, nr2, nr3 values from input

   Info: using nr1, nr2, nr3 values from input

     Parallelization info
     --------------------
     sticks:   dense  smooth     PW     G-vecs:    dense   smooth      PW
     Min          65      33     11                 1365      487      96
     Max          66      34     12                 1368      489      98
     Sum        1051     535    181                21865     7803    1553



     bravais-lattice index     =            3
     lattice parameter (alat)  =       7.6800  a.u.
     unit-cell volume          =     226.4924 (a.u.)^3
     number of atoms/cell      =            1
     number of atomic types    =            1
     number of electrons       =         9.00
     number of Kohn-Sham states=            9
     kinetic-energy cutoff     =      40.0000  Ry
     charge density cutoff     =     320.0000  Ry
     Exchange-correlation      = SLA  PW   PBE  PBE ( 1  4  3  4 0 0)

     celldm(1)=   7.680000  celldm(2)=   0.000000  celldm(3)=   0.000000
     celldm(4)=   0.000000  celldm(5)=   0.000000  celldm(6)=   0.000000

     crystal axes: (cart. coord. in units of alat)
               a(1) = (   0.500000   0.500000   0.500000 )  
               a(2) = (  -0.500000   0.500000   0.500000 )  
               a(3) = (  -0.500000  -0.500000   0.500000 )  

     reciprocal axes: (cart. coord. in units 2 pi/alat)
               b(1) = (  1.000000  0.000000  1.000000 )  
               b(2) = ( -1.000000  1.000000  0.000000 )  
               b(3) = (  0.000000 -1.000000  1.000000 )  


     PseudoPot. # 1 for Na read from file:
     /home/s1333534/quantum_espresso/qe-6.1/pseudo/Na_pbe_v1.uspp.F.UPF
     MD5 check sum: 76a99c7e9422403d3e93cbc85ab7bccb
     Pseudo is Ultrasoft, Zval =  9.0
     Generated by new atomic code, or converted to UPF format
     Using radial grid of  819 points,  5 beta functions with: 
                l(1) =   0
                l(2) =   0
                l(3) =   1
                l(4) =   1
                l(5) =   2
     Q(r) pseudized with  8 coefficients,  rinner =    1.250   1.250   1.250
                                                       1.250   1.250

     atomic species   valence    mass     pseudopotential
        Na             9.00    22.99000     Na( 1.00)

     48 Sym. Ops., with inversion, found



   Cartesian axes

     site n.     atom                  positions (alat units)
         1           Na  tau(   1) = (   0.0000000   0.0000000   0.0000000  )

     number of k points=  8400  Marzari-Vanderbilt smearing, width (Ry)=  0.0200

     Number of k-points >= 100: set verbosity='high' to print them.

     Dense  grid:    21865 G-vectors     FFT dimensions: (  40,  40,  40)

     Smooth grid:     7803 G-vectors     FFT dimensions: (  27,  27,  27)

     Estimated max dynamical RAM per process >       0.75MB

     Estimated total allocated dynamical RAM >      48.04MB

     The potential is recalculated from file :
     ./_ph0/na.bcc.save/charge-density.dat

     Starting wfc are    5 atomic +    4 random wfc

     Band Structure Calculation
     Davidson diagonalization with overlap

     ethr =  1.11E-10,  avg # of iterations = 20.4

     total cpu time spent up to now is      341.4 secs

     End of band structure calculation

     Number of k-points >= 100: set verbosity='high' to print the bands.

     the Fermi energy is     2.0425 ev

     Writing output data file na.bcc.save

                                                                                

     bravais-lattice index     =            3
     lattice parameter (alat)  =       7.6800  a.u.
     unit-cell volume          =     226.4924 (a.u.)^3
     number of atoms/cell      =            1
     number of atomic types    =            1
     kinetic-energy cut-off    =      40.0000  Ry
     charge density cut-off    =     320.0000  Ry
     convergence threshold     =      1.0E-16
     beta                      =       0.7000
     number of iterations used =            4
     Exchange-correlation      = SLA  PW   PBE  PBE ( 1  4  3  4 0 0)


     celldm(1)=    7.68000  celldm(2)=    0.00000  celldm(3)=    0.00000
     celldm(4)=    0.00000  celldm(5)=    0.00000  celldm(6)=    0.00000

     crystal axes: (cart. coord. in units of alat)
               a(1) = (  0.5000  0.5000  0.5000 )  
               a(2) = ( -0.5000  0.5000  0.5000 )  
               a(3) = ( -0.5000 -0.5000  0.5000 )  

     reciprocal axes: (cart. coord. in units 2 pi/alat)
               b(1) = (  1.0000  0.0000  1.0000 )  
               b(2) = ( -1.0000  1.0000  0.0000 )  
               b(3) = (  0.0000 -1.0000  1.0000 )  


     Atoms inside the unit cell: 

     Cartesian axes

     site n.  atom      mass           positions (alat units)
        1     Na  22.9900   tau(    1) = (    0.00000    0.00000    0.00000  )

     Computing dynamical matrix for 
                    q = (  -0.1666667  -0.1666667   0.3333333 )

      2 Sym.Ops. (no q -> -q+G )


     G cutoff =  478.0933  (   1368 G-vectors)     FFT grid: ( 40, 40, 40)
     G cutoff =  239.0467  (    489 G-vectors)  smooth grid: ( 27, 27, 27)

     number of k points=  8400  Marzari-Vanderbilt smearing, width (Ry)=  0.0200

     PseudoPot. # 1 for Na read from file:
     /home/s1333534/quantum_espresso/qe-6.1/pseudo/Na_pbe_v1.uspp.F.UPF
     MD5 check sum: 76a99c7e9422403d3e93cbc85ab7bccb
     Pseudo is Ultrasoft, Zval =  9.0
     Generated by new atomic code, or converted to UPF format
     Using radial grid of  819 points,  5 beta functions with: 
                l(1) =   0
                l(2) =   0
                l(3) =   1
                l(4) =   1
                l(5) =   2
     Q(r) pseudized with  8 coefficients,  rinner =    1.250   1.250   1.250
                                                       1.250   1.250

     Mode symmetry, C_s (m)     point group:


     Atomic displacements:
     There are   3 irreducible representations

     Representation     1      1 modes -A'  To be done

     Representation     2      1 modes -A'  To be done

     Representation     3      1 modes -A''  To be done



     Alpha used in Ewald sum =   2.8000
     PHONON       : 15m25.54s CPU    16m37.68s WALL



     Representation #  1 mode #   1

     Self-consistent Calculation

      iter #   1 total cpu time :  1013.5 secs   av.it.:   5.6
      thresh= 1.000E-02 alpha_mix =  0.700 |ddv_scf|^2 =  1.056E-04

      iter #   2 total cpu time :  1030.8 secs   av.it.:   7.3
      thresh= 1.027E-03 alpha_mix =  0.700 |ddv_scf|^2 =  1.119E-03

      iter #   3 total cpu time :  1044.8 secs   av.it.:   5.5
      thresh= 3.345E-03 alpha_mix =  0.700 |ddv_scf|^2 =  1.383E-07

      iter #   4 total cpu time :  1063.3 secs   av.it.:   8.3
      thresh= 3.719E-05 alpha_mix =  0.700 |ddv_scf|^2 =  5.538E-09

      iter #   5 total cpu time :  1080.9 secs   av.it.:   7.9
      thresh= 7.442E-06 alpha_mix =  0.700 |ddv_scf|^2 =  1.654E-10

      iter #   6 total cpu time :  1099.4 secs   av.it.:   8.2
      thresh= 1.286E-06 alpha_mix =  0.700 |ddv_scf|^2 =  1.786E-11

      iter #   7 total cpu time :  1117.8 secs   av.it.:   7.9
      thresh= 4.226E-07 alpha_mix =  0.700 |ddv_scf|^2 =  3.374E-11

      iter #   8 total cpu time :  1134.6 secs   av.it.:   7.3
      thresh= 5.808E-07 alpha_mix =  0.700 |ddv_scf|^2 =  3.029E-11

      iter #   9 total cpu time :  1151.0 secs   av.it.:   6.9
      thresh= 5.503E-07 alpha_mix =  0.700 |ddv_scf|^2 =  1.013E-12

      iter #  10 total cpu time :  1167.9 secs   av.it.:   7.1
      thresh= 1.006E-07 alpha_mix =  0.700 |ddv_scf|^2 =  3.772E-15

      iter #  11 total cpu time :  1186.5 secs   av.it.:   8.3
      thresh= 6.142E-09 alpha_mix =  0.700 |ddv_scf|^2 =  1.832E-16

      iter #  12 total cpu time :  1204.0 secs   av.it.:   7.7
      thresh= 1.353E-09 alpha_mix =  0.700 |ddv_scf|^2 =  1.105E-17

     End of self-consistent calculation

     Convergence has been achieved 


     Representation #  2 mode #   2

     Self-consistent Calculation

      iter #   1 total cpu time :  1220.9 secs   av.it.:   5.8
      thresh= 1.000E-02 alpha_mix =  0.700 |ddv_scf|^2 =  8.612E-04

      iter #   2 total cpu time :  1237.0 secs   av.it.:   6.7
      thresh= 2.935E-03 alpha_mix =  0.700 |ddv_scf|^2 =  9.954E-03

      iter #   3 total cpu time :  1251.2 secs   av.it.:   5.4
      thresh= 9.977E-03 alpha_mix =  0.700 |ddv_scf|^2 =  9.270E-07

      iter #   4 total cpu time :  1268.7 secs   av.it.:   7.7
      thresh= 9.628E-05 alpha_mix =  0.700 |ddv_scf|^2 =  6.137E-09

      iter #   5 total cpu time :  1287.2 secs   av.it.:   8.2
      thresh= 7.834E-06 alpha_mix =  0.700 |ddv_scf|^2 =  6.259E-10

      iter #   6 total cpu time :  1305.7 secs   av.it.:   8.2
      thresh= 2.502E-06 alpha_mix =  0.700 |ddv_scf|^2 =  1.660E-11

      iter #   7 total cpu time :  1324.3 secs   av.it.:   8.2
      thresh= 4.074E-07 alpha_mix =  0.700 |ddv_scf|^2 =  1.181E-11

      iter #   8 total cpu time :  1340.3 secs   av.it.:   6.7
      thresh= 3.437E-07 alpha_mix =  0.700 |ddv_scf|^2 =  6.422E-12

      iter #   9 total cpu time :  1357.4 secs   av.it.:   7.1
      thresh= 2.534E-07 alpha_mix =  0.700 |ddv_scf|^2 =  2.562E-13

      iter #  10 total cpu time :  1374.0 secs   av.it.:   7.1
      thresh= 5.062E-08 alpha_mix =  0.700 |ddv_scf|^2 =  9.714E-14

      iter #  11 total cpu time :  1390.9 secs   av.it.:   7.2
      thresh= 3.117E-08 alpha_mix =  0.700 |ddv_scf|^2 =  1.133E-16

      iter #  12 total cpu time :  1409.2 secs   av.it.:   7.7
      thresh= 1.064E-09 alpha_mix =  0.700 |ddv_scf|^2 =  5.741E-18

     End of self-consistent calculation

     Convergence has been achieved 


     Representation #  3 mode #   3

     Self-consistent Calculation

      iter #   1 total cpu time :  1425.3 secs   av.it.:   5.5
      thresh= 1.000E-02 alpha_mix =  0.700 |ddv_scf|^2 =  1.149E-05

      iter #   2 total cpu time :  1443.2 secs   av.it.:   7.8
      thresh= 3.390E-04 alpha_mix =  0.700 |ddv_scf|^2 =  1.649E-07

      iter #   3 total cpu time :  1461.4 secs   av.it.:   8.0
      thresh= 4.061E-05 alpha_mix =  0.700 |ddv_scf|^2 =  8.737E-09

      iter #   4 total cpu time :  1479.2 secs   av.it.:   7.7
      thresh= 9.347E-06 alpha_mix =  0.700 |ddv_scf|^2 =  6.976E-11

      iter #   5 total cpu time :  1496.6 secs   av.it.:   7.5
      thresh= 8.352E-07 alpha_mix =  0.700 |ddv_scf|^2 =  5.922E-14

      iter #   6 total cpu time :  1513.7 secs   av.it.:   7.5
      thresh= 2.434E-08 alpha_mix =  0.700 |ddv_scf|^2 =  2.957E-15

      iter #   7 total cpu time :  1531.5 secs   av.it.:   7.5
      thresh= 5.438E-09 alpha_mix =  0.700 |ddv_scf|^2 =  1.104E-17

     End of self-consistent calculation

     Convergence has been achieved 

     Number of q in the star =   24
     List of q in the star:
          1  -0.166666667  -0.166666667   0.333333333
          2  -0.166666667  -0.333333333   0.166666667
          3   0.166666667  -0.333333333   0.166666667
          4  -0.166666667   0.333333333  -0.166666667
          5   0.166666667   0.333333333  -0.166666667
          6   0.166666667   0.166666667  -0.333333333
          7  -0.166666667   0.166666667  -0.333333333
          8   0.333333333   0.166666667  -0.166666667
          9  -0.333333333   0.166666667   0.166666667
         10   0.333333333  -0.166666667   0.166666667
         11  -0.333333333  -0.166666667  -0.166666667
         12  -0.166666667  -0.166666667  -0.333333333
         13  -0.166666667   0.333333333   0.166666667
         14  -0.166666667  -0.333333333  -0.166666667
         15  -0.166666667   0.166666667   0.333333333
         16   0.166666667  -0.166666667   0.333333333
         17   0.166666667  -0.333333333  -0.166666667
         18  -0.333333333   0.166666667  -0.166666667
         19   0.333333333   0.166666667   0.166666667
         20  -0.333333333  -0.166666667   0.166666667
         21   0.333333333  -0.166666667  -0.166666667
         22   0.166666667  -0.166666667  -0.333333333
         23   0.166666667   0.166666667   0.333333333
         24   0.166666667   0.333333333   0.166666667

     Diagonalizing the dynamical matrix

     q = (   -0.166666667  -0.166666667   0.333333333 ) 

 **************************************************************************
     freq (    1) =       1.405230 [THz] =      46.873435 [cm-1]
     freq (    2) =       2.213966 [THz] =      73.849956 [cm-1]
     freq (    3) =       3.498714 [THz] =     116.704552 [cm-1]
 **************************************************************************

     Mode symmetry, C_s (m)     point group:

     freq (  1 -  1) =         46.9  [cm-1]   --> A'                 
     freq (  2 -  2) =         73.8  [cm-1]   --> A''                
     freq (  3 -  3) =        116.7  [cm-1]   --> A'                 

     Calculation of q =   -0.1666667   0.6666667  -0.5000000

   Info: using nr1, nr2, nr3 values from input

   Info: using nr1, nr2, nr3 values from input

     Parallelization info
     --------------------
     sticks:   dense  smooth     PW     G-vecs:    dense   smooth      PW
     Min          65      33     12                 1365      487     115
     Max          66      34     13                 1368      489     118
     Sum        1051     535    205                21865     7803    1865



     bravais-lattice index     =            3
     lattice parameter (alat)  =       7.6800  a.u.
     unit-cell volume          =     226.4924 (a.u.)^3
     number of atoms/cell      =            1
     number of atomic types    =            1
     number of electrons       =         9.00
     number of Kohn-Sham states=            9
     kinetic-energy cutoff     =      40.0000  Ry
     charge density cutoff     =     320.0000  Ry
     Exchange-correlation      = SLA  PW   PBE  PBE ( 1  4  3  4 0 0)

     celldm(1)=   7.680000  celldm(2)=   0.000000  celldm(3)=   0.000000
     celldm(4)=   0.000000  celldm(5)=   0.000000  celldm(6)=   0.000000

     crystal axes: (cart. coord. in units of alat)
               a(1) = (   0.500000   0.500000   0.500000 )  
               a(2) = (  -0.500000   0.500000   0.500000 )  
               a(3) = (  -0.500000  -0.500000   0.500000 )  

     reciprocal axes: (cart. coord. in units 2 pi/alat)
               b(1) = (  1.000000  0.000000  1.000000 )  
               b(2) = ( -1.000000  1.000000  0.000000 )  
               b(3) = (  0.000000 -1.000000  1.000000 )  


     PseudoPot. # 1 for Na read from file:
     /home/s1333534/quantum_espresso/qe-6.1/pseudo/Na_pbe_v1.uspp.F.UPF
     MD5 check sum: 76a99c7e9422403d3e93cbc85ab7bccb
     Pseudo is Ultrasoft, Zval =  9.0
     Generated by new atomic code, or converted to UPF format
     Using radial grid of  819 points,  5 beta functions with: 
                l(1) =   0
                l(2) =   0
                l(3) =   1
                l(4) =   1
                l(5) =   2
     Q(r) pseudized with  8 coefficients,  rinner =    1.250   1.250   1.250
                                                       1.250   1.250

     atomic species   valence    mass     pseudopotential
        Na             9.00    22.99000     Na( 1.00)

     48 Sym. Ops., with inversion, found



   Cartesian axes

     site n.     atom                  positions (alat units)
         1           Na  tau(   1) = (   0.0000000   0.0000000   0.0000000  )

     number of k points= 16000  Marzari-Vanderbilt smearing, width (Ry)=  0.0200

     Number of k-points >= 100: set verbosity='high' to print them.

     Dense  grid:    21865 G-vectors     FFT dimensions: (  40,  40,  40)

     Smooth grid:     7803 G-vectors     FFT dimensions: (  27,  27,  27)

     Estimated max dynamical RAM per process >       0.75MB

     Estimated total allocated dynamical RAM >      48.04MB

     The potential is recalculated from file :
     ./_ph0/na.bcc.save/charge-density.dat

     Starting wfc are    5 atomic +    4 random wfc

     Band Structure Calculation
     Davidson diagonalization with overlap

     ethr =  1.11E-10,  avg # of iterations = 20.3

     total cpu time spent up to now is      620.6 secs

     End of band structure calculation

     Number of k-points >= 100: set verbosity='high' to print the bands.

     the Fermi energy is     2.0425 ev

     Writing output data file na.bcc.save

                                                                                

     bravais-lattice index     =            3
     lattice parameter (alat)  =       7.6800  a.u.
     unit-cell volume          =     226.4924 (a.u.)^3
     number of atoms/cell      =            1
     number of atomic types    =            1
     kinetic-energy cut-off    =      40.0000  Ry
     charge density cut-off    =     320.0000  Ry
     convergence threshold     =      1.0E-16
     beta                      =       0.7000
     number of iterations used =            4
     Exchange-correlation      = SLA  PW   PBE  PBE ( 1  4  3  4 0 0)


     celldm(1)=    7.68000  celldm(2)=    0.00000  celldm(3)=    0.00000
     celldm(4)=    0.00000  celldm(5)=    0.00000  celldm(6)=    0.00000

     crystal axes: (cart. coord. in units of alat)
               a(1) = (  0.5000  0.5000  0.5000 )  
               a(2) = ( -0.5000  0.5000  0.5000 )  
               a(3) = ( -0.5000 -0.5000  0.5000 )  

     reciprocal axes: (cart. coord. in units 2 pi/alat)
               b(1) = (  1.0000  0.0000  1.0000 )  
               b(2) = ( -1.0000  1.0000  0.0000 )  
               b(3) = (  0.0000 -1.0000  1.0000 )  


     Atoms inside the unit cell: 

     Cartesian axes

     site n.  atom      mass           positions (alat units)
        1     Na  22.9900   tau(    1) = (    0.00000    0.00000    0.00000  )

     Computing dynamical matrix for 
                    q = (  -0.1666667   0.6666667  -0.5000000 )

     No symmetry!

     G cutoff =  478.0933  (   1368 G-vectors)     FFT grid: ( 40, 40, 40)
     G cutoff =  239.0467  (    489 G-vectors)  smooth grid: ( 27, 27, 27)

     number of k points= 16000  Marzari-Vanderbilt smearing, width (Ry)=  0.0200

     PseudoPot. # 1 for Na read from file:
     /home/s1333534/quantum_espresso/qe-6.1/pseudo/Na_pbe_v1.uspp.F.UPF
     MD5 check sum: 76a99c7e9422403d3e93cbc85ab7bccb
     Pseudo is Ultrasoft, Zval =  9.0
     Generated by new atomic code, or converted to UPF format
     Using radial grid of  819 points,  5 beta functions with: 
                l(1) =   0
                l(2) =   0
                l(3) =   1
                l(4) =   1
                l(5) =   2
     Q(r) pseudized with  8 coefficients,  rinner =    1.250   1.250   1.250
                                                       1.250   1.250

     Mode symmetry, C_1 (1)     point group:


     Atomic displacements:
     There are   3 irreducible representations

     Representation     1      1 modes -A  To be done

     Representation     2      1 modes -A  To be done

     Representation     3      1 modes -A  To be done



     Alpha used in Ewald sum =   2.8000
     PHONON       : 28m32.47s CPU    30m49.30s WALL



     Representation #  1 mode #   1

     Self-consistent Calculation

      iter #   1 total cpu time :  1881.0 secs   av.it.:   5.7
      thresh= 1.000E-02 alpha_mix =  0.700 |ddv_scf|^2 =  1.257E-05

      iter #   2 total cpu time :  1918.0 secs   av.it.:   8.1
      thresh= 3.546E-04 alpha_mix =  0.700 |ddv_scf|^2 =  1.523E-06

      iter #   3 total cpu time :  1953.6 secs   av.it.:   7.6
      thresh= 1.234E-04 alpha_mix =  0.700 |ddv_scf|^2 =  6.953E-07

      iter #   4 total cpu time :  1987.5 secs   av.it.:   7.3
      thresh= 8.338E-05 alpha_mix =  0.700 |ddv_scf|^2 =  4.614E-09

      iter #   5 total cpu time :  2023.2 secs   av.it.:   7.9
      thresh= 6.793E-06 alpha_mix =  0.700 |ddv_scf|^2 =  3.763E-10

      iter #   6 total cpu time :  2059.3 secs   av.it.:   7.9
      thresh= 1.940E-06 alpha_mix =  0.700 |ddv_scf|^2 =  4.268E-12

      iter #   7 total cpu time :  2096.9 secs   av.it.:   8.4
      thresh= 2.066E-07 alpha_mix =  0.700 |ddv_scf|^2 =  2.602E-13

      iter #   8 total cpu time :  2134.5 secs   av.it.:   8.5
      thresh= 5.101E-08 alpha_mix =  0.700 |ddv_scf|^2 =  1.315E-14

      iter #   9 total cpu time :  2171.7 secs   av.it.:   8.4
      thresh= 1.147E-08 alpha_mix =  0.700 |ddv_scf|^2 =  2.509E-16

      iter #  10 total cpu time :  2207.1 secs   av.it.:   7.6
      thresh= 1.584E-09 alpha_mix =  0.700 |ddv_scf|^2 =  1.345E-16

      iter #  11 total cpu time :  2240.9 secs   av.it.:   7.3
      thresh= 1.160E-09 alpha_mix =  0.700 |ddv_scf|^2 =  2.166E-18

     End of self-consistent calculation

     Convergence has been achieved 


     Representation #  2 mode #   2

     Self-consistent Calculation

      iter #   1 total cpu time :  2274.3 secs   av.it.:   5.8
      thresh= 1.000E-02 alpha_mix =  0.700 |ddv_scf|^2 =  5.260E-05

      iter #   2 total cpu time :  2310.2 secs   av.it.:   7.6
      thresh= 7.252E-04 alpha_mix =  0.700 |ddv_scf|^2 =  4.585E-05

      iter #   3 total cpu time :  2342.9 secs   av.it.:   7.0
      thresh= 6.771E-04 alpha_mix =  0.700 |ddv_scf|^2 =  9.389E-08

      iter #   4 total cpu time :  2380.1 secs   av.it.:   8.3
      thresh= 3.064E-05 alpha_mix =  0.700 |ddv_scf|^2 =  3.956E-09

      iter #   5 total cpu time :  2417.6 secs   av.it.:   8.3
      thresh= 6.289E-06 alpha_mix =  0.700 |ddv_scf|^2 =  3.158E-10

      iter #   6 total cpu time :  2454.8 secs   av.it.:   8.3
      thresh= 1.777E-06 alpha_mix =  0.700 |ddv_scf|^2 =  9.658E-12

      iter #   7 total cpu time :  2490.8 secs   av.it.:   7.8
      thresh= 3.108E-07 alpha_mix =  0.700 |ddv_scf|^2 =  5.661E-13

      iter #   8 total cpu time :  2527.1 secs   av.it.:   7.9
      thresh= 7.524E-08 alpha_mix =  0.700 |ddv_scf|^2 =  1.704E-14

      iter #   9 total cpu time :  2561.9 secs   av.it.:   7.5
      thresh= 1.305E-08 alpha_mix =  0.700 |ddv_scf|^2 =  1.444E-15

      iter #  10 total cpu time :  2596.0 secs   av.it.:   7.4
      thresh= 3.801E-09 alpha_mix =  0.700 |ddv_scf|^2 =  3.580E-17

     End of self-consistent calculation

     Convergence has been achieved 


     Representation #  3 mode #   3

     Self-consistent Calculation

      iter #   1 total cpu time :  2629.6 secs   av.it.:   5.8
      thresh= 1.000E-02 alpha_mix =  0.700 |ddv_scf|^2 =  5.880E-05

      iter #   2 total cpu time :  2665.3 secs   av.it.:   7.6
      thresh= 7.668E-04 alpha_mix =  0.700 |ddv_scf|^2 =  4.608E-05

      iter #   3 total cpu time :  2698.0 secs   av.it.:   6.9
      thresh= 6.788E-04 alpha_mix =  0.700 |ddv_scf|^2 =  3.240E-07

      iter #   4 total cpu time :  2733.6 secs   av.it.:   7.7
      thresh= 5.692E-05 alpha_mix =  0.700 |ddv_scf|^2 =  7.699E-09

      iter #   5 total cpu time :  2770.5 secs   av.it.:   8.3
      thresh= 8.775E-06 alpha_mix =  0.700 |ddv_scf|^2 =  2.166E-10

      iter #   6 total cpu time :  2807.8 secs   av.it.:   8.3
      thresh= 1.472E-06 alpha_mix =  0.700 |ddv_scf|^2 =  1.609E-11

      iter #   7 total cpu time :  2844.9 secs   av.it.:   8.3
      thresh= 4.012E-07 alpha_mix =  0.700 |ddv_scf|^2 =  8.571E-13

      iter #   8 total cpu time :  2882.2 secs   av.it.:   8.4
      thresh= 9.258E-08 alpha_mix =  0.700 |ddv_scf|^2 =  5.425E-14

      iter #   9 total cpu time :  2917.6 secs   av.it.:   7.5
      thresh= 2.329E-08 alpha_mix =  0.700 |ddv_scf|^2 =  4.022E-15

      iter #  10 total cpu time :  2952.9 secs   av.it.:   7.7
      thresh= 6.342E-09 alpha_mix =  0.700 |ddv_scf|^2 =  6.056E-17

     End of self-consistent calculation

     Convergence has been achieved 

     Number of q in the star =   48
     List of q in the star:
          1  -0.166666667   0.666666667  -0.500000000
          2   0.666666667  -0.166666667  -0.500000000
          3  -0.166666667   0.500000000  -0.666666667
          4   0.166666667   0.500000000  -0.666666667
          5  -0.166666667  -0.500000000   0.666666667
          6   0.166666667  -0.500000000   0.666666667
          7   0.166666667  -0.666666667   0.500000000
          8  -0.166666667  -0.666666667   0.500000000
          9  -0.500000000  -0.666666667  -0.166666667
         10   0.500000000  -0.666666667   0.166666667
         11  -0.500000000   0.666666667   0.166666667
         12   0.500000000   0.666666667  -0.166666667
         13   0.666666667  -0.166666667   0.500000000
         14   0.666666667  -0.500000000  -0.166666667
         15  -0.166666667  -0.500000000  -0.666666667
         16  -0.166666667   0.500000000   0.666666667
         17   0.666666667   0.166666667  -0.500000000
         18   0.166666667   0.666666667  -0.500000000
         19   0.666666667   0.500000000   0.166666667
         20  -0.666666667   0.500000000  -0.166666667
         21   0.500000000   0.166666667   0.666666667
         22  -0.500000000   0.166666667  -0.666666667
         23   0.500000000   0.666666667   0.166666667
         24   0.500000000  -0.166666667  -0.666666667
         25  -0.666666667   0.166666667   0.500000000
         26  -0.166666667   0.666666667   0.500000000
         27  -0.500000000  -0.166666667   0.666666667
         28   0.166666667   0.666666667   0.500000000
         29  -0.500000000   0.666666667  -0.166666667
         30  -0.666666667  -0.166666667  -0.500000000
         31  -0.666666667  -0.166666667   0.500000000
         32   0.666666667   0.166666667   0.500000000
         33   0.166666667  -0.666666667  -0.500000000
         34  -0.666666667   0.166666667  -0.500000000
         35   0.500000000  -0.666666667  -0.166666667
         36  -0.500000000  -0.666666667   0.166666667
         37  -0.166666667  -0.666666667  -0.500000000
         38  -0.666666667  -0.500000000   0.166666667
         39   0.166666667   0.500000000   0.666666667
         40   0.166666667  -0.500000000  -0.666666667
         41  -0.666666667   0.500000000   0.166666667
         42   0.666666667   0.500000000  -0.166666667
         43  -0.666666667  -0.500000000  -0.166666667
         44   0.666666667  -0.500000000   0.166666667
         45   0.500000000   0.166666667  -0.666666667
         46   0.500000000  -0.166666667   0.666666667
         47  -0.500000000  -0.166666667  -0.666666667
         48  -0.500000000   0.166666667   0.666666667

     Diagonalizing the dynamical matrix

     q = (   -0.166666667   0.666666667  -0.500000000 ) 

 **************************************************************************
     freq (    1) =       1.686314 [THz] =      56.249369 [cm-1]
     freq (    2) =       3.067735 [THz] =     102.328638 [cm-1]
     freq (    3) =       4.287361 [THz] =     143.010970 [cm-1]
 **************************************************************************

     Mode symmetry, C_1 (1)     point group:

     freq (  1 -  1) =         56.2  [cm-1]   --> A                  
     freq (  2 -  2) =        102.3  [cm-1]   --> A                  
     freq (  3 -  3) =        143.0  [cm-1]   --> A                  

     Calculation of q =   -0.3333333   0.6666667  -0.3333333

   Info: using nr1, nr2, nr3 values from input

   Info: using nr1, nr2, nr3 values from input

     Parallelization info
     --------------------
     sticks:   dense  smooth     PW     G-vecs:    dense   smooth      PW
     Min          65      33     12                 1365      487     115
     Max          66      34     13                 1368      489     118
     Sum        1051     535    205                21865     7803    1865



     bravais-lattice index     =            3
     lattice parameter (alat)  =       7.6800  a.u.
     unit-cell volume          =     226.4924 (a.u.)^3
     number of atoms/cell      =            1
     number of atomic types    =            1
     number of electrons       =         9.00
     number of Kohn-Sham states=            9
     kinetic-energy cutoff     =      40.0000  Ry
     charge density cutoff     =     320.0000  Ry
     Exchange-correlation      = SLA  PW   PBE  PBE ( 1  4  3  4 0 0)

     celldm(1)=   7.680000  celldm(2)=   0.000000  celldm(3)=   0.000000
     celldm(4)=   0.000000  celldm(5)=   0.000000  celldm(6)=   0.000000

     crystal axes: (cart. coord. in units of alat)
               a(1) = (   0.500000   0.500000   0.500000 )  
               a(2) = (  -0.500000   0.500000   0.500000 )  
               a(3) = (  -0.500000  -0.500000   0.500000 )  

     reciprocal axes: (cart. coord. in units 2 pi/alat)
               b(1) = (  1.000000  0.000000  1.000000 )  
               b(2) = ( -1.000000  1.000000  0.000000 )  
               b(3) = (  0.000000 -1.000000  1.000000 )  


     PseudoPot. # 1 for Na read from file:
     /home/s1333534/quantum_espresso/qe-6.1/pseudo/Na_pbe_v1.uspp.F.UPF
     MD5 check sum: 76a99c7e9422403d3e93cbc85ab7bccb
     Pseudo is Ultrasoft, Zval =  9.0
     Generated by new atomic code, or converted to UPF format
     Using radial grid of  819 points,  5 beta functions with: 
                l(1) =   0
                l(2) =   0
                l(3) =   1
                l(4) =   1
                l(5) =   2
     Q(r) pseudized with  8 coefficients,  rinner =    1.250   1.250   1.250
                                                       1.250   1.250

     atomic species   valence    mass     pseudopotential
        Na             9.00    22.99000     Na( 1.00)

     48 Sym. Ops., with inversion, found



   Cartesian axes

     site n.     atom                  positions (alat units)
         1           Na  tau(   1) = (   0.0000000   0.0000000   0.0000000  )

     number of k points=  3080  Marzari-Vanderbilt smearing, width (Ry)=  0.0200

     Number of k-points >= 100: set verbosity='high' to print them.

     Dense  grid:    21865 G-vectors     FFT dimensions: (  40,  40,  40)

     Smooth grid:     7803 G-vectors     FFT dimensions: (  27,  27,  27)

     Estimated max dynamical RAM per process >       0.75MB

     Estimated total allocated dynamical RAM >      48.04MB

     The potential is recalculated from file :
     ./_ph0/na.bcc.save/charge-density.dat

     Starting wfc are    5 atomic +    4 random wfc

     Band Structure Calculation
     Davidson diagonalization with overlap

     ethr =  1.11E-10,  avg # of iterations = 20.6

     total cpu time spent up to now is      720.6 secs

     End of band structure calculation

     Number of k-points >= 100: set verbosity='high' to print the bands.

     the Fermi energy is     2.0425 ev

     Writing output data file na.bcc.save

                                                                                

     bravais-lattice index     =            3
     lattice parameter (alat)  =       7.6800  a.u.
     unit-cell volume          =     226.4924 (a.u.)^3
     number of atoms/cell      =            1
     number of atomic types    =            1
     kinetic-energy cut-off    =      40.0000  Ry
     charge density cut-off    =     320.0000  Ry
     convergence threshold     =      1.0E-16
     beta                      =       0.7000
     number of iterations used =            4
     Exchange-correlation      = SLA  PW   PBE  PBE ( 1  4  3  4 0 0)


     celldm(1)=    7.68000  celldm(2)=    0.00000  celldm(3)=    0.00000
     celldm(4)=    0.00000  celldm(5)=    0.00000  celldm(6)=    0.00000

     crystal axes: (cart. coord. in units of alat)
               a(1) = (  0.5000  0.5000  0.5000 )  
               a(2) = ( -0.5000  0.5000  0.5000 )  
               a(3) = ( -0.5000 -0.5000  0.5000 )  

     reciprocal axes: (cart. coord. in units 2 pi/alat)
               b(1) = (  1.0000  0.0000  1.0000 )  
               b(2) = ( -1.0000  1.0000  0.0000 )  
               b(3) = (  0.0000 -1.0000  1.0000 )  


     Atoms inside the unit cell: 

     Cartesian axes

     site n.  atom      mass           positions (alat units)
        1     Na  22.9900   tau(    1) = (    0.00000    0.00000    0.00000  )

     Computing dynamical matrix for 
                    q = (  -0.3333333   0.6666667  -0.3333333 )

      6 Sym.Ops. (no q -> -q+G )


     G cutoff =  478.0933  (   1368 G-vectors)     FFT grid: ( 40, 40, 40)
     G cutoff =  239.0467  (    489 G-vectors)  smooth grid: ( 27, 27, 27)

     number of k points=  3080  Marzari-Vanderbilt smearing, width (Ry)=  0.0200

     PseudoPot. # 1 for Na read from file:
     /home/s1333534/quantum_espresso/qe-6.1/pseudo/Na_pbe_v1.uspp.F.UPF
     MD5 check sum: 76a99c7e9422403d3e93cbc85ab7bccb
     Pseudo is Ultrasoft, Zval =  9.0
     Generated by new atomic code, or converted to UPF format
     Using radial grid of  819 points,  5 beta functions with: 
                l(1) =   0
                l(2) =   0
                l(3) =   1
                l(4) =   1
                l(5) =   2
     Q(r) pseudized with  8 coefficients,  rinner =    1.250   1.250   1.250
                                                       1.250   1.250

     Mode symmetry, C_3v (3m)   point group:


     Atomic displacements:
     There are   2 irreducible representations

     Representation     1      1 modes -A_1  L_1  To be done

     Representation     2      2 modes -E    L_3  To be done



     Alpha used in Ewald sum =   2.8000
     PHONON       : 46m15.87s CPU    50m16.40s WALL



     Representation #  1 mode #   1

     Self-consistent Calculation

      iter #   1 total cpu time :  3022.4 secs   av.it.:   5.4
      thresh= 1.000E-02 alpha_mix =  0.700 |ddv_scf|^2 =  1.074E-05

      iter #   2 total cpu time :  3029.4 secs   av.it.:   7.8
      thresh= 3.278E-04 alpha_mix =  0.700 |ddv_scf|^2 =  1.695E-07

      iter #   3 total cpu time :  3036.4 secs   av.it.:   8.0
      thresh= 4.117E-05 alpha_mix =  0.700 |ddv_scf|^2 =  7.650E-09

      iter #   4 total cpu time :  3043.1 secs   av.it.:   7.6
      thresh= 8.747E-06 alpha_mix =  0.700 |ddv_scf|^2 =  1.120E-10

      iter #   5 total cpu time :  3049.6 secs   av.it.:   7.3
      thresh= 1.058E-06 alpha_mix =  0.700 |ddv_scf|^2 =  3.730E-12

      iter #   6 total cpu time :  3056.8 secs   av.it.:   8.0
      thresh= 1.931E-07 alpha_mix =  0.700 |ddv_scf|^2 =  7.519E-14

      iter #   7 total cpu time :  3063.9 secs   av.it.:   8.3
      thresh= 2.742E-08 alpha_mix =  0.700 |ddv_scf|^2 =  4.499E-15

      iter #   8 total cpu time :  3071.1 secs   av.it.:   8.1
      thresh= 6.707E-09 alpha_mix =  0.700 |ddv_scf|^2 =  6.091E-17

     End of self-consistent calculation

     Convergence has been achieved 


     Representation #  2 modes #   2  3

     Self-consistent Calculation

      iter #   1 total cpu time :  3083.7 secs   av.it.:   5.6
      thresh= 1.000E-02 alpha_mix =  0.700 |ddv_scf|^2 =  8.318E-06

      iter #   2 total cpu time :  3098.0 secs   av.it.:   8.2
      thresh= 2.884E-04 alpha_mix =  0.700 |ddv_scf|^2 =  9.903E-07

      iter #   3 total cpu time :  3112.0 secs   av.it.:   7.7
      thresh= 9.951E-05 alpha_mix =  0.700 |ddv_scf|^2 =  8.248E-09

      iter #   4 total cpu time :  3126.9 secs   av.it.:   8.6
      thresh= 9.082E-06 alpha_mix =  0.700 |ddv_scf|^2 =  6.574E-11

      iter #   5 total cpu time :  3140.9 secs   av.it.:   7.9
      thresh= 8.108E-07 alpha_mix =  0.700 |ddv_scf|^2 =  7.156E-14

      iter #   6 total cpu time :  3155.1 secs   av.it.:   8.2
      thresh= 2.675E-08 alpha_mix =  0.700 |ddv_scf|^2 =  4.463E-15

      iter #   7 total cpu time :  3169.2 secs   av.it.:   8.3
      thresh= 6.680E-09 alpha_mix =  0.700 |ddv_scf|^2 =  1.471E-17

     End of self-consistent calculation

     Convergence has been achieved 

     Number of q in the star =    8
     List of q in the star:
          1  -0.333333333   0.666666667  -0.333333333
          2   0.333333333  -0.666666667   0.333333333
          3  -0.333333333  -0.666666667   0.333333333
          4  -0.333333333  -0.666666667  -0.333333333
          5  -0.333333333   0.666666667   0.333333333
          6   0.333333333   0.666666667  -0.333333333
          7  -0.666666667   0.333333333  -0.333333333
          8   0.333333333   0.666666667   0.333333333

     Diagonalizing the dynamical matrix

     q = (   -0.333333333   0.666666667  -0.333333333 ) 

 **************************************************************************
     freq (    1) =       1.999760 [THz] =      66.704823 [cm-1]
     freq (    2) =       3.927365 [THz] =     131.002796 [cm-1]
     freq (    3) =       3.927365 [THz] =     131.002796 [cm-1]
 **************************************************************************

     Mode symmetry, C_3v (3m)   point group:

     freq (  1 -  1) =         66.7  [cm-1]   --> A_1  L_1           
     freq (  2 -  3) =        131.0  [cm-1]   --> E    L_3           

     Calculation of q =    0.0000000   0.0000000   0.3333333

   Info: using nr1, nr2, nr3 values from input

   Info: using nr1, nr2, nr3 values from input

     Parallelization info
     --------------------
     sticks:   dense  smooth     PW     G-vecs:    dense   smooth      PW
     Min          65      33     10                 1365      487      91
     Max          66      34     11                 1368      489      95
     Sum        1051     535    173                21865     7803    1505



     bravais-lattice index     =            3
     lattice parameter (alat)  =       7.6800  a.u.
     unit-cell volume          =     226.4924 (a.u.)^3
     number of atoms/cell      =            1
     number of atomic types    =            1
     number of electrons       =         9.00
     number of Kohn-Sham states=            9
     kinetic-energy cutoff     =      40.0000  Ry
     charge density cutoff     =     320.0000  Ry
     Exchange-correlation      = SLA  PW   PBE  PBE ( 1  4  3  4 0 0)

     celldm(1)=   7.680000  celldm(2)=   0.000000  celldm(3)=   0.000000
     celldm(4)=   0.000000  celldm(5)=   0.000000  celldm(6)=   0.000000

     crystal axes: (cart. coord. in units of alat)
               a(1) = (   0.500000   0.500000   0.500000 )  
[...]
     G cutoff =  239.0467  (    489 G-vectors)  smooth grid: ( 27, 27, 27)

     number of k points=  4400  Marzari-Vanderbilt smearing, width (Ry)=  0.0200

     PseudoPot. # 1 for Na read from file:
     /home/s1333534/quantum_espresso/qe-6.1/pseudo/Na_pbe_v1.uspp.F.UPF
     MD5 check sum: 76a99c7e9422403d3e93cbc85ab7bccb
     Pseudo is Ultrasoft, Zval =  9.0
     Generated by new atomic code, or converted to UPF format
     Using radial grid of  819 points,  5 beta functions with: 
                l(1) =   0
                l(2) =   0
                l(3) =   1
                l(4) =   1
                l(5) =   2
     Q(r) pseudized with  8 coefficients,  rinner =    1.250   1.250   1.250
                                                       1.250   1.250

     Mode symmetry, C_2v (mm2)  point group:


     Atomic displacements:
     There are   3 irreducible representations

     Representation     1      1 modes -A_1  D_1  S_1  To be done

     Representation     2      1 modes -B_1  D_3  S_3  To be done

     Representation     3      1 modes -B_2  D_4  S_4  To be done



     Alpha used in Ewald sum =   2.8000
     PHONON       :     1h29m CPU        1h36m WALL



     Representation #  1 mode #   1

     Self-consistent Calculation

      iter #   1 total cpu time :  5810.9 secs   av.it.:   5.7
      thresh= 1.000E-02 alpha_mix =  0.700 |ddv_scf|^2 =  1.888E-05

      iter #   2 total cpu time :  5821.2 secs   av.it.:   7.9
      thresh= 4.345E-04 alpha_mix =  0.700 |ddv_scf|^2 =  8.829E-07

      iter #   3 total cpu time :  5831.1 secs   av.it.:   7.7
      thresh= 9.396E-05 alpha_mix =  0.700 |ddv_scf|^2 =  2.091E-08

      iter #   4 total cpu time :  5841.4 secs   av.it.:   8.2
      thresh= 1.446E-05 alpha_mix =  0.700 |ddv_scf|^2 =  1.344E-09

      iter #   5 total cpu time :  5851.7 secs   av.it.:   8.1
      thresh= 3.666E-06 alpha_mix =  0.700 |ddv_scf|^2 =  1.075E-10

      iter #   6 total cpu time :  5861.8 secs   av.it.:   7.9
      thresh= 1.037E-06 alpha_mix =  0.700 |ddv_scf|^2 =  6.871E-13

      iter #   7 total cpu time :  5871.9 secs   av.it.:   8.0
      thresh= 8.289E-08 alpha_mix =  0.700 |ddv_scf|^2 =  4.934E-14

      iter #   8 total cpu time :  5882.0 secs   av.it.:   8.0
      thresh= 2.221E-08 alpha_mix =  0.700 |ddv_scf|^2 =  6.946E-17

     End of self-consistent calculation

     Convergence has been achieved 


     Representation #  2 mode #   2

     Self-consistent Calculation

      iter #   1 total cpu time :  5890.9 secs   av.it.:   5.5
      thresh= 1.000E-02 alpha_mix =  0.700 |ddv_scf|^2 =  1.626E-05

      iter #   2 total cpu time :  5900.7 secs   av.it.:   7.7
      thresh= 4.033E-04 alpha_mix =  0.700 |ddv_scf|^2 =  2.122E-07

      iter #   3 total cpu time :  5910.4 secs   av.it.:   7.6
      thresh= 4.607E-05 alpha_mix =  0.700 |ddv_scf|^2 =  2.033E-08

      iter #   4 total cpu time :  5920.2 secs   av.it.:   7.7
      thresh= 1.426E-05 alpha_mix =  0.700 |ddv_scf|^2 =  8.554E-11

      iter #   5 total cpu time :  5930.0 secs   av.it.:   7.6
      thresh= 9.249E-07 alpha_mix =  0.700 |ddv_scf|^2 =  4.082E-14

      iter #   6 total cpu time :  5938.9 secs   av.it.:   7.1
      thresh= 2.020E-08 alpha_mix =  0.700 |ddv_scf|^2 =  2.911E-15

      iter #   7 total cpu time :  5948.3 secs   av.it.:   7.4
      thresh= 5.395E-09 alpha_mix =  0.700 |ddv_scf|^2 =  5.521E-18

     End of self-consistent calculation

     Convergence has been achieved 


     Representation #  3 mode #   3

     Self-consistent Calculation

      iter #   1 total cpu time :  5957.2 secs   av.it.:   5.7
      thresh= 1.000E-02 alpha_mix =  0.700 |ddv_scf|^2 =  2.758E-05

      iter #   2 total cpu time :  5967.1 secs   av.it.:   7.6
      thresh= 5.252E-04 alpha_mix =  0.700 |ddv_scf|^2 =  2.016E-06

      iter #   3 total cpu time :  5976.7 secs   av.it.:   7.3
      thresh= 1.420E-04 alpha_mix =  0.700 |ddv_scf|^2 =  2.915E-08

      iter #   4 total cpu time :  5987.1 secs   av.it.:   7.8
      thresh= 1.707E-05 alpha_mix =  0.700 |ddv_scf|^2 =  8.586E-10

      iter #   5 total cpu time :  5996.6 secs   av.it.:   7.4
      thresh= 2.930E-06 alpha_mix =  0.700 |ddv_scf|^2 =  1.468E-12

      iter #   6 total cpu time :  6006.8 secs   av.it.:   8.0
      thresh= 1.212E-07 alpha_mix =  0.700 |ddv_scf|^2 =  1.022E-14

      iter #   7 total cpu time :  6016.8 secs   av.it.:   7.9
      thresh= 1.011E-08 alpha_mix =  0.700 |ddv_scf|^2 =  1.745E-16

      iter #   8 total cpu time :  6026.7 secs   av.it.:   7.5
      thresh= 1.321E-09 alpha_mix =  0.700 |ddv_scf|^2 =  2.807E-19

     End of self-consistent calculation

     Convergence has been achieved 

     Number of q in the star =   12
     List of q in the star:
          1   0.000000000   0.833333333  -0.166666667
          2   0.000000000  -0.833333333  -0.166666667
          3   0.833333333   0.000000000  -0.166666667
          4  -0.833333333   0.000000000  -0.166666667
          5  -0.166666667  -0.833333333   0.000000000
          6   0.166666667  -0.833333333   0.000000000
          7  -0.166666667   0.833333333   0.000000000
          8   0.166666667   0.833333333   0.000000000
          9   0.833333333   0.000000000   0.166666667
         10   0.000000000   0.166666667  -0.833333333
         11   0.000000000  -0.166666667  -0.833333333
         12   0.166666667   0.000000000  -0.833333333

     Diagonalizing the dynamical matrix

     q = (    0.000000000   0.833333333  -0.166666667 ) 

 **************************************************************************
     freq (    1) =       3.577610 [THz] =     119.336220 [cm-1]
     freq (    2) =       3.894246 [THz] =     129.898048 [cm-1]
     freq (    3) =       4.258099 [THz] =     142.034885 [cm-1]
 **************************************************************************

     Mode symmetry, C_2v (mm2)  point group:

     freq (  1 -  1) =        119.3  [cm-1]   --> A_1  D_1  S_1      
     freq (  2 -  2) =        129.9  [cm-1]   --> B_1  D_3  S_3      
     freq (  3 -  3) =        142.0  [cm-1]   --> B_2  D_4  S_4      

     Calculation of q =    0.0000000   0.0000000  -1.0000000

   Info: using nr1, nr2, nr3 values from input

   Info: using nr1, nr2, nr3 values from input

     Parallelization info
     --------------------
     sticks:   dense  smooth     PW     G-vecs:    dense   smooth      PW
     Min          65      33     12                 1365      487     108
     Max          66      34     13                 1368      489     110
     Sum        1051     535    201                21865     7803    1745



     bravais-lattice index     =            3
     lattice parameter (alat)  =       7.6800  a.u.
     unit-cell volume          =     226.4924 (a.u.)^3
     number of atoms/cell      =            1
     number of atomic types    =            1
     number of electrons       =         9.00
     number of Kohn-Sham states=            9
     kinetic-energy cutoff     =      40.0000  Ry
     charge density cutoff     =     320.0000  Ry
     Exchange-correlation      = SLA  PW   PBE  PBE ( 1  4  3  4 0 0)

     celldm(1)=   7.680000  celldm(2)=   0.000000  celldm(3)=   0.000000
     celldm(4)=   0.000000  celldm(5)=   0.000000  celldm(6)=   0.000000

     crystal axes: (cart. coord. in units of alat)
               a(1) = (   0.500000   0.500000   0.500000 )  
               a(2) = (  -0.500000   0.500000   0.500000 )  
               a(3) = (  -0.500000  -0.500000   0.500000 )  

     reciprocal axes: (cart. coord. in units 2 pi/alat)
               b(1) = (  1.000000  0.000000  1.000000 )  
               b(2) = ( -1.000000  1.000000  0.000000 )  
               b(3) = (  0.000000 -1.000000  1.000000 )  


     PseudoPot. # 1 for Na read from file:
     /home/s1333534/quantum_espresso/qe-6.1/pseudo/Na_pbe_v1.uspp.F.UPF
     MD5 check sum: 76a99c7e9422403d3e93cbc85ab7bccb
     Pseudo is Ultrasoft, Zval =  9.0
     Generated by new atomic code, or converted to UPF format
     Using radial grid of  819 points,  5 beta functions with: 
                l(1) =   0
                l(2) =   0
                l(3) =   1
                l(4) =   1
                l(5) =   2
     Q(r) pseudized with  8 coefficients,  rinner =    1.250   1.250   1.250
                                                       1.250   1.250

     atomic species   valence    mass     pseudopotential
        Na             9.00    22.99000     Na( 1.00)

     48 Sym. Ops., with inversion, found



   Cartesian axes

     site n.     atom                  positions (alat units)
         1           Na  tau(   1) = (   0.0000000   0.0000000   0.0000000  )

     number of k points=   500  Marzari-Vanderbilt smearing, width (Ry)=  0.0200

     Number of k-points >= 100: set verbosity='high' to print them.

     Dense  grid:    21865 G-vectors     FFT dimensions: (  40,  40,  40)

     Smooth grid:     7803 G-vectors     FFT dimensions: (  27,  27,  27)

     Estimated max dynamical RAM per process >       0.75MB

     Estimated total allocated dynamical RAM >      48.04MB

     The potential is recalculated from file :
     ./_ph0/na.bcc.save/charge-density.dat

     Starting wfc are    5 atomic +    4 random wfc

     Band Structure Calculation
     Davidson diagonalization with overlap

     ethr =  1.11E-10,  avg # of iterations = 20.7

     total cpu time spent up to now is     1459.8 secs

     End of band structure calculation

     Number of k-points >= 100: set verbosity='high' to print the bands.

     the Fermi energy is     2.0425 ev

     Writing output data file na.bcc.save

                                                                                

     bravais-lattice index     =            3
     lattice parameter (alat)  =       7.6800  a.u.
     unit-cell volume          =     226.4924 (a.u.)^3
     number of atoms/cell      =            1
     number of atomic types    =            1
     kinetic-energy cut-off    =      40.0000  Ry
     charge density cut-off    =     320.0000  Ry
     convergence threshold     =      1.0E-16
     beta                      =       0.7000
     number of iterations used =            4
     Exchange-correlation      = SLA  PW   PBE  PBE ( 1  4  3  4 0 0)


     celldm(1)=    7.68000  celldm(2)=    0.00000  celldm(3)=    0.00000
     celldm(4)=    0.00000  celldm(5)=    0.00000  celldm(6)=    0.00000

     crystal axes: (cart. coord. in units of alat)
               a(1) = (  0.5000  0.5000  0.5000 )  
               a(2) = ( -0.5000  0.5000  0.5000 )  
               a(3) = ( -0.5000 -0.5000  0.5000 )  

     reciprocal axes: (cart. coord. in units 2 pi/alat)
               b(1) = (  1.0000  0.0000  1.0000 )  
               b(2) = ( -1.0000  1.0000  0.0000 )  
               b(3) = (  0.0000 -1.0000  1.0000 )  


     Atoms inside the unit cell: 

     Cartesian axes

     site n.  atom      mass           positions (alat units)
        1     Na  22.9900   tau(    1) = (    0.00000    0.00000    0.00000  )

     Computing dynamical matrix for 
                    q = (   0.0000000   0.0000000  -1.0000000 )

     49 Sym.Ops. (with q -> -q+G )


     G cutoff =  478.0933  (   1368 G-vectors)     FFT grid: ( 40, 40, 40)
     G cutoff =  239.0467  (    489 G-vectors)  smooth grid: ( 27, 27, 27)

     number of k points=   500  Marzari-Vanderbilt smearing, width (Ry)=  0.0200

     PseudoPot. # 1 for Na read from file:
     /home/s1333534/quantum_espresso/qe-6.1/pseudo/Na_pbe_v1.uspp.F.UPF
     MD5 check sum: 76a99c7e9422403d3e93cbc85ab7bccb
     Pseudo is Ultrasoft, Zval =  9.0
     Generated by new atomic code, or converted to UPF format
     Using radial grid of  819 points,  5 beta functions with: 
                l(1) =   0
                l(2) =   0
                l(3) =   1
                l(4) =   1
                l(5) =   2
     Q(r) pseudized with  8 coefficients,  rinner =    1.250   1.250   1.250
                                                       1.250   1.250

     Mode symmetry, O_h (m-3m)  point group:


     Atomic displacements:
     There are   1 irreducible representations

     Representation     1      3 modes -T_1u G_15  G_4-  To be done



     Alpha used in Ewald sum =   2.8000
     PHONON       :     1h32m CPU        1h40m WALL



     Representation #  1 modes #   1  2  3

     Self-consistent Calculation

      iter #   1 total cpu time :  6041.7 secs   av.it.:   5.7
      thresh= 1.000E-02 alpha_mix =  0.700 |ddv_scf|^2 =  2.018E-06

      iter #   2 total cpu time :  6046.5 secs   av.it.:   8.5
      thresh= 1.421E-04 alpha_mix =  0.700 |ddv_scf|^2 =  3.063E-08

      iter #   3 total cpu time :  6051.2 secs   av.it.:   8.3
      thresh= 1.750E-05 alpha_mix =  0.700 |ddv_scf|^2 =  2.597E-09

      iter #   4 total cpu time :  6055.9 secs   av.it.:   8.4
      thresh= 5.096E-06 alpha_mix =  0.700 |ddv_scf|^2 =  1.010E-11

      iter #   5 total cpu time :  6060.5 secs   av.it.:   8.3
      thresh= 3.179E-07 alpha_mix =  0.700 |ddv_scf|^2 =  3.491E-15

      iter #   6 total cpu time :  6064.8 secs   av.it.:   7.3
      thresh= 5.909E-09 alpha_mix =  0.700 |ddv_scf|^2 =  2.622E-16

      iter #   7 total cpu time :  6069.5 secs   av.it.:   8.0
      thresh= 1.619E-09 alpha_mix =  0.700 |ddv_scf|^2 =  3.206E-19

     End of self-consistent calculation

     Convergence has been achieved 

     Number of q in the star =    1
     List of q in the star:
          1   0.000000000   0.000000000  -1.000000000

     Diagonalizing the dynamical matrix

     q = (    0.000000000   0.000000000  -1.000000000 ) 

 **************************************************************************
     freq (    1) =       4.181521 [THz] =     139.480539 [cm-1]
     freq (    2) =       4.181521 [THz] =     139.480539 [cm-1]
     freq (    3) =       4.181521 [THz] =     139.480539 [cm-1]
 **************************************************************************

     Mode symmetry, O_h (m-3m)  point group:

     freq (  1 -  3) =        139.5  [cm-1]   --> T_1u G_15  G_4-    

     init_run     :      2.64s CPU      2.77s WALL (      15 calls)
     electrons    :   1155.39s CPU   1224.83s WALL (      15 calls)

     Called by init_run:
     wfcinit      :      0.00s CPU      0.00s WALL (      15 calls)
     potinit      :      0.69s CPU      0.71s WALL (      15 calls)

     Called by electrons:
     c_bands      :   1155.07s CPU   1224.50s WALL (      15 calls)
     v_of_rho     :      0.17s CPU      0.17s WALL (      16 calls)
     newd         :      0.16s CPU      0.16s WALL (      16 calls)

     Called by c_bands:
     init_us_2    :     22.67s CPU     24.69s WALL (  335439 calls)
     cegterg      :    886.95s CPU    949.05s WALL (   25786 calls)

     Called by sum_band:

     Called by *egterg:
     h_psi        :   3228.47s CPU   3506.62s WALL ( 3107835 calls)
     s_psi        :     91.35s CPU    100.67s WALL ( 6038905 calls)
     g_psi        :      2.89s CPU      3.13s WALL (  392934 calls)
     cdiaghg      :    247.95s CPU    264.86s WALL (  412196 calls)

     Called by h_psi:
     h_psi:pot    :   3205.06s CPU   3480.34s WALL ( 3107835 calls)
     h_psi:calbec :    177.00s CPU    190.98s WALL ( 3107835 calls)
     vloc_psi     :   2942.70s CPU   3196.60s WALL ( 3107835 calls)
     add_vuspsi   :     50.02s CPU     54.98s WALL ( 3107835 calls)

     General routines
     calbec       :    329.24s CPU    357.13s WALL ( 6581059 calls)
     fft          :      4.59s CPU      4.77s WALL (    6331 calls)
     ffts         :      4.97s CPU      5.70s WALL (   30427 calls)
     fftw         :   3232.72s CPU   3528.24s WALL (29993960 calls)
     interpolate  :      0.79s CPU      0.99s WALL (     868 calls)
     davcio       :     34.22s CPU     49.47s WALL ( 1364190 calls)

     Parallel routines
     fft_scatter  :   1355.70s CPU   1479.38s WALL (30030718 calls)

     PHONON       :     1h33m CPU        1h41m WALL

     INITIALIZATION: 
     phq_setup    :      0.62s CPU      0.67s WALL (      16 calls)
     phq_init     :     59.22s CPU     63.12s WALL (      16 calls)

     phq_init     :     59.22s CPU     63.12s WALL (      16 calls)
     init_vloc    :      0.11s CPU      0.11s WALL (      16 calls)
     init_us_1    :      1.15s CPU      1.24s WALL (      16 calls)
     newd         :      0.16s CPU      0.16s WALL (      16 calls)
     dvanqq       :      0.61s CPU      0.62s WALL (      16 calls)
     drho         :     45.58s CPU     48.68s WALL (      16 calls)

     DYNAMICAL MATRIX:
     dynmat0      :      8.49s CPU      8.90s WALL (      16 calls)
     phqscf       :   4138.32s CPU   4540.52s WALL (      16 calls)
     dynmatrix    :      0.11s CPU      0.13s WALL (      16 calls)

     phqscf       :   4138.32s CPU   4540.52s WALL (      16 calls)
     solve_linter :   4125.28s CPU   4526.15s WALL (      40 calls)
     drhodv       :     12.84s CPU     13.74s WALL (      40 calls)

     dynmat0      :      8.49s CPU      8.90s WALL (      16 calls)
     dynmat_us    :      8.44s CPU      8.84s WALL (      16 calls)
     d2ionq       :      0.01s CPU      0.01s WALL (      16 calls)

     dynmat_us    :      8.44s CPU      8.84s WALL (      16 calls)
     addusdynmat  :      0.00s CPU      0.00s WALL (      16 calls)

     phqscf       :   4138.32s CPU   4540.52s WALL (      16 calls)
     solve_linter :   4125.28s CPU   4526.15s WALL (      40 calls)

     solve_linter :   4125.28s CPU   4526.15s WALL (      40 calls)
     dvqpsi_us    :     79.97s CPU     86.14s WALL (   29082 calls)
     ortho        :     49.31s CPU     53.04s WALL (  261217 calls)
     cgsolve      :   3252.81s CPU   3552.90s WALL (  261217 calls)
     incdrhoscf   :    306.75s CPU    353.99s WALL (  261217 calls)
     addusddens   :      4.54s CPU      4.57s WALL (     380 calls)
     vpsifft      :    260.03s CPU    283.27s WALL (  232135 calls)
     dv_of_drho   :      3.40s CPU      3.46s WALL (     394 calls)
     mix_pot      :      0.67s CPU      2.50s WALL (     340 calls)
     ef_shift     :      0.03s CPU      0.04s WALL (       7 calls)
     localdos     :      0.08s CPU      0.09s WALL (       1 calls)
     psymdvscf    :     28.83s CPU     29.39s WALL (     309 calls)
     newdq        :      4.51s CPU      4.60s WALL (     340 calls)
     adddvscf     :     14.04s CPU     15.06s WALL (  232135 calls)
     drhodvus     :      0.01s CPU      0.02s WALL (      40 calls)

     dvqpsi_us    :     79.97s CPU     86.14s WALL (   29082 calls)
     dvqpsi_us_on :     13.74s CPU     14.46s WALL (   29082 calls)

     cgsolve      :   3252.81s CPU   3552.90s WALL (  261217 calls)
     ch_psi       :   3076.00s CPU   3357.67s WALL ( 2669853 calls)

     ch_psi       :   3076.00s CPU   3357.67s WALL ( 2669853 calls)
     h_psi        :   3228.47s CPU   3506.62s WALL ( 3107835 calls)
     last         :    316.46s CPU    347.12s WALL ( 2669853 calls)

     h_psi        :   3228.47s CPU   3506.62s WALL ( 3107835 calls)
     add_vuspsi   :     50.02s CPU     54.98s WALL ( 3107835 calls)

     incdrhoscf   :    306.75s CPU    353.99s WALL (  261217 calls)
     addusdbec    :     24.10s CPU     25.80s WALL (  290299 calls)

     drhodvus     :      0.01s CPU      0.02s WALL (      40 calls)

      General routines
     calbec       :    329.24s CPU    357.13s WALL ( 6581059 calls)
     fft          :      4.59s CPU      4.77s WALL (    6331 calls)
     ffts         :      4.97s CPU      5.70s WALL (   30427 calls)
     fftw         :   3232.72s CPU   3528.24s WALL (29993960 calls)
     davcio       :     34.22s CPU     49.47s WALL ( 1364190 calls)
     write_rec    :      1.22s CPU      2.77s WALL (     380 calls)


     PHONON       :     1h33m CPU        1h41m WALL


   This run was terminated on:   8:16:14   2Feb2018            

=------------------------------------------------------------------------------=
   JOB DONE.
=------------------------------------------------------------------------------=
