
     Program PWSCF v.6.1 (svn rev. 13369) starts on 20Dec2017 at 15:27:20 

     This program is part of the open-source Quantum ESPRESSO suite
     for quantum simulation of materials; please cite
         "P. Giannozzi et al., J. Phys.:Condens. Matter 21 395502 (2009);
          URL http://www.quantum-espresso.org", 
     in publications or presentations arising from this work. More details at
     http://www.quantum-espresso.org/quote

     Parallel version (MPI), running on     4 processors
     R & G space division:  proc/nbgrp/npool/nimage =       4
     Waiting for input...
     Reading input from standard input

     Current dimensions of program PWSCF are:
     Max number of different atomic species (ntypx) = 10
     Max number of k-points (npk) =  40000
     Max angular momentum in pseudopotentials (lmaxx) =  3

     Subspace diagonalization in iterative solution of the eigenvalue problem:
     a serial algorithm will be used


     Parallelization info
     --------------------
     sticks:   dense  smooth     PW     G-vecs:    dense   smooth      PW
     Min         287     142     43                 6207     2171     375
     Max         288     144     44                 6210     2172     378
     Sum        1151     571    173                24835     8685    1505



     bravais-lattice index     =            3
     lattice parameter (alat)  =       8.0000  a.u.
     unit-cell volume          =     256.0000 (a.u.)^3
     number of atoms/cell      =            1
     number of atomic types    =            1
     number of electrons       =         9.00
     number of Kohn-Sham states=            9
     kinetic-energy cutoff     =      40.0000  Ry
     charge density cutoff     =     320.0000  Ry
     convergence threshold     =      1.0E-08
     mixing beta               =       0.7000
     number of iterations used =            8  plain     mixing
     Exchange-correlation      = SLA  PW   PBE  PBE ( 1  4  3  4 0 0)
     nstep                     =           50


     celldm(1)=   8.000000  celldm(2)=   0.000000  celldm(3)=   0.000000
     celldm(4)=   0.000000  celldm(5)=   0.000000  celldm(6)=   0.000000

     crystal axes: (cart. coord. in units of alat)
               a(1) = (   0.500000   0.500000   0.500000 )  
               a(2) = (  -0.500000   0.500000   0.500000 )  
               a(3) = (  -0.500000  -0.500000   0.500000 )  

     reciprocal axes: (cart. coord. in units 2 pi/alat)
               b(1) = (  1.000000  0.000000  1.000000 )  
               b(2) = ( -1.000000  1.000000  0.000000 )  
               b(3) = (  0.000000 -1.000000  1.000000 )  


     PseudoPot. # 1 for Na read from file:
     /home/s1333534/quantum_espresso/qe-6.1/pseudo/Na_pbe_v1.uspp.F.UPF
     MD5 check sum: 76a99c7e9422403d3e93cbc85ab7bccb
     Pseudo is Ultrasoft, Zval =  9.0
     Generated by new atomic code, or converted to UPF format
     Using radial grid of  819 points,  5 beta functions with: 
                l(1) =   0
                l(2) =   0
                l(3) =   1
                l(4) =   1
                l(5) =   2
     Q(r) pseudized with  8 coefficients,  rinner =    1.250   1.250   1.250
                                                       1.250   1.250

     atomic species   valence    mass     pseudopotential
        Na             9.00    22.99000     Na( 1.00)

     48 Sym. Ops., with inversion, found



   Cartesian axes

     site n.     atom                  positions (alat units)
         1           Na  tau(   1) = (   0.0000000   0.0000000   0.0000000  )

     number of k points=   250  Marzari-Vanderbilt smearing, width (Ry)=  0.0200

     Number of k-points >= 100: set verbosity='high' to print them.

     Dense  grid:    24835 G-vectors     FFT dimensions: (  40,  40,  40)

     Smooth grid:     8685 G-vectors     FFT dimensions: (  27,  27,  27)

     Estimated max dynamical RAM per process >      13.36MB

     Estimated total allocated dynamical RAM >      53.44MB

     Initial potential from superposition of free atoms

     starting charge    8.99371, renormalised to    9.00000
     Starting wfc are    5 randomized atomic wfcs +    4 random wfc

     total cpu time spent up to now is        1.0 secs

     per-process dynamical memory:    19.6 Mb

     Self-consistent Calculation

     iteration #  1     ecut=    40.00 Ry     beta=0.70
     Davidson diagonalization with overlap
     ethr =  1.00E-02,  avg # of iterations =  5.8

     Threshold (ethr) on eigenvalues was too large:
     Diagonalizing with lowered threshold

     Davidson diagonalization with overlap
     ethr =  9.84E-06,  avg # of iterations =  4.8

     total cpu time spent up to now is        5.9 secs

     total energy              =     -95.10637787 Ry
     Harris-Foulkes estimate   =     -95.10656725 Ry
     estimated scf accuracy    <       0.00088332 Ry

     iteration #  2     ecut=    40.00 Ry     beta=0.70
     Davidson diagonalization with overlap
     ethr =  9.81E-06,  avg # of iterations =  2.0

     total cpu time spent up to now is        7.5 secs

     total energy              =     -95.10647616 Ry
     Harris-Foulkes estimate   =     -95.10649624 Ry
     estimated scf accuracy    <       0.00009724 Ry

     iteration #  3     ecut=    40.00 Ry     beta=0.70
     Davidson diagonalization with overlap
     ethr =  1.08E-06,  avg # of iterations =  2.1

     total cpu time spent up to now is        9.2 secs

     total energy              =     -95.10648758 Ry
     Harris-Foulkes estimate   =     -95.10648858 Ry
     estimated scf accuracy    <       0.00000602 Ry

     iteration #  4     ecut=    40.00 Ry     beta=0.70
     Davidson diagonalization with overlap
     ethr =  6.69E-08,  avg # of iterations =  1.0

     total cpu time spent up to now is       10.6 secs

     total energy              =     -95.10648815 Ry
     Harris-Foulkes estimate   =     -95.10648811 Ry
     estimated scf accuracy    <       0.00000001 Ry

     iteration #  5     ecut=    40.00 Ry     beta=0.70
     Davidson diagonalization with overlap
     ethr =  1.40E-10,  avg # of iterations =  3.0

     total cpu time spent up to now is       12.6 secs

     End of self-consistent calculation

     Number of k-points >= 100: set verbosity='high' to print the bands.

     the Fermi energy is     1.5119 ev

!    total energy              =     -95.10648818 Ry
     Harris-Foulkes estimate   =     -95.10648818 Ry
     estimated scf accuracy    <          1.7E-09 Ry

     The total energy is the sum of the following terms:

     one-electron contribution =     -88.63767028 Ry
     hartree contribution      =      44.64403185 Ry
     xc contribution           =     -14.26551967 Ry
     ewald contribution        =     -36.84723868 Ry
     smearing contrib. (-TS)   =      -0.00009141 Ry

     convergence has been achieved in   5 iterations

     Forces acting on atoms (cartesian axes, Ry/au):

     atom    1 type  1   force =     0.00000000    0.00000000    0.00000000

     Total force =     0.000000     Total SCF correction =     0.000000


     Computing stress (Cartesian axis) and pressure

          total   stress  (Ry/bohr**3)                   (kbar)     P=   -4.40
  -0.00002994  -0.00000000   0.00000000         -4.40     -0.00      0.00
  -0.00000000  -0.00002994   0.00000000         -0.00     -4.40      0.00
   0.00000000   0.00000000  -0.00002994          0.00      0.00     -4.40


     BFGS Geometry Optimization

     number of scf cycles    =   1
     number of bfgs steps    =   0

     enthalpy new            =     -95.1064881846 Ry

     new trust radius        =       0.0023952029 bohr
     new conv_thr            =       0.0000000100 Ry

     new unit-cell volume =    255.42558 a.u.^3 (    37.85017 Ang^3 )
     density =      1.00860 g/cm^3

CELL_PARAMETERS (alat=  8.00000000)
   0.499625750   0.499625750   0.499625750
  -0.499625750   0.499625750   0.499625750
  -0.499625750  -0.499625750   0.499625750

ATOMIC_POSITIONS (crystal)
Na       0.000000000   0.000000000   0.000000000



     Writing output data file na.bcc.save
     NEW-OLD atomic charge density approx. for the potential
     extrapolated charge    8.97977, renormalised to    9.00000

     total cpu time spent up to now is       14.1 secs

     per-process dynamical memory:    31.4 Mb

     Self-consistent Calculation

     iteration #  1     ecut=    40.00 Ry     beta=0.70
     Davidson diagonalization with overlap
     ethr =  1.00E-06,  avg # of iterations =  2.0

     total cpu time spent up to now is       16.0 secs

     total energy              =     -95.10623701 Ry
     Harris-Foulkes estimate   =     -95.26536091 Ry
     estimated scf accuracy    <       0.00014993 Ry

     iteration #  2     ecut=    40.00 Ry     beta=0.70
     Davidson diagonalization with overlap
     ethr =  1.67E-06,  avg # of iterations =  3.0

     total cpu time spent up to now is       18.2 secs

     total energy              =     -95.10651062 Ry
     Harris-Foulkes estimate   =     -95.10662096 Ry
     estimated scf accuracy    <       0.00025137 Ry

     iteration #  3     ecut=    40.00 Ry     beta=0.70
     Davidson diagonalization with overlap
     ethr =  1.67E-06,  avg # of iterations =  1.9

     total cpu time spent up to now is       19.8 secs

     total energy              =     -95.10651027 Ry
     Harris-Foulkes estimate   =     -95.10652731 Ry
     estimated scf accuracy    <       0.00004839 Ry

     iteration #  4     ecut=    40.00 Ry     beta=0.70
     Davidson diagonalization with overlap
     ethr =  5.38E-07,  avg # of iterations =  1.0

     total cpu time spent up to now is       21.2 secs

     total energy              =     -95.10650631 Ry
     Harris-Foulkes estimate   =     -95.10651254 Ry
     estimated scf accuracy    <       0.00001499 Ry

     iteration #  5     ecut=    40.00 Ry     beta=0.70
     Davidson diagonalization with overlap
     ethr =  1.67E-07,  avg # of iterations =  1.0

     total cpu time spent up to now is       22.6 secs

     total energy              =     -95.10650650 Ry
     Harris-Foulkes estimate   =     -95.10650727 Ry
     estimated scf accuracy    <       0.00000332 Ry

     iteration #  6     ecut=    40.00 Ry     beta=0.70
     Davidson diagonalization with overlap
     ethr =  3.69E-08,  avg # of iterations =  1.0

     total cpu time spent up to now is       24.0 secs

     total energy              =     -95.10650629 Ry
     Harris-Foulkes estimate   =     -95.10650659 Ry
     estimated scf accuracy    <       0.00000180 Ry

     iteration #  7     ecut=    40.00 Ry     beta=0.70
     Davidson diagonalization with overlap
     ethr =  2.00E-08,  avg # of iterations =  1.0

     total cpu time spent up to now is       25.4 secs

     total energy              =     -95.10650556 Ry
     Harris-Foulkes estimate   =     -95.10650630 Ry
     estimated scf accuracy    <       0.00000118 Ry

     iteration #  8     ecut=    40.00 Ry     beta=0.70
     Davidson diagonalization with overlap
     ethr =  1.31E-08,  avg # of iterations =  2.0

     total cpu time spent up to now is       27.1 secs

     total energy              =     -95.10650577 Ry
     Harris-Foulkes estimate   =     -95.10650577 Ry
     estimated scf accuracy    <       0.00000001 Ry

     iteration #  9     ecut=    40.00 Ry     beta=0.70
     Davidson diagonalization with overlap
     ethr =  1.38E-10,  avg # of iterations =  1.2

     total cpu time spent up to now is       28.6 secs

     End of self-consistent calculation

     Number of k-points >= 100: set verbosity='high' to print the bands.

     the Fermi energy is     1.5210 ev

!    total energy              =     -95.10650577 Ry
     Harris-Foulkes estimate   =     -95.10650577 Ry
     estimated scf accuracy    <          3.3E-09 Ry

     The total energy is the sum of the following terms:

     one-electron contribution =     -88.58891400 Ry
     hartree contribution      =      44.62309135 Ry
     xc contribution           =     -14.26575207 Ry
     ewald contribution        =     -36.87483953 Ry
     smearing contrib. (-TS)   =      -0.00009153 Ry

     convergence has been achieved in   9 iterations

     Forces acting on atoms (cartesian axes, Ry/au):

     atom    1 type  1   force =     0.00000000    0.00000000    0.00000000

     Total force =     0.000000     Total SCF correction =     0.000000


     Computing stress (Cartesian axis) and pressure

          total   stress  (Ry/bohr**3)                   (kbar)     P=   -4.78
  -0.00003248  -0.00000000   0.00000000         -4.78     -0.00      0.00
  -0.00000000  -0.00003248   0.00000000         -0.00     -4.78      0.00
   0.00000000   0.00000000  -0.00003248          0.00      0.00     -4.78


     number of scf cycles    =   2
     number of bfgs steps    =   1

     enthalpy old            =     -95.1064881846 Ry
     enthalpy new            =     -95.1065057675 Ry

     CASE: enthalpy_new < enthalpy_old


     WARNING: bfgs curvature condition failed, Theta= 0.738
     uphill step: resetting bfgs history

     new trust radius        =       0.0025956938 bohr
     new conv_thr            =            1.0E-10 Ry

     new unit-cell volume =    254.80382 a.u.^3 (    37.75803 Ang^3 )
     density =      1.01106 g/cm^3

CELL_PARAMETERS (alat=  8.00000000)
   0.499220021   0.499220021   0.499220021
  -0.499220021   0.499220021   0.499220021
  -0.499220021  -0.499220021   0.499220021

ATOMIC_POSITIONS (crystal)
Na       0.000000000   0.000000000   0.000000000



     Writing output data file na.bcc.save
     NEW-OLD atomic charge density approx. for the potential
     extrapolated charge    8.97805, renormalised to    9.00000

     total cpu time spent up to now is       30.0 secs

     per-process dynamical memory:    31.4 Mb

     Self-consistent Calculation

     iteration #  1     ecut=    40.00 Ry     beta=0.70
     Davidson diagonalization with overlap
     ethr =  1.00E-06,  avg # of iterations =  2.0

     total cpu time spent up to now is       31.9 secs

     total energy              =     -95.10620679 Ry
     Harris-Foulkes estimate   =     -95.27877585 Ry
     estimated scf accuracy    <       0.00017768 Ry

     iteration #  2     ecut=    40.00 Ry     beta=0.70
     Davidson diagonalization with overlap
     ethr =  1.97E-06,  avg # of iterations =  3.0

     total cpu time spent up to now is       34.1 secs

     total energy              =     -95.10652948 Ry
     Harris-Foulkes estimate   =     -95.10665968 Ry
     estimated scf accuracy    <       0.00029622 Ry

     iteration #  3     ecut=    40.00 Ry     beta=0.70
     Davidson diagonalization with overlap
     ethr =  1.97E-06,  avg # of iterations =  1.9

     total cpu time spent up to now is       35.6 secs

     total energy              =     -95.10652916 Ry
     Harris-Foulkes estimate   =     -95.10654921 Ry
     estimated scf accuracy    <       0.00005680 Ry

     iteration #  4     ecut=    40.00 Ry     beta=0.70
     Davidson diagonalization with overlap
     ethr =  6.31E-07,  avg # of iterations =  1.0

     total cpu time spent up to now is       37.1 secs

     total energy              =     -95.10652462 Ry
     Harris-Foulkes estimate   =     -95.10653186 Ry
     estimated scf accuracy    <       0.00001748 Ry

     iteration #  5     ecut=    40.00 Ry     beta=0.70
     Davidson diagonalization with overlap
     ethr =  1.94E-07,  avg # of iterations =  1.0

     total cpu time spent up to now is       38.5 secs

     total energy              =     -95.10652482 Ry
     Harris-Foulkes estimate   =     -95.10652573 Ry
     estimated scf accuracy    <       0.00000391 Ry

     iteration #  6     ecut=    40.00 Ry     beta=0.70
     Davidson diagonalization with overlap
     ethr =  4.34E-08,  avg # of iterations =  1.0

     total cpu time spent up to now is       40.0 secs

     total energy              =     -95.10652463 Ry
     Harris-Foulkes estimate   =     -95.10652493 Ry
     estimated scf accuracy    <       0.00000212 Ry

     iteration #  7     ecut=    40.00 Ry     beta=0.70
     Davidson diagonalization with overlap
     ethr =  2.35E-08,  avg # of iterations =  1.0

     total cpu time spent up to now is       41.4 secs

     total energy              =     -95.10652367 Ry
     Harris-Foulkes estimate   =     -95.10652465 Ry
     estimated scf accuracy    <       0.00000152 Ry

     iteration #  8     ecut=    40.00 Ry     beta=0.70
     Davidson diagonalization with overlap
     ethr =  1.68E-08,  avg # of iterations =  2.0

     total cpu time spent up to now is       43.1 secs

     total energy              =     -95.10652396 Ry
     Harris-Foulkes estimate   =     -95.10652396 Ry
     estimated scf accuracy    <          9.4E-09 Ry

     iteration #  9     ecut=    40.00 Ry     beta=0.70
     Davidson diagonalization with overlap
     ethr =  1.04E-10,  avg # of iterations =  1.1

     total cpu time spent up to now is       44.5 secs

     total energy              =     -95.10652396 Ry
     Harris-Foulkes estimate   =     -95.10652396 Ry
     estimated scf accuracy    <          3.0E-09 Ry

     iteration # 10     ecut=    40.00 Ry     beta=0.70
     Davidson diagonalization with overlap
     ethr =  3.28E-11,  avg # of iterations =  1.0

     total cpu time spent up to now is       45.9 secs

     total energy              =     -95.10652396 Ry
     Harris-Foulkes estimate   =     -95.10652396 Ry
     estimated scf accuracy    <          2.9E-09 Ry

     iteration # 11     ecut=    40.00 Ry     beta=0.70
     Davidson diagonalization with overlap
     ethr =  3.20E-11,  avg # of iterations =  1.0

     total cpu time spent up to now is       47.3 secs

     total energy              =     -95.10652396 Ry
     Harris-Foulkes estimate   =     -95.10652396 Ry
     estimated scf accuracy    <          6.8E-10 Ry

     iteration # 12     ecut=    40.00 Ry     beta=0.70
     Davidson diagonalization with overlap
     ethr =  7.60E-12,  avg # of iterations =  1.5

     total cpu time spent up to now is       48.8 secs

     total energy              =     -95.10652396 Ry
     Harris-Foulkes estimate   =     -95.10652396 Ry
     estimated scf accuracy    <          2.0E-10 Ry

     iteration # 13     ecut=    40.00 Ry     beta=0.70
     Davidson diagonalization with overlap
     ethr =  2.21E-12,  avg # of iterations =  1.0

     total cpu time spent up to now is       50.2 secs

     End of self-consistent calculation

     Number of k-points >= 100: set verbosity='high' to print the bands.

     the Fermi energy is     1.5309 ev

!    total energy              =     -95.10652396 Ry
     Harris-Foulkes estimate   =     -95.10652396 Ry
     estimated scf accuracy    <          5.7E-11 Ry

     The total energy is the sum of the following terms:

     one-electron contribution =     -88.53641818 Ry
     hartree contribution      =      44.60089282 Ry
     xc contribution           =     -14.26609828 Ry
     ewald contribution        =     -36.90480866 Ry
     smearing contrib. (-TS)   =      -0.00009165 Ry

     convergence has been achieved in  13 iterations

     Forces acting on atoms (cartesian axes, Ry/au):

     atom    1 type  1   force =     0.00000000    0.00000000    0.00000000

     Total force =     0.000000     Total SCF correction =     0.000000


     Computing stress (Cartesian axis) and pressure

          total   stress  (Ry/bohr**3)                   (kbar)     P=   -4.25
  -0.00002887  -0.00000000   0.00000000         -4.25     -0.00      0.00
  -0.00000000  -0.00002887  -0.00000000         -0.00     -4.25     -0.00
   0.00000000  -0.00000000  -0.00002887          0.00     -0.00     -4.25


     number of scf cycles    =   3
     number of bfgs steps    =   2

     enthalpy old            =     -95.1065057675 Ry
     enthalpy new            =     -95.1065239571 Ry

     CASE: enthalpy_new < enthalpy_old


     WARNING: bfgs curvature condition failed, Theta= 0.902
     new trust radius        =       0.0038919594 bohr
     new conv_thr            =            1.0E-10 Ry

     new unit-cell volume =    253.87307 a.u.^3 (    37.62011 Ang^3 )
     density =      1.01477 g/cm^3

CELL_PARAMETERS (alat=  8.00000000)
   0.498611427   0.498611427   0.498611427
  -0.498611427   0.498611427   0.498611427
  -0.498611427  -0.498611427   0.498611427

ATOMIC_POSITIONS (crystal)
Na       0.000000000   0.000000000   0.000000000



     Writing output data file na.bcc.save
     NEW-OLD atomic charge density approx. for the potential
     extrapolated charge    8.96703, renormalised to    9.00000

     total cpu time spent up to now is       51.6 secs

     per-process dynamical memory:    31.4 Mb

     Self-consistent Calculation

     iteration #  1     ecut=    40.00 Ry     beta=0.70
     Davidson diagonalization with overlap
     ethr =  1.00E-06,  avg # of iterations =  2.1

     total cpu time spent up to now is       53.5 secs

     total energy              =     -95.10583805 Ry
     Harris-Foulkes estimate   =     -95.36504644 Ry
     estimated scf accuracy    <       0.00039771 Ry

     iteration #  2     ecut=    40.00 Ry     beta=0.70
     Davidson diagonalization with overlap
     ethr =  4.42E-06,  avg # of iterations =  3.0

     total cpu time spent up to now is       55.7 secs

     total energy              =     -95.10656187 Ry
     Harris-Foulkes estimate   =     -95.10685402 Ry
     estimated scf accuracy    <       0.00066516 Ry

     iteration #  3     ecut=    40.00 Ry     beta=0.70
     Davidson diagonalization with overlap
     ethr =  4.42E-06,  avg # of iterations =  1.9

     total cpu time spent up to now is       57.2 secs

     total energy              =     -95.10656095 Ry
     Harris-Foulkes estimate   =     -95.10660624 Ry
     estimated scf accuracy    <       0.00012741 Ry

     iteration #  4     ecut=    40.00 Ry     beta=0.70
     Davidson diagonalization with overlap
     ethr =  1.42E-06,  avg # of iterations =  1.0

     total cpu time spent up to now is       58.6 secs

     total energy              =     -95.10655046 Ry
     Harris-Foulkes estimate   =     -95.10656704 Ry
     estimated scf accuracy    <       0.00003881 Ry

     iteration #  5     ecut=    40.00 Ry     beta=0.70
     Davidson diagonalization with overlap
     ethr =  4.31E-07,  avg # of iterations =  1.0

     total cpu time spent up to now is       60.0 secs

     total energy              =     -95.10655143 Ry
     Harris-Foulkes estimate   =     -95.10655311 Ry
     estimated scf accuracy    <       0.00000796 Ry

     iteration #  6     ecut=    40.00 Ry     beta=0.70
     Davidson diagonalization with overlap
     ethr =  8.85E-08,  avg # of iterations =  1.0

     total cpu time spent up to now is       61.4 secs

     total energy              =     -95.10655073 Ry
     Harris-Foulkes estimate   =     -95.10655166 Ry
     estimated scf accuracy    <       0.00000473 Ry

     iteration #  7     ecut=    40.00 Ry     beta=0.70
     Davidson diagonalization with overlap
     ethr =  5.25E-08,  avg # of iterations =  1.0

     total cpu time spent up to now is       62.8 secs

     total energy              =     -95.10654903 Ry
     Harris-Foulkes estimate   =     -95.10655079 Ry
     estimated scf accuracy    <       0.00000282 Ry

     iteration #  8     ecut=    40.00 Ry     beta=0.70
     Davidson diagonalization with overlap
     ethr =  3.13E-08,  avg # of iterations =  2.0

     total cpu time spent up to now is       64.5 secs

     total energy              =     -95.10654952 Ry
     Harris-Foulkes estimate   =     -95.10654954 Ry
     estimated scf accuracy    <       0.00000006 Ry

     iteration #  9     ecut=    40.00 Ry     beta=0.70
     Davidson diagonalization with overlap
     ethr =  6.22E-10,  avg # of iterations =  1.0

     total cpu time spent up to now is       65.9 secs

     total energy              =     -95.10654953 Ry
     Harris-Foulkes estimate   =     -95.10654953 Ry
     estimated scf accuracy    <          9.5E-09 Ry

     iteration # 10     ecut=    40.00 Ry     beta=0.70
     Davidson diagonalization with overlap
     ethr =  1.06E-10,  avg # of iterations =  1.0

     total cpu time spent up to now is       67.3 secs

     total energy              =     -95.10654952 Ry
     Harris-Foulkes estimate   =     -95.10654953 Ry
     estimated scf accuracy    <       0.00000001 Ry

     iteration # 11     ecut=    40.00 Ry     beta=0.70
     Davidson diagonalization with overlap
     ethr =  1.06E-10,  avg # of iterations =  1.0

     total cpu time spent up to now is       68.7 secs

     total energy              =     -95.10654952 Ry
     Harris-Foulkes estimate   =     -95.10654953 Ry
     estimated scf accuracy    <          3.4E-09 Ry

     iteration # 12     ecut=    40.00 Ry     beta=0.70
     Davidson diagonalization with overlap
     ethr =  3.80E-11,  avg # of iterations =  2.0

     total cpu time spent up to now is       70.4 secs

     total energy              =     -95.10654952 Ry
     Harris-Foulkes estimate   =     -95.10654952 Ry
     estimated scf accuracy    <          8.3E-10 Ry

     iteration # 13     ecut=    40.00 Ry     beta=0.70
     Davidson diagonalization with overlap
     ethr =  9.25E-12,  avg # of iterations =  1.0

     total cpu time spent up to now is       71.8 secs

     End of self-consistent calculation

     Number of k-points >= 100: set verbosity='high' to print the bands.

     the Fermi energy is     1.5459 ev

!    total energy              =     -95.10654952 Ry
     Harris-Foulkes estimate   =     -95.10654952 Ry
     estimated scf accuracy    <          4.3E-11 Ry

     The total energy is the sum of the following terms:

     one-electron contribution =     -88.45731226 Ry
     hartree contribution      =      44.56728292 Ry
     xc contribution           =     -14.26657453 Ry
     ewald contribution        =     -36.94985382 Ry
     smearing contrib. (-TS)   =      -0.00009184 Ry

     convergence has been achieved in  13 iterations

     Forces acting on atoms (cartesian axes, Ry/au):

     atom    1 type  1   force =     0.00000000    0.00000000    0.00000000

     Total force =     0.000000     Total SCF correction =     0.000000


     Computing stress (Cartesian axis) and pressure

          total   stress  (Ry/bohr**3)                   (kbar)     P=   -3.89
  -0.00002642  -0.00000000   0.00000000         -3.89     -0.00      0.00
  -0.00000000  -0.00002642  -0.00000000         -0.00     -3.89     -0.00
   0.00000000  -0.00000000  -0.00002642          0.00     -0.00     -3.89


     number of scf cycles    =   4
     number of bfgs steps    =   3

     enthalpy old            =     -95.1065239571 Ry
     enthalpy new            =     -95.1065495247 Ry

     CASE: enthalpy_new < enthalpy_old

     new trust radius        =       0.0058343795 bohr
     new conv_thr            =            1.0E-10 Ry

     new unit-cell volume =    252.48120 a.u.^3 (    37.41385 Ang^3 )
     density =      1.02037 g/cm^3

CELL_PARAMETERS (alat=  8.00000000)
   0.497698537   0.497698537   0.497698537
  -0.497698537   0.497698537   0.497698537
  -0.497698537  -0.497698537   0.497698537

ATOMIC_POSITIONS (crystal)
Na       0.000000000   0.000000000   0.000000000



     Writing output data file na.bcc.save
     NEW-OLD atomic charge density approx. for the potential
     extrapolated charge    8.95042, renormalised to    9.00000

     total cpu time spent up to now is       73.2 secs

     per-process dynamical memory:    31.4 Mb

     Self-consistent Calculation

     iteration #  1     ecut=    40.00 Ry     beta=0.70
     Davidson diagonalization with overlap
     ethr =  1.00E-06,  avg # of iterations =  2.6

     total cpu time spent up to now is       75.3 secs

     total energy              =     -95.10498621 Ry
     Harris-Foulkes estimate   =     -95.49459513 Ry
     estimated scf accuracy    <       0.00089333 Ry

     iteration #  2     ecut=    40.00 Ry     beta=0.70
     Davidson diagonalization with overlap
     ethr =  9.93E-06,  avg # of iterations =  3.0

     total cpu time spent up to now is       77.4 secs

     total energy              =     -95.10661076 Ry
     Harris-Foulkes estimate   =     -95.10726703 Ry
     estimated scf accuracy    <       0.00149413 Ry

     iteration #  3     ecut=    40.00 Ry     beta=0.70
     Davidson diagonalization with overlap
     ethr =  9.93E-06,  avg # of iterations =  1.9

     total cpu time spent up to now is       78.9 secs

     total energy              =     -95.10660816 Ry
     Harris-Foulkes estimate   =     -95.10671088 Ry
     estimated scf accuracy    <       0.00028487 Ry

     iteration #  4     ecut=    40.00 Ry     beta=0.70
     Davidson diagonalization with overlap
     ethr =  3.17E-06,  avg # of iterations =  1.0

     total cpu time spent up to now is       80.3 secs

     total energy              =     -95.10658494 Ry
     Harris-Foulkes estimate   =     -95.10662206 Ry
     estimated scf accuracy    <       0.00008468 Ry

     iteration #  5     ecut=    40.00 Ry     beta=0.70
     Davidson diagonalization with overlap
     ethr =  9.41E-07,  avg # of iterations =  1.0

     total cpu time spent up to now is       81.7 secs

     total energy              =     -95.10658816 Ry
     Harris-Foulkes estimate   =     -95.10659112 Ry
     estimated scf accuracy    <       0.00001598 Ry

     iteration #  6     ecut=    40.00 Ry     beta=0.70
     Davidson diagonalization with overlap
     ethr =  1.78E-07,  avg # of iterations =  1.0

     total cpu time spent up to now is       83.1 secs

     total energy              =     -95.10658505 Ry
     Harris-Foulkes estimate   =     -95.10658860 Ry
     estimated scf accuracy    <       0.00001044 Ry

     iteration #  7     ecut=    40.00 Ry     beta=0.70
     Davidson diagonalization with overlap
     ethr =  1.16E-07,  avg # of iterations =  1.0

     total cpu time spent up to now is       84.5 secs

     total energy              =     -95.10658407 Ry
     Harris-Foulkes estimate   =     -95.10658550 Ry
     estimated scf accuracy    <       0.00000350 Ry

     iteration #  8     ecut=    40.00 Ry     beta=0.70
     Davidson diagonalization with overlap
     ethr =  3.89E-08,  avg # of iterations =  1.0

     total cpu time spent up to now is       85.9 secs

     total energy              =     -95.10658385 Ry
     Harris-Foulkes estimate   =     -95.10658429 Ry
     estimated scf accuracy    <       0.00000077 Ry

     iteration #  9     ecut=    40.00 Ry     beta=0.70
     Davidson diagonalization with overlap
     ethr =  8.51E-09,  avg # of iterations =  2.0

     total cpu time spent up to now is       87.5 secs

     total energy              =     -95.10658398 Ry
     Harris-Foulkes estimate   =     -95.10658398 Ry
     estimated scf accuracy    <       0.00000003 Ry

     iteration # 10     ecut=    40.00 Ry     beta=0.70
     Davidson diagonalization with overlap
     ethr =  3.44E-10,  avg # of iterations =  1.0

     total cpu time spent up to now is       88.9 secs

     total energy              =     -95.10658398 Ry
     Harris-Foulkes estimate   =     -95.10658398 Ry
     estimated scf accuracy    <       0.00000003 Ry

     iteration # 11     ecut=    40.00 Ry     beta=0.70
     Davidson diagonalization with overlap
     ethr =  3.36E-10,  avg # of iterations =  2.0

     total cpu time spent up to now is       90.6 secs

     total energy              =     -95.10658396 Ry
     Harris-Foulkes estimate   =     -95.10658400 Ry
     estimated scf accuracy    <       0.00000008 Ry

     iteration # 12     ecut=    40.00 Ry     beta=0.70
     Davidson diagonalization with overlap
     ethr =  3.36E-10,  avg # of iterations =  2.0

     total cpu time spent up to now is       92.3 secs

     total energy              =     -95.10658397 Ry
     Harris-Foulkes estimate   =     -95.10658398 Ry
     estimated scf accuracy    <       0.00000001 Ry

     iteration # 13     ecut=    40.00 Ry     beta=0.70
     Davidson diagonalization with overlap
     ethr =  1.52E-10,  avg # of iterations =  1.7

     total cpu time spent up to now is       93.8 secs

     total energy              =     -95.10658397 Ry
     Harris-Foulkes estimate   =     -95.10658397 Ry
     estimated scf accuracy    <          4.9E-10 Ry

     iteration # 14     ecut=    40.00 Ry     beta=0.70
     Davidson diagonalization with overlap
     ethr =  5.45E-12,  avg # of iterations =  2.0

     total cpu time spent up to now is       95.5 secs

     End of self-consistent calculation

     Number of k-points >= 100: set verbosity='high' to print the bands.

     the Fermi energy is     1.5684 ev

!    total energy              =     -95.10658397 Ry
     Harris-Foulkes estimate   =     -95.10658397 Ry
     estimated scf accuracy    <          4.5E-11 Ry

     The total energy is the sum of the following terms:

     one-electron contribution =     -88.33830711 Ry
     hartree contribution      =      44.51673564 Ry
     xc contribution           =     -14.26729228 Ry
     ewald contribution        =     -37.01762810 Ry
     smearing contrib. (-TS)   =      -0.00009212 Ry

     convergence has been achieved in  14 iterations

     Forces acting on atoms (cartesian axes, Ry/au):

     atom    1 type  1   force =     0.00000000    0.00000000    0.00000000

     Total force =     0.000000     Total SCF correction =     0.000000


     Computing stress (Cartesian axis) and pressure

          total   stress  (Ry/bohr**3)                   (kbar)     P=   -3.36
  -0.00002286  -0.00000000   0.00000000         -3.36     -0.00      0.00
  -0.00000000  -0.00002286  -0.00000000         -0.00     -3.36     -0.00
   0.00000000  -0.00000000  -0.00002286          0.00     -0.00     -3.36


     number of scf cycles    =   5
     number of bfgs steps    =   4

     enthalpy old            =     -95.1065495247 Ry
     enthalpy new            =     -95.1065839749 Ry

     CASE: enthalpy_new < enthalpy_old

     new trust radius        =       0.0087435542 bohr
     new conv_thr            =            1.0E-10 Ry

     new unit-cell volume =    250.40295 a.u.^3 (    37.10589 Ang^3 )
     density =      1.02883 g/cm^3

CELL_PARAMETERS (alat=  8.00000000)
   0.496329201   0.496329201   0.496329201
  -0.496329201   0.496329201   0.496329201
  -0.496329201  -0.496329201   0.496329201

ATOMIC_POSITIONS (crystal)
Na       0.000000000   0.000000000   0.000000000



     Writing output data file na.bcc.save
     NEW-OLD atomic charge density approx. for the potential
     extrapolated charge    8.92536, renormalised to    9.00000

     total cpu time spent up to now is       96.9 secs

     per-process dynamical memory:    31.4 Mb

     Self-consistent Calculation

     iteration #  1     ecut=    40.00 Ry     beta=0.70
     Davidson diagonalization with overlap
     ethr =  1.00E-06,  avg # of iterations =  3.1

     total cpu time spent up to now is       99.1 secs

     total energy              =     -95.10304126 Ry
     Harris-Foulkes estimate   =     -95.68923455 Ry
     estimated scf accuracy    <       0.00200588 Ry

     iteration #  2     ecut=    40.00 Ry     beta=0.70
     Davidson diagonalization with overlap
     ethr =  2.23E-05,  avg # of iterations =  3.0

     total cpu time spent up to now is      101.2 secs

     total energy              =     -95.10668358 Ry
     Harris-Foulkes estimate   =     -95.10815686 Ry
     estimated scf accuracy    <       0.00335386 Ry

     iteration #  3     ecut=    40.00 Ry     beta=0.70
     Davidson diagonalization with overlap
     ethr =  2.23E-05,  avg # of iterations =  2.0

     total cpu time spent up to now is      102.8 secs

     total energy              =     -95.10667699 Ry
     Harris-Foulkes estimate   =     -95.10690973 Ry
     estimated scf accuracy    <       0.00063529 Ry

     iteration #  4     ecut=    40.00 Ry     beta=0.70
     Davidson diagonalization with overlap
     ethr =  7.06E-06,  avg # of iterations =  1.0

     total cpu time spent up to now is      104.2 secs

     total energy              =     -95.10662621 Ry
     Harris-Foulkes estimate   =     -95.10670886 Ry
     estimated scf accuracy    <       0.00018327 Ry

     iteration #  5     ecut=    40.00 Ry     beta=0.70
     Davidson diagonalization with overlap
     ethr =  2.04E-06,  avg # of iterations =  1.1

     total cpu time spent up to now is      105.6 secs

     total energy              =     -95.10663606 Ry
     Harris-Foulkes estimate   =     -95.10664066 Ry
     estimated scf accuracy    <       0.00003132 Ry

     iteration #  6     ecut=    40.00 Ry     beta=0.70
     Davidson diagonalization with overlap
     ethr =  3.48E-07,  avg # of iterations =  1.0

     total cpu time spent up to now is      107.0 secs

     total energy              =     -95.10662788 Ry
     Harris-Foulkes estimate   =     -95.10663688 Ry
     estimated scf accuracy    <       0.00002334 Ry

     iteration #  7     ecut=    40.00 Ry     beta=0.70
     Davidson diagonalization with overlap
     ethr =  2.59E-07,  avg # of iterations =  1.0

     total cpu time spent up to now is      108.4 secs

     total energy              =     -95.10662886 Ry
     Harris-Foulkes estimate   =     -95.10662929 Ry
     estimated scf accuracy    <       0.00000597 Ry

     iteration #  8     ecut=    40.00 Ry     beta=0.70
     Davidson diagonalization with overlap
     ethr =  6.63E-08,  avg # of iterations =  1.0

     total cpu time spent up to now is      109.8 secs

     total energy              =     -95.10662699 Ry
     Harris-Foulkes estimate   =     -95.10662891 Ry
     estimated scf accuracy    <       0.00000483 Ry

     iteration #  9     ecut=    40.00 Ry     beta=0.70
     Davidson diagonalization with overlap
     ethr =  5.37E-08,  avg # of iterations =  1.0

     total cpu time spent up to now is      111.2 secs

     total energy              =     -95.10662646 Ry
     Harris-Foulkes estimate   =     -95.10662725 Ry
     estimated scf accuracy    <       0.00000121 Ry

     iteration # 10     ecut=    40.00 Ry     beta=0.70
     Davidson diagonalization with overlap
     ethr =  1.34E-08,  avg # of iterations =  2.0

     total cpu time spent up to now is      112.9 secs

     total energy              =     -95.10662678 Ry
     Harris-Foulkes estimate   =     -95.10662678 Ry
     estimated scf accuracy    <       0.00000016 Ry

     iteration # 11     ecut=    40.00 Ry     beta=0.70
     Davidson diagonalization with overlap
     ethr =  1.73E-09,  avg # of iterations =  1.0

     total cpu time spent up to now is      114.2 secs

     total energy              =     -95.10662675 Ry
     Harris-Foulkes estimate   =     -95.10662679 Ry
     estimated scf accuracy    <       0.00000012 Ry

     iteration # 12     ecut=    40.00 Ry     beta=0.70
     Davidson diagonalization with overlap
     ethr =  1.35E-09,  avg # of iterations =  1.0

     total cpu time spent up to now is      115.6 secs

     total energy              =     -95.10662674 Ry
     Harris-Foulkes estimate   =     -95.10662675 Ry
     estimated scf accuracy    <       0.00000003 Ry

     iteration # 13     ecut=    40.00 Ry     beta=0.70
     Davidson diagonalization with overlap
     ethr =  2.81E-10,  avg # of iterations =  2.0

     total cpu time spent up to now is      117.3 secs

     total energy              =     -95.10662674 Ry
     Harris-Foulkes estimate   =     -95.10662674 Ry
     estimated scf accuracy    <          1.1E-09 Ry

     iteration # 14     ecut=    40.00 Ry     beta=0.70
     Davidson diagonalization with overlap
     ethr =  1.26E-11,  avg # of iterations =  2.0

     total cpu time spent up to now is      118.9 secs

     total energy              =     -95.10662674 Ry
     Harris-Foulkes estimate   =     -95.10662674 Ry
     estimated scf accuracy    <          4.7E-10 Ry

     iteration # 15     ecut=    40.00 Ry     beta=0.70
     Davidson diagonalization with overlap
     ethr =  5.18E-12,  avg # of iterations =  1.0

     total cpu time spent up to now is      120.3 secs

     total energy              =     -95.10662674 Ry
     Harris-Foulkes estimate   =     -95.10662674 Ry
     estimated scf accuracy    <          2.5E-10 Ry

     iteration # 16     ecut=    40.00 Ry     beta=0.70
     Davidson diagonalization with overlap
     ethr =  2.72E-12,  avg # of iterations =  1.0

     total cpu time spent up to now is      121.7 secs

     End of self-consistent calculation

     Number of k-points >= 100: set verbosity='high' to print the bands.

     the Fermi energy is     1.6026 ev

!    total energy              =     -95.10662674 Ry
     Harris-Foulkes estimate   =     -95.10662674 Ry
     estimated scf accuracy    <          6.8E-12 Ry

     The total energy is the sum of the following terms:

     one-electron contribution =     -88.15894069 Ry
     hartree contribution      =      44.44052203 Ry
     xc contribution           =     -14.26835855 Ry
     ewald contribution        =     -37.11975699 Ry
     smearing contrib. (-TS)   =      -0.00009255 Ry

     convergence has been achieved in  16 iterations

     Forces acting on atoms (cartesian axes, Ry/au):

     atom    1 type  1   force =     0.00000000    0.00000000    0.00000000

     Total force =     0.000000     Total SCF correction =     0.000000


     Computing stress (Cartesian axis) and pressure

          total   stress  (Ry/bohr**3)                   (kbar)     P=   -2.67
  -0.00001815  -0.00000000   0.00000000         -2.67     -0.00      0.00
  -0.00000000  -0.00001815  -0.00000000         -0.00     -2.67     -0.00
   0.00000000  -0.00000000  -0.00001815          0.00     -0.00     -2.67


     number of scf cycles    =   6
     number of bfgs steps    =   5

     enthalpy old            =     -95.1065839749 Ry
     enthalpy new            =     -95.1066267426 Ry

     CASE: enthalpy_new < enthalpy_old

     new trust radius        =       0.0130972765 bohr
     new conv_thr            =            1.0E-10 Ry

     new unit-cell volume =    247.30700 a.u.^3 (    36.64712 Ang^3 )
     density =      1.04171 g/cm^3

CELL_PARAMETERS (alat=  8.00000000)
   0.494275198   0.494275198   0.494275198
  -0.494275198   0.494275198   0.494275198
  -0.494275198  -0.494275198   0.494275198

ATOMIC_POSITIONS (crystal)
Na       0.000000000   0.000000000   0.000000000



     Writing output data file na.bcc.save
     NEW-OLD atomic charge density approx. for the potential
     extrapolated charge    8.88741, renormalised to    9.00000

     total cpu time spent up to now is      123.2 secs

     per-process dynamical memory:    31.4 Mb

     Self-consistent Calculation

     iteration #  1     ecut=    40.00 Ry     beta=0.70
     Davidson diagonalization with overlap
     c_bands:  1 eigenvalues not converged
     ethr =  1.00E-06,  avg # of iterations =  3.5

     total cpu time spent up to now is      125.5 secs

     total energy              =     -95.09863282 Ry
     Harris-Foulkes estimate   =     -95.98188676 Ry
     estimated scf accuracy    <       0.00450273 Ry

     iteration #  2     ecut=    40.00 Ry     beta=0.70
     Davidson diagonalization with overlap
     ethr =  5.00E-05,  avg # of iterations =  2.9

     total cpu time spent up to now is      127.6 secs

     total energy              =     -95.10678625 Ry
     Harris-Foulkes estimate   =     -95.11009066 Ry
     estimated scf accuracy    <       0.00751999 Ry

     iteration #  3     ecut=    40.00 Ry     beta=0.70
     Davidson diagonalization with overlap
     ethr =  5.00E-05,  avg # of iterations =  2.0

     total cpu time spent up to now is      129.2 secs

     total energy              =     -95.10676537 Ry
     Harris-Foulkes estimate   =     -95.10729851 Ry
     estimated scf accuracy    <       0.00140907 Ry

     iteration #  4     ecut=    40.00 Ry     beta=0.70
     Davidson diagonalization with overlap
     ethr =  1.57E-05,  avg # of iterations =  1.0

     total cpu time spent up to now is      130.6 secs

     total energy              =     -95.10666002 Ry
     Harris-Foulkes estimate   =     -95.10684018 Ry
     estimated scf accuracy    <       0.00038152 Ry

     iteration #  5     ecut=    40.00 Ry     beta=0.70
     Davidson diagonalization with overlap
     ethr =  4.24E-06,  avg # of iterations =  1.5

     total cpu time spent up to now is      132.1 secs

     total energy              =     -95.10669175 Ry
     Harris-Foulkes estimate   =     -95.10669448 Ry
     estimated scf accuracy    <       0.00005432 Ry

     iteration #  6     ecut=    40.00 Ry     beta=0.70
     Davidson diagonalization with overlap
     ethr =  6.04E-07,  avg # of iterations =  1.0

     total cpu time spent up to now is      133.5 secs

     total energy              =     -95.10667019 Ry
     Harris-Foulkes estimate   =     -95.10669294 Ry
     estimated scf accuracy    <       0.00005212 Ry

     iteration #  7     ecut=    40.00 Ry     beta=0.70
     Davidson diagonalization with overlap
     ethr =  5.79E-07,  avg # of iterations =  1.0

     total cpu time spent up to now is      134.9 secs

     total energy              =     -95.10667530 Ry
     Harris-Foulkes estimate   =     -95.10667436 Ry
     estimated scf accuracy    <       0.00000952 Ry

     iteration #  8     ecut=    40.00 Ry     beta=0.70
     Davidson diagonalization with overlap
     ethr =  1.06E-07,  avg # of iterations =  1.0

     total cpu time spent up to now is      136.3 secs

     total energy              =     -95.10666705 Ry
     Harris-Foulkes estimate   =     -95.10667543 Ry
     estimated scf accuracy    <       0.00001231 Ry

     iteration #  9     ecut=    40.00 Ry     beta=0.70
     Davidson diagonalization with overlap
     ethr =  1.06E-07,  avg # of iterations =  2.0

     total cpu time spent up to now is      138.0 secs

     total energy              =     -95.10667161 Ry
     Harris-Foulkes estimate   =     -95.10667091 Ry
     estimated scf accuracy    <       0.00000138 Ry

     iteration # 10     ecut=    40.00 Ry     beta=0.70
     Davidson diagonalization with overlap
     ethr =  1.53E-08,  avg # of iterations =  1.0

     total cpu time spent up to now is      139.4 secs

     total energy              =     -95.10667081 Ry
     Harris-Foulkes estimate   =     -95.10667166 Ry
     estimated scf accuracy    <       0.00000359 Ry

     iteration # 11     ecut=    40.00 Ry     beta=0.70
     Davidson diagonalization with overlap
     ethr =  1.53E-08,  avg # of iterations =  1.0

     total cpu time spent up to now is      140.8 secs

     total energy              =     -95.10667060 Ry
     Harris-Foulkes estimate   =     -95.10667087 Ry
     estimated scf accuracy    <       0.00000127 Ry

     iteration # 12     ecut=    40.00 Ry     beta=0.70
     Davidson diagonalization with overlap
     ethr =  1.42E-08,  avg # of iterations =  1.0

     total cpu time spent up to now is      142.2 secs

     total energy              =     -95.10667033 Ry
     Harris-Foulkes estimate   =     -95.10667062 Ry
     estimated scf accuracy    <       0.00000058 Ry

     iteration # 13     ecut=    40.00 Ry     beta=0.70
     Davidson diagonalization with overlap
     ethr =  6.41E-09,  avg # of iterations =  2.0

     total cpu time spent up to now is      143.9 secs

     total energy              =     -95.10667042 Ry
     Harris-Foulkes estimate   =     -95.10667042 Ry
     estimated scf accuracy    <          3.9E-09 Ry

     iteration # 14     ecut=    40.00 Ry     beta=0.70
     Davidson diagonalization with overlap
     ethr =  4.28E-11,  avg # of iterations =  2.0

     total cpu time spent up to now is      145.6 secs

     total energy              =     -95.10667042 Ry
     Harris-Foulkes estimate   =     -95.10667042 Ry
     estimated scf accuracy    <          4.5E-10 Ry

     iteration # 15     ecut=    40.00 Ry     beta=0.70
     Davidson diagonalization with overlap
     ethr =  5.04E-12,  avg # of iterations =  1.0

     total cpu time spent up to now is      147.0 secs

     total energy              =     -95.10667042 Ry
     Harris-Foulkes estimate   =     -95.10667042 Ry
     estimated scf accuracy    <          5.0E-10 Ry

     iteration # 16     ecut=    40.00 Ry     beta=0.70
     Davidson diagonalization with overlap
     ethr =  5.04E-12,  avg # of iterations =  2.0

     total cpu time spent up to now is      148.6 secs

     total energy              =     -95.10667042 Ry
     Harris-Foulkes estimate   =     -95.10667042 Ry
     estimated scf accuracy    <          4.5E-10 Ry

     iteration # 17     ecut=    40.00 Ry     beta=0.70
     Davidson diagonalization with overlap
     ethr =  4.96E-12,  avg # of iterations =  2.0

     total cpu time spent up to now is      150.3 secs

     total energy              =     -95.10667042 Ry
     Harris-Foulkes estimate   =     -95.10667042 Ry
     estimated scf accuracy    <          2.3E-10 Ry

     iteration # 18     ecut=    40.00 Ry     beta=0.70
     Davidson diagonalization with overlap
     ethr =  2.51E-12,  avg # of iterations =  1.6

     total cpu time spent up to now is      151.7 secs

     End of self-consistent calculation

     Number of k-points >= 100: set verbosity='high' to print the bands.

     the Fermi energy is     1.6547 ev

!    total energy              =     -95.10667042 Ry
     Harris-Foulkes estimate   =     -95.10667042 Ry
     estimated scf accuracy    <          4.0E-13 Ry

     The total energy is the sum of the following terms:

     one-electron contribution =     -87.88817477 Ry
     hartree contribution      =      44.32559554 Ry
     xc contribution           =     -14.26998666 Ry
     ewald contribution        =     -37.27401134 Ry
     smearing contrib. (-TS)   =      -0.00009318 Ry

     convergence has been achieved in  18 iterations

     Forces acting on atoms (cartesian axes, Ry/au):

     atom    1 type  1   force =     0.00000000    0.00000000    0.00000000

     Total force =     0.000000     Total SCF correction =     0.000000


     Computing stress (Cartesian axis) and pressure

          total   stress  (Ry/bohr**3)                   (kbar)     P=   -1.49
  -0.00001014   0.00000000  -0.00000000         -1.49      0.00     -0.00
   0.00000000  -0.00001014  -0.00000000          0.00     -1.49     -0.00
  -0.00000000  -0.00000000  -0.00001014         -0.00     -0.00     -1.49


     number of scf cycles    =   7
     number of bfgs steps    =   6

     enthalpy old            =     -95.1066267426 Ry
     enthalpy new            =     -95.1066704180 Ry

     CASE: enthalpy_new < enthalpy_old

     new trust radius        =       0.0162289718 bohr
     new conv_thr            =            1.0E-10 Ry

     new unit-cell volume =    243.49847 a.u.^3 (    36.08275 Ang^3 )
     density =      1.05801 g/cm^3

CELL_PARAMETERS (alat=  8.00000000)
   0.491724778   0.491724778   0.491724778
  -0.491724778   0.491724778   0.491724778
  -0.491724778  -0.491724778   0.491724778

ATOMIC_POSITIONS (crystal)
Na       0.000000000   0.000000000   0.000000000



     Writing output data file na.bcc.save
     NEW-OLD atomic charge density approx. for the potential
     extrapolated charge    8.85933, renormalised to    9.00000

     total cpu time spent up to now is      153.2 secs

     per-process dynamical memory:    31.4 Mb

     Self-consistent Calculation

     iteration #  1     ecut=    40.00 Ry     beta=0.70
     Davidson diagonalization with overlap
     ethr =  1.00E-06,  avg # of iterations =  3.7

     total cpu time spent up to now is      155.7 secs

     total energy              =     -95.09428564 Ry
     Harris-Foulkes estimate   =     -96.19504668 Ry
     estimated scf accuracy    <       0.00695576 Ry

     iteration #  2     ecut=    40.00 Ry     beta=0.70
     Davidson diagonalization with overlap
     ethr =  7.73E-05,  avg # of iterations =  2.9

     total cpu time spent up to now is      157.9 secs

     total energy              =     -95.10685516 Ry
     Harris-Foulkes estimate   =     -95.11195651 Ry
     estimated scf accuracy    <       0.01160763 Ry

     iteration #  3     ecut=    40.00 Ry     beta=0.70
     Davidson diagonalization with overlap
     ethr =  7.73E-05,  avg # of iterations =  2.0

     total cpu time spent up to now is      159.5 secs

     total energy              =     -95.10682316 Ry
     Harris-Foulkes estimate   =     -95.10765100 Ry
     estimated scf accuracy    <       0.00216030 Ry

     iteration #  4     ecut=    40.00 Ry     beta=0.70
     Davidson diagonalization with overlap
     ethr =  2.40E-05,  avg # of iterations =  1.0

     total cpu time spent up to now is      160.9 secs

     total energy              =     -95.10667496 Ry
     Harris-Foulkes estimate   =     -95.10694137 Ry
     estimated scf accuracy    <       0.00056776 Ry

     iteration #  5     ecut=    40.00 Ry     beta=0.70
     Davidson diagonalization with overlap
     ethr =  6.31E-06,  avg # of iterations =  1.5

     total cpu time spent up to now is      162.3 secs

     total energy              =     -95.10672187 Ry
     Harris-Foulkes estimate   =     -95.10672606 Ry
     estimated scf accuracy    <       0.00008238 Ry

     iteration #  6     ecut=    40.00 Ry     beta=0.70
     Davidson diagonalization with overlap
     ethr =  9.15E-07,  avg # of iterations =  1.0

     total cpu time spent up to now is      163.8 secs

     total energy              =     -95.10669243 Ry
     Harris-Foulkes estimate   =     -95.10672364 Ry
     estimated scf accuracy    <       0.00007906 Ry

     iteration #  7     ecut=    40.00 Ry     beta=0.70
     Davidson diagonalization with overlap
     ethr =  8.78E-07,  avg # of iterations =  1.0

     total cpu time spent up to now is      165.1 secs

     total energy              =     -95.10670208 Ry
     Harris-Foulkes estimate   =     -95.10669752 Ry
     estimated scf accuracy    <       0.00001888 Ry

     iteration #  8     ecut=    40.00 Ry     beta=0.70
     Davidson diagonalization with overlap
     ethr =  2.10E-07,  avg # of iterations =  1.0

     total cpu time spent up to now is      166.5 secs

     total energy              =     -95.10668302 Ry
     Harris-Foulkes estimate   =     -95.10670243 Ry
     estimated scf accuracy    <       0.00003325 Ry

     iteration #  9     ecut=    40.00 Ry     beta=0.70
     Davidson diagonalization with overlap
     ethr =  2.10E-07,  avg # of iterations =  2.0

     total cpu time spent up to now is      168.2 secs

     total energy              =     -95.10669032 Ry
     Harris-Foulkes estimate   =     -95.10668966 Ry
     estimated scf accuracy    <       0.00000055 Ry

     iteration # 10     ecut=    40.00 Ry     beta=0.70
     Davidson diagonalization with overlap
     ethr =  6.08E-09,  avg # of iterations =  2.0

     total cpu time spent up to now is      169.9 secs

     total energy              =     -95.10668950 Ry
     Harris-Foulkes estimate   =     -95.10669041 Ry
     estimated scf accuracy    <       0.00000289 Ry

     iteration # 11     ecut=    40.00 Ry     beta=0.70
     Davidson diagonalization with overlap
     ethr =  6.08E-09,  avg # of iterations =  2.0

     total cpu time spent up to now is      171.6 secs

     total energy              =     -95.10668950 Ry
     Harris-Foulkes estimate   =     -95.10668959 Ry
     estimated scf accuracy    <       0.00000030 Ry

     iteration # 12     ecut=    40.00 Ry     beta=0.70
     Davidson diagonalization with overlap
     ethr =  3.34E-09,  avg # of iterations =  1.0

     total cpu time spent up to now is      173.0 secs

     total energy              =     -95.10668947 Ry
     Harris-Foulkes estimate   =     -95.10668951 Ry
     estimated scf accuracy    <       0.00000007 Ry

     iteration # 13     ecut=    40.00 Ry     beta=0.70
     Davidson diagonalization with overlap
     ethr =  7.86E-10,  avg # of iterations =  2.0

     total cpu time spent up to now is      174.7 secs

     total energy              =     -95.10668948 Ry
     Harris-Foulkes estimate   =     -95.10668948 Ry
     estimated scf accuracy    <          4.6E-10 Ry

     iteration # 14     ecut=    40.00 Ry     beta=0.70
     Davidson diagonalization with overlap
     ethr =  5.12E-12,  avg # of iterations =  2.0

     total cpu time spent up to now is      176.3 secs

     End of self-consistent calculation

     Number of k-points >= 100: set verbosity='high' to print the bands.

     the Fermi energy is     1.7206 ev

!    total energy              =     -95.10668948 Ry
     Harris-Foulkes estimate   =     -95.10668948 Ry
     estimated scf accuracy    <          9.7E-11 Ry

     The total energy is the sum of the following terms:

     one-electron contribution =     -87.54898427 Ry
     hartree contribution      =      44.18176666 Ry
     xc contribution           =     -14.27203814 Ry
     ewald contribution        =     -37.46733975 Ry
     smearing contrib. (-TS)   =      -0.00009398 Ry

     convergence has been achieved in  14 iterations

     Forces acting on atoms (cartesian axes, Ry/au):

     atom    1 type  1   force =     0.00000000    0.00000000    0.00000000

     Total force =     0.000000     Total SCF correction =     0.000000


     Computing stress (Cartesian axis) and pressure

          total   stress  (Ry/bohr**3)                   (kbar)     P=    0.08
   0.00000056  -0.00000000   0.00000000          0.08     -0.00      0.00
  -0.00000000   0.00000056   0.00000000         -0.00      0.08      0.00
   0.00000000   0.00000000   0.00000056          0.00      0.00      0.08


     bfgs converged in   8 scf cycles and   7 bfgs steps
     (criteria: energy <  1.0E-04 Ry, force <  1.0E-03Ry/Bohr, cell <  5.0E-01kbar)

     End of BFGS Geometry Optimization

     Final enthalpy =     -95.1066894836 Ry
Begin final coordinates
     new unit-cell volume =    243.49847 a.u.^3 (    36.08275 Ang^3 )
     density =      1.05801 g/cm^3

CELL_PARAMETERS (alat=  8.00000000)
   0.491724778   0.491724778   0.491724778
  -0.491724778   0.491724778   0.491724778
  -0.491724778  -0.491724778   0.491724778

ATOMIC_POSITIONS (crystal)
Na       0.000000000   0.000000000   0.000000000
End final coordinates



     A final scf calculation at the relaxed structure.
     The G-vectors are recalculated for the final unit cell
     Results may differ from those at the preceding step.

     Parallelization info
     --------------------
     sticks:   dense  smooth     PW     G-vecs:    dense   smooth      PW
     Min         278     139     43                 5863     2097     369
     Max         279     140     44                 5866     2099     372
     Sum        1113     557    173                23455     8391    1481



     bravais-lattice index     =            3
     lattice parameter (alat)  =       8.0000  a.u.
     unit-cell volume          =     243.4985 (a.u.)^3
     number of atoms/cell      =            1
     number of atomic types    =            1
     number of electrons       =         9.00
     number of Kohn-Sham states=            9
     kinetic-energy cutoff     =      40.0000  Ry
     charge density cutoff     =     320.0000  Ry
     convergence threshold     =      1.0E-10
     mixing beta               =       0.7000
     number of iterations used =            8  plain     mixing
     Exchange-correlation      = SLA  PW   PBE  PBE ( 1  4  3  4 0 0)

     celldm(1)=   8.000000  celldm(2)=   0.000000  celldm(3)=   0.000000
     celldm(4)=   0.000000  celldm(5)=   0.000000  celldm(6)=   0.000000

     crystal axes: (cart. coord. in units of alat)
               a(1) = (   0.491725   0.491725   0.491725 )  
               a(2) = (  -0.491725   0.491725   0.491725 )  
               a(3) = (  -0.491725  -0.491725   0.491725 )  

     reciprocal axes: (cart. coord. in units 2 pi/alat)
               b(1) = (  1.016829  0.000000  1.016829 )  
               b(2) = ( -1.016829  1.016829  0.000000 )  
               b(3) = (  0.000000 -1.016829  1.016829 )  


     PseudoPot. # 1 for Na read from file:
     /home/s1333534/quantum_espresso/qe-6.1/pseudo/Na_pbe_v1.uspp.F.UPF
     MD5 check sum: 76a99c7e9422403d3e93cbc85ab7bccb
     Pseudo is Ultrasoft, Zval =  9.0
     Generated by new atomic code, or converted to UPF format
     Using radial grid of  819 points,  5 beta functions with: 
                l(1) =   0
                l(2) =   0
                l(3) =   1
                l(4) =   1
                l(5) =   2
     Q(r) pseudized with  8 coefficients,  rinner =    1.250   1.250   1.250
                                                       1.250   1.250

     atomic species   valence    mass     pseudopotential
        Na             9.00    22.99000     Na( 1.00)

     48 Sym. Ops., with inversion, found



   Cartesian axes

     site n.     atom                  positions (alat units)
         1           Na  tau(   1) = (   0.0000000   0.0000000   0.0000000  )

     number of k points=   250  Marzari-Vanderbilt smearing, width (Ry)=  0.0200

     Number of k-points >= 100: set verbosity='high' to print them.

     Dense  grid:    23455 G-vectors     FFT dimensions: (  40,  40,  40)

     Smooth grid:     8391 G-vectors     FFT dimensions: (  27,  27,  27)

     Estimated max dynamical RAM per process >      12.76MB

     Estimated total allocated dynamical RAM >      51.04MB

     Initial potential from superposition of free atoms

     starting charge    8.99371, renormalised to    9.00000
     Starting wfc are    5 randomized atomic wfcs +    4 random wfc

     Writing output data file na.bcc.save

     total cpu time spent up to now is      178.4 secs

     per-process dynamical memory:    24.5 Mb

     Self-consistent Calculation

     iteration #  1     ecut=    40.00 Ry     beta=0.70
     Davidson diagonalization with overlap
     c_bands:  1 eigenvalues not converged
     c_bands:  1 eigenvalues not converged
     c_bands:  1 eigenvalues not converged
     c_bands:  1 eigenvalues not converged
     c_bands:  1 eigenvalues not converged
     ethr =  1.00E-06,  avg # of iterations = 12.0

     total cpu time spent up to now is      183.1 secs

     total energy              =     -95.10636985 Ry
     Harris-Foulkes estimate   =     -95.10660446 Ry
     estimated scf accuracy    <       0.00089752 Ry

     iteration #  2     ecut=    40.00 Ry     beta=0.70
     Davidson diagonalization with overlap
     ethr =  9.97E-06,  avg # of iterations =  2.0

     total cpu time spent up to now is      184.7 secs

     total energy              =     -95.10647448 Ry
     Harris-Foulkes estimate   =     -95.10649842 Ry
     estimated scf accuracy    <       0.00010131 Ry

     iteration #  3     ecut=    40.00 Ry     beta=0.70
     Davidson diagonalization with overlap
     ethr =  1.13E-06,  avg # of iterations =  2.0

     total cpu time spent up to now is      186.3 secs

     total energy              =     -95.10648562 Ry
     Harris-Foulkes estimate   =     -95.10648691 Ry
     estimated scf accuracy    <       0.00000643 Ry

     iteration #  4     ecut=    40.00 Ry     beta=0.70
     Davidson diagonalization with overlap
     ethr =  7.14E-08,  avg # of iterations =  1.0

     total cpu time spent up to now is      187.7 secs

     total energy              =     -95.10648620 Ry
     Harris-Foulkes estimate   =     -95.10648616 Ry
     estimated scf accuracy    <          9.9E-09 Ry

     iteration #  5     ecut=    40.00 Ry     beta=0.70
     Davidson diagonalization with overlap
     ethr =  1.10E-10,  avg # of iterations =  3.0

     total cpu time spent up to now is      189.6 secs

     total energy              =     -95.10648623 Ry
     Harris-Foulkes estimate   =     -95.10648623 Ry
     estimated scf accuracy    <          1.6E-09 Ry

     iteration #  6     ecut=    40.00 Ry     beta=0.70
     Davidson diagonalization with overlap
     ethr =  1.76E-11,  avg # of iterations =  1.0

     total cpu time spent up to now is      191.0 secs

     total energy              =     -95.10648623 Ry
     Harris-Foulkes estimate   =     -95.10648623 Ry
     estimated scf accuracy    <          1.3E-10 Ry

     iteration #  7     ecut=    40.00 Ry     beta=0.70
     Davidson diagonalization with overlap
     ethr =  1.44E-12,  avg # of iterations =  1.6

     total cpu time spent up to now is      192.4 secs

     End of self-consistent calculation

     Number of k-points >= 100: set verbosity='high' to print the bands.

     the Fermi energy is     1.7204 ev

!    total energy              =     -95.10648623 Ry
     Harris-Foulkes estimate   =     -95.10648623 Ry
     estimated scf accuracy    <          3.4E-12 Ry

     The total energy is the sum of the following terms:

     one-electron contribution =     -87.54861395 Ry
     hartree contribution      =      44.18150000 Ry
     xc contribution           =     -14.27193856 Ry
     ewald contribution        =     -37.46733975 Ry
     smearing contrib. (-TS)   =      -0.00009398 Ry

     convergence has been achieved in   7 iterations

     Forces acting on atoms (cartesian axes, Ry/au):

     atom    1 type  1   force =     0.00000000    0.00000000    0.00000000

     Total force =     0.000000     Total SCF correction =     0.000000


     Computing stress (Cartesian axis) and pressure

          total   stress  (Ry/bohr**3)                   (kbar)     P=   -0.85
  -0.00000578  -0.00000000   0.00000000         -0.85     -0.00      0.00
  -0.00000000  -0.00000578  -0.00000000         -0.00     -0.85     -0.00
   0.00000000  -0.00000000  -0.00000578          0.00     -0.00     -0.85


     Writing output data file na.bcc.save

     init_run     :      1.74s CPU      1.82s WALL (       2 calls)
     electrons    :    170.41s CPU    179.27s WALL (       9 calls)
     update_pot   :      1.69s CPU      1.69s WALL (       7 calls)
     forces       :      1.41s CPU      1.44s WALL (       9 calls)
     stress       :      6.65s CPU      6.68s WALL (       9 calls)

     Called by init_run:
     wfcinit      :      1.04s CPU      1.10s WALL (       2 calls)
     potinit      :      0.10s CPU      0.10s WALL (       2 calls)

     Called by electrons:
     c_bands      :    136.63s CPU    144.03s WALL (     110 calls)
     sum_band     :     30.65s CPU     32.08s WALL (     110 calls)
     v_of_rho     :      1.39s CPU      1.41s WALL (     118 calls)
     newd         :      1.69s CPU      1.70s WALL (     118 calls)
     mix_rho      :      0.15s CPU      0.15s WALL (     110 calls)

     Called by c_bands:
     init_us_2    :      7.36s CPU      7.36s WALL (   60000 calls)
     cegterg      :    129.18s CPU    136.45s WALL (   27500 calls)

     Called by sum_band:
     sum_band:bec :      0.06s CPU      0.09s WALL (   27500 calls)
     addusdens    :      2.12s CPU      2.13s WALL (     110 calls)

     Called by *egterg:
     h_psi        :    109.05s CPU    115.38s WALL (   76698 calls)
     s_psi        :      1.51s CPU      1.21s WALL (   76698 calls)
     g_psi        :      0.77s CPU      0.77s WALL (   48698 calls)
     cdiaghg      :      9.48s CPU      9.92s WALL (   74198 calls)

     Called by h_psi:
     h_psi:pot    :    108.72s CPU    114.86s WALL (   76698 calls)
     h_psi:calbec :      2.67s CPU      2.17s WALL (   76698 calls)
     vloc_psi     :    105.17s CPU    111.18s WALL (   76698 calls)
     add_vuspsi   :      0.77s CPU      1.31s WALL (   76698 calls)

     General routines
     calbec       :      4.09s CPU      3.62s WALL (  115448 calls)
     fft          :      0.80s CPU      0.82s WALL (    1935 calls)
     ffts         :      0.03s CPU      0.03s WALL (     228 calls)
     fftw         :    119.56s CPU    120.66s WALL ( 1418028 calls)
     interpolate  :      0.12s CPU      0.12s WALL (     228 calls)
     davcio       :      0.00s CPU      0.01s WALL (     500 calls)

     Parallel routines
     fft_scatter  :     23.95s CPU     27.79s WALL ( 1420191 calls)

     PWSCF        :  3m 4.19s CPU     3m13.38s WALL


   This run was terminated on:  15:30:33  20Dec2017            

=------------------------------------------------------------------------------=
   JOB DONE.
=------------------------------------------------------------------------------=
