
     Program PWSCF v.6.1 (svn rev. 13369) starts on 20Dec2017 at 15:54:27 

     This program is part of the open-source Quantum ESPRESSO suite
     for quantum simulation of materials; please cite
         "P. Giannozzi et al., J. Phys.:Condens. Matter 21 395502 (2009);
          URL http://www.quantum-espresso.org", 
     in publications or presentations arising from this work. More details at
     http://www.quantum-espresso.org/quote

     Parallel version (MPI), running on     4 processors
     R & G space division:  proc/nbgrp/npool/nimage =       4
     Waiting for input...
     Reading input from standard input

     Current dimensions of program PWSCF are:
     Max number of different atomic species (ntypx) = 10
     Max number of k-points (npk) =  40000
     Max angular momentum in pseudopotentials (lmaxx) =  3

     Subspace diagonalization in iterative solution of the eigenvalue problem:
     a serial algorithm will be used


     Parallelization info
     --------------------
     sticks:   dense  smooth     PW     G-vecs:    dense   smooth      PW
     Min         287     142     43                 6207     2171     375
     Max         288     144     44                 6210     2172     378
     Sum        1151     571    173                24835     8685    1505



     bravais-lattice index     =            3
     lattice parameter (alat)  =       8.0000  a.u.
     unit-cell volume          =     256.0000 (a.u.)^3
     number of atoms/cell      =            1
     number of atomic types    =            1
     number of electrons       =         9.00
     number of Kohn-Sham states=            9
     kinetic-energy cutoff     =      40.0000  Ry
     charge density cutoff     =     320.0000  Ry
     convergence threshold     =      1.0E-08
     mixing beta               =       0.7000
     number of iterations used =            8  plain     mixing
     Exchange-correlation      = SLA  PW   PBE  PBE ( 1  4  3  4 0 0)
     nstep                     =           50


     celldm(1)=   8.000000  celldm(2)=   0.000000  celldm(3)=   0.000000
     celldm(4)=   0.000000  celldm(5)=   0.000000  celldm(6)=   0.000000

     crystal axes: (cart. coord. in units of alat)
               a(1) = (   0.500000   0.500000   0.500000 )  
               a(2) = (  -0.500000   0.500000   0.500000 )  
               a(3) = (  -0.500000  -0.500000   0.500000 )  

     reciprocal axes: (cart. coord. in units 2 pi/alat)
               b(1) = (  1.000000  0.000000  1.000000 )  
               b(2) = ( -1.000000  1.000000  0.000000 )  
               b(3) = (  0.000000 -1.000000  1.000000 )  


     PseudoPot. # 1 for Na read from file:
     /home/s1333534/quantum_espresso/qe-6.1/pseudo/Na_pbe_v1.uspp.F.UPF
     MD5 check sum: 76a99c7e9422403d3e93cbc85ab7bccb
     Pseudo is Ultrasoft, Zval =  9.0
     Generated by new atomic code, or converted to UPF format
     Using radial grid of  819 points,  5 beta functions with: 
                l(1) =   0
                l(2) =   0
                l(3) =   1
                l(4) =   1
                l(5) =   2
     Q(r) pseudized with  8 coefficients,  rinner =    1.250   1.250   1.250
                                                       1.250   1.250

     atomic species   valence    mass     pseudopotential
        Na             9.00    22.99000     Na( 1.00)

     48 Sym. Ops., with inversion, found



   Cartesian axes

     site n.     atom                  positions (alat units)
         1           Na  tau(   1) = (   0.0000000   0.0000000   0.0000000  )

     number of k points=   250  Marzari-Vanderbilt smearing, width (Ry)=  0.0200

     Number of k-points >= 100: set verbosity='high' to print them.

     Dense  grid:    24835 G-vectors     FFT dimensions: (  40,  40,  40)

     Smooth grid:     8685 G-vectors     FFT dimensions: (  27,  27,  27)

     Estimated max dynamical RAM per process >      13.36MB

     Estimated total allocated dynamical RAM >      53.44MB

     Initial potential from superposition of free atoms

     starting charge    8.99371, renormalised to    9.00000
     Starting wfc are    5 randomized atomic wfcs +    4 random wfc

     total cpu time spent up to now is        1.0 secs

     per-process dynamical memory:    19.6 Mb

     Self-consistent Calculation

     iteration #  1     ecut=    40.00 Ry     beta=0.70
     Davidson diagonalization with overlap
     ethr =  1.00E-02,  avg # of iterations =  5.8

     Threshold (ethr) on eigenvalues was too large:
     Diagonalizing with lowered threshold

     Davidson diagonalization with overlap
     ethr =  9.84E-06,  avg # of iterations =  4.8

     total cpu time spent up to now is        5.6 secs

     total energy              =     -95.10637787 Ry
     Harris-Foulkes estimate   =     -95.10656725 Ry
     estimated scf accuracy    <       0.00088332 Ry

     iteration #  2     ecut=    40.00 Ry     beta=0.70
     Davidson diagonalization with overlap
     ethr =  9.81E-06,  avg # of iterations =  2.0

     total cpu time spent up to now is        7.1 secs

     total energy              =     -95.10647616 Ry
     Harris-Foulkes estimate   =     -95.10649624 Ry
     estimated scf accuracy    <       0.00009724 Ry

     iteration #  3     ecut=    40.00 Ry     beta=0.70
     Davidson diagonalization with overlap
     ethr =  1.08E-06,  avg # of iterations =  2.1

     total cpu time spent up to now is        8.6 secs

     total energy              =     -95.10648758 Ry
     Harris-Foulkes estimate   =     -95.10648858 Ry
     estimated scf accuracy    <       0.00000602 Ry

     iteration #  4     ecut=    40.00 Ry     beta=0.70
     Davidson diagonalization with overlap
     ethr =  6.69E-08,  avg # of iterations =  1.0

     total cpu time spent up to now is       10.0 secs

     total energy              =     -95.10648815 Ry
     Harris-Foulkes estimate   =     -95.10648811 Ry
     estimated scf accuracy    <       0.00000001 Ry

     iteration #  5     ecut=    40.00 Ry     beta=0.70
     Davidson diagonalization with overlap
     ethr =  1.40E-10,  avg # of iterations =  3.0

     total cpu time spent up to now is       11.8 secs

     End of self-consistent calculation

     Number of k-points >= 100: set verbosity='high' to print the bands.

     the Fermi energy is     1.5119 ev

!    total energy              =     -95.10648818 Ry
     Harris-Foulkes estimate   =     -95.10648818 Ry
     estimated scf accuracy    <          1.7E-09 Ry

     The total energy is the sum of the following terms:

     one-electron contribution =     -88.63767028 Ry
     hartree contribution      =      44.64403185 Ry
     xc contribution           =     -14.26551967 Ry
     ewald contribution        =     -36.84723868 Ry
     smearing contrib. (-TS)   =      -0.00009141 Ry

     convergence has been achieved in   5 iterations

     Forces acting on atoms (cartesian axes, Ry/au):

     atom    1 type  1   force =     0.00000000    0.00000000    0.00000000

     Total force =     0.000000     Total SCF correction =     0.000000


     Computing stress (Cartesian axis) and pressure

          total   stress  (Ry/bohr**3)                   (kbar)     P=   -4.40
  -0.00002994  -0.00000000   0.00000000         -4.40     -0.00      0.00
  -0.00000000  -0.00002994   0.00000000         -0.00     -4.40      0.00
   0.00000000   0.00000000  -0.00002994          0.00      0.00     -4.40


     BFGS Geometry Optimization

     number of scf cycles    =   1
     number of bfgs steps    =   0

     enthalpy new            =     -94.9846704801 Ry

     new trust radius        =       0.0404632360 bohr
     new conv_thr            =       0.0000000100 Ry

     new unit-cell volume =    246.41110 a.u.^3 (    36.51436 Ang^3 )
     density =      1.04550 g/cm^3

CELL_PARAMETERS (alat=  8.00000000)
   0.493677619   0.493677619   0.493677619
  -0.493677619   0.493677619   0.493677619
  -0.493677619  -0.493677619   0.493677619

ATOMIC_POSITIONS (crystal)
Na       0.000000000   0.000000000   0.000000000



     Writing output data file na.bcc.save
     NEW-OLD atomic charge density approx. for the potential
     extrapolated charge    8.65002, renormalised to    9.00000

     total cpu time spent up to now is       13.2 secs

     per-process dynamical memory:    31.4 Mb

     Self-consistent Calculation

     iteration #  1     ecut=    40.00 Ry     beta=0.70
     Davidson diagonalization with overlap
     c_bands:  1 eigenvalues not converged
     ethr =  1.00E-06,  avg # of iterations =  4.8

     total cpu time spent up to now is       15.9 secs

     total energy              =     -95.03505498 Ry
     Harris-Foulkes estimate   =     -97.81038702 Ry
     estimated scf accuracy    <       0.04046392 Ry

     iteration #  2     ecut=    40.00 Ry     beta=0.70
     Davidson diagonalization with overlap
     ethr =  4.50E-04,  avg # of iterations =  2.8

     total cpu time spent up to now is       17.9 secs

     total energy              =     -95.10707848 Ry
     Harris-Foulkes estimate   =     -95.13658350 Ry
     estimated scf accuracy    <       0.06694925 Ry

     iteration #  3     ecut=    40.00 Ry     beta=0.70
     Davidson diagonalization with overlap
     ethr =  4.50E-04,  avg # of iterations =  2.0

     total cpu time spent up to now is       19.4 secs

     total energy              =     -95.10672982 Ry
     Harris-Foulkes estimate   =     -95.11191582 Ry
     estimated scf accuracy    <       0.01175416 Ry

     iteration #  4     ecut=    40.00 Ry     beta=0.70
     Davidson diagonalization with overlap
     ethr =  1.31E-04,  avg # of iterations =  1.0

     total cpu time spent up to now is       20.8 secs

     total energy              =     -95.10767758 Ry
     Harris-Foulkes estimate   =     -95.10758458 Ry
     estimated scf accuracy    <       0.00213466 Ry

     iteration #  5     ecut=    40.00 Ry     beta=0.70
     Davidson diagonalization with overlap
     ethr =  2.37E-05,  avg # of iterations =  1.1

     total cpu time spent up to now is       22.1 secs

     total energy              =     -95.10686457 Ry
     Harris-Foulkes estimate   =     -95.10771468 Ry
     estimated scf accuracy    <       0.00239093 Ry

     iteration #  6     ecut=    40.00 Ry     beta=0.70
     Davidson diagonalization with overlap
     ethr =  2.37E-05,  avg # of iterations =  1.0

     total cpu time spent up to now is       23.5 secs

     total energy              =     -95.10678706 Ry
     Harris-Foulkes estimate   =     -95.10698586 Ry
     estimated scf accuracy    <       0.00069576 Ry

     iteration #  7     ecut=    40.00 Ry     beta=0.70
     Davidson diagonalization with overlap
     ethr =  7.73E-06,  avg # of iterations =  1.0

     total cpu time spent up to now is       24.8 secs

     total energy              =     -95.10677807 Ry
     Harris-Foulkes estimate   =     -95.10680994 Ry
     estimated scf accuracy    <       0.00028667 Ry

     iteration #  8     ecut=    40.00 Ry     beta=0.70
     Davidson diagonalization with overlap
     ethr =  3.19E-06,  avg # of iterations =  1.1

     total cpu time spent up to now is       26.2 secs

     total energy              =     -95.10663711 Ry
     Harris-Foulkes estimate   =     -95.10678025 Ry
     estimated scf accuracy    <       0.00022424 Ry

     iteration #  9     ecut=    40.00 Ry     beta=0.70
     Davidson diagonalization with overlap
     ethr =  2.49E-06,  avg # of iterations =  2.0

     total cpu time spent up to now is       27.7 secs

     total energy              =     -95.10667814 Ry
     Harris-Foulkes estimate   =     -95.10667883 Ry
     estimated scf accuracy    <       0.00000105 Ry

     iteration # 10     ecut=    40.00 Ry     beta=0.70
     Davidson diagonalization with overlap
     ethr =  1.16E-08,  avg # of iterations =  2.0

     total cpu time spent up to now is       29.4 secs

     End of self-consistent calculation

     Number of k-points >= 100: set verbosity='high' to print the bands.

     the Fermi energy is     1.6699 ev

!    total energy              =     -95.10667842 Ry
     Harris-Foulkes estimate   =     -95.10667842 Ry
     estimated scf accuracy    <          7.3E-10 Ry

     The total energy is the sum of the following terms:

     one-electron contribution =     -87.80904457 Ry
     hartree contribution      =      44.29206574 Ry
     xc contribution           =     -14.27047604 Ry
     ewald contribution        =     -37.31913017 Ry
     smearing contrib. (-TS)   =      -0.00009337 Ry

     convergence has been achieved in  10 iterations

     Forces acting on atoms (cartesian axes, Ry/au):

     atom    1 type  1   force =     0.00000000    0.00000000    0.00000000

     Total force =     0.000000     Total SCF correction =     0.000000


     Computing stress (Cartesian axis) and pressure

          total   stress  (Ry/bohr**3)                   (kbar)     P=   -1.02
  -0.00000694  -0.00000000   0.00000000         -1.02     -0.00      0.00
  -0.00000000  -0.00000694  -0.00000000         -0.00     -1.02     -0.00
   0.00000000  -0.00000000  -0.00000694          0.00     -0.00     -1.02


     number of scf cycles    =   2
     number of bfgs steps    =   1

     enthalpy old            =     -94.9846704801 Ry
     enthalpy new            =     -94.9894235977 Ry

     CASE: enthalpy_new < enthalpy_old


     WARNING: bfgs curvature condition failed, Theta= 0.860
     new trust radius        =       0.0603098972 bohr
     new conv_thr            =            1.0E-10 Ry

     new unit-cell volume =    232.48144 a.u.^3 (    34.45020 Ang^3 )
     density =      1.10814 g/cm^3

CELL_PARAMETERS (alat=  8.00000000)
   0.484194048   0.484194048   0.484194048
  -0.484194048   0.484194048   0.484194048
  -0.484194048  -0.484194048   0.484194048

ATOMIC_POSITIONS (crystal)
Na       0.000000000   0.000000000   0.000000000



     Writing output data file na.bcc.save
     NEW-OLD atomic charge density approx. for the potential
     extrapolated charge    8.46112, renormalised to    9.00000

     total cpu time spent up to now is       30.8 secs

     per-process dynamical memory:    31.4 Mb

     Self-consistent Calculation

     iteration #  1     ecut=    40.00 Ry     beta=0.70
     Davidson diagonalization with overlap
     ethr =  1.00E-06,  avg # of iterations =  5.2

     total cpu time spent up to now is       33.6 secs

     total energy              =     -94.94724756 Ry
     Harris-Foulkes estimate   =     -99.18502782 Ry
     estimated scf accuracy    <       0.09090790 Ry

     iteration #  2     ecut=    40.00 Ry     beta=0.70
     Davidson diagonalization with overlap
     ethr =  1.01E-03,  avg # of iterations =  2.8

     total cpu time spent up to now is       35.6 secs

     total energy              =     -95.10627002 Ry
     Harris-Foulkes estimate   =     -95.17198470 Ry
     estimated scf accuracy    <       0.14861167 Ry

     iteration #  3     ecut=    40.00 Ry     beta=0.70
     Davidson diagonalization with overlap
     ethr =  1.01E-03,  avg # of iterations =  2.0

     total cpu time spent up to now is       37.1 secs

     total energy              =     -95.10694152 Ry
     Harris-Foulkes estimate   =     -95.11748606 Ry
     estimated scf accuracy    <       0.02479385 Ry

     iteration #  4     ecut=    40.00 Ry     beta=0.70
     Davidson diagonalization with overlap
     ethr =  2.75E-04,  avg # of iterations =  1.0

     total cpu time spent up to now is       38.4 secs

     total energy              =     -95.10783971 Ry
     Harris-Foulkes estimate   =     -95.10861826 Ry
     estimated scf accuracy    <       0.00496046 Ry

     iteration #  5     ecut=    40.00 Ry     beta=0.70
     Davidson diagonalization with overlap
     ethr =  5.51E-05,  avg # of iterations =  1.0

     total cpu time spent up to now is       39.8 secs

     total energy              =     -95.10710928 Ry
     Harris-Foulkes estimate   =     -95.10796630 Ry
     estimated scf accuracy    <       0.00321864 Ry

     iteration #  6     ecut=    40.00 Ry     beta=0.70
     Davidson diagonalization with overlap
     ethr =  3.58E-05,  avg # of iterations =  1.0

     total cpu time spent up to now is       41.1 secs

     total energy              =     -95.10615775 Ry
     Harris-Foulkes estimate   =     -95.10717938 Ry
     estimated scf accuracy    <       0.00150639 Ry

     iteration #  7     ecut=    40.00 Ry     beta=0.70
     Davidson diagonalization with overlap
     ethr =  1.67E-05,  avg # of iterations =  2.0

     total cpu time spent up to now is       42.7 secs

     total energy              =     -95.10651829 Ry
     Harris-Foulkes estimate   =     -95.10650690 Ry
     estimated scf accuracy    <       0.00000160 Ry

     iteration #  8     ecut=    40.00 Ry     beta=0.70
     Davidson diagonalization with overlap
     ethr =  1.77E-08,  avg # of iterations =  3.2

     total cpu time spent up to now is       44.7 secs

     total energy              =     -95.10649871 Ry
     Harris-Foulkes estimate   =     -95.10652350 Ry
     estimated scf accuracy    <       0.00003729 Ry

     iteration #  9     ecut=    40.00 Ry     beta=0.70
     Davidson diagonalization with overlap
     ethr =  1.77E-08,  avg # of iterations =  3.0

     total cpu time spent up to now is       46.5 secs

     total energy              =     -95.10650646 Ry
     Harris-Foulkes estimate   =     -95.10650645 Ry
     estimated scf accuracy    <          2.4E-09 Ry

     iteration # 10     ecut=    40.00 Ry     beta=0.70
     Davidson diagonalization with overlap
     ethr =  2.66E-11,  avg # of iterations =  3.0

     total cpu time spent up to now is       48.5 secs

     total energy              =     -95.10650643 Ry
     Harris-Foulkes estimate   =     -95.10650648 Ry
     estimated scf accuracy    <       0.00000007 Ry

     iteration # 11     ecut=    40.00 Ry     beta=0.70
     Davidson diagonalization with overlap
     ethr =  2.66E-11,  avg # of iterations =  3.0

     total cpu time spent up to now is       50.3 secs

     total energy              =     -95.10650645 Ry
     Harris-Foulkes estimate   =     -95.10650645 Ry
     estimated scf accuracy    <          2.3E-10 Ry

     iteration # 12     ecut=    40.00 Ry     beta=0.70
     Davidson diagonalization with overlap
     ethr =  2.59E-12,  avg # of iterations =  1.0

     total cpu time spent up to now is       51.8 secs

     End of self-consistent calculation

     Number of k-points >= 100: set verbosity='high' to print the bands.

     the Fermi energy is     1.9238 ev

!    total energy              =     -95.10650645 Ry
     Harris-Foulkes estimate   =     -95.10650645 Ry
     estimated scf accuracy    <          4.1E-11 Ry

     The total energy is the sum of the following terms:

     one-electron contribution =     -86.52748710 Ry
     hartree contribution      =      43.74940239 Ry
     xc contribution           =     -14.27825149 Ry
     ewald contribution        =     -38.05007394 Ry
     smearing contrib. (-TS)   =      -0.00009631 Ry

     convergence has been achieved in  12 iterations

     Forces acting on atoms (cartesian axes, Ry/au):

     atom    1 type  1   force =     0.00000000    0.00000000    0.00000000

     Total force =     0.000000     Total SCF correction =     0.000000


     Computing stress (Cartesian axis) and pressure

          total   stress  (Ry/bohr**3)                   (kbar)     P=    4.95
   0.00003367   0.00000000  -0.00000000          4.95      0.00     -0.00
   0.00000000   0.00003367   0.00000000          0.00      4.95      0.00
  -0.00000000   0.00000000   0.00003367         -0.00      0.00      4.95


     number of scf cycles    =   3
     number of bfgs steps    =   2

     enthalpy old            =     -94.9894235977 Ry
     enthalpy new            =     -94.9958800580 Ry

     CASE: enthalpy_new < enthalpy_old

     new trust radius        =       0.0895917152 bohr
     new conv_thr            =            1.0E-10 Ry

     new unit-cell volume =    212.58701 a.u.^3 (    31.50215 Ang^3 )
     density =      1.21185 g/cm^3

CELL_PARAMETERS (alat=  8.00000000)
   0.469968692   0.469968692   0.469968692
  -0.469968692   0.469968692   0.469968692
  -0.469968692  -0.469968692   0.469968692

ATOMIC_POSITIONS (crystal)
Na       0.000000000   0.000000000   0.000000000



     Writing output data file na.bcc.save
     NEW-OLD atomic charge density approx. for the potential
     extrapolated charge    8.15835, renormalised to    9.00000

     total cpu time spent up to now is       53.2 secs

     per-process dynamical memory:    31.4 Mb

     Self-consistent Calculation

     iteration #  1     ecut=    40.00 Ry     beta=0.70
     Davidson diagonalization with overlap
     ethr =  1.00E-06,  avg # of iterations =  5.9

     total cpu time spent up to now is       56.2 secs

     total energy              =     -94.75200377 Ry
     Harris-Foulkes estimate   =    -101.26574042 Ry
     estimated scf accuracy    <       0.20596837 Ry

     iteration #  2     ecut=    40.00 Ry     beta=0.70
     Davidson diagonalization with overlap
     ethr =  2.29E-03,  avg # of iterations =  2.6

     total cpu time spent up to now is       58.2 secs

     total energy              =     -95.10058127 Ry
     Harris-Foulkes estimate   =     -95.24659063 Ry
     estimated scf accuracy    <       0.32767360 Ry

     iteration #  3     ecut=    40.00 Ry     beta=0.70
     Davidson diagonalization with overlap
     ethr =  2.29E-03,  avg # of iterations =  2.0

     total cpu time spent up to now is       59.7 secs

     total energy              =     -95.10683531 Ry
     Harris-Foulkes estimate   =     -95.12704760 Ry
     estimated scf accuracy    <       0.05019491 Ry

     iteration #  4     ecut=    40.00 Ry     beta=0.70
     Davidson diagonalization with overlap
     ethr =  5.58E-04,  avg # of iterations =  1.0

     total cpu time spent up to now is       61.0 secs

     total energy              =     -95.10645109 Ry
     Harris-Foulkes estimate   =     -95.10994349 Ry
     estimated scf accuracy    <       0.01133766 Ry

     iteration #  5     ecut=    40.00 Ry     beta=0.70
     Davidson diagonalization with overlap
     ethr =  1.26E-04,  avg # of iterations =  1.1

     total cpu time spent up to now is       62.4 secs

     total energy              =     -95.10591963 Ry
     Harris-Foulkes estimate   =     -95.10697887 Ry
     estimated scf accuracy    <       0.00410108 Ry

     iteration #  6     ecut=    40.00 Ry     beta=0.70
     Davidson diagonalization with overlap
     ethr =  4.56E-05,  avg # of iterations =  1.0

     total cpu time spent up to now is       63.7 secs

     total energy              =     -95.10461989 Ry
     Harris-Foulkes estimate   =     -95.10600942 Ry
     estimated scf accuracy    <       0.00199001 Ry

     iteration #  7     ecut=    40.00 Ry     beta=0.70
     Davidson diagonalization with overlap
     ethr =  2.21E-05,  avg # of iterations =  2.1

     total cpu time spent up to now is       65.3 secs

     total energy              =     -95.10512182 Ry
     Harris-Foulkes estimate   =     -95.10509982 Ry
     estimated scf accuracy    <       0.00001081 Ry

     iteration #  8     ecut=    40.00 Ry     beta=0.70
     Davidson diagonalization with overlap
     ethr =  1.20E-07,  avg # of iterations =  2.6

     total cpu time spent up to now is       67.1 secs

     total energy              =     -95.10508840 Ry
     Harris-Foulkes estimate   =     -95.10512776 Ry
     estimated scf accuracy    <       0.00007122 Ry

     iteration #  9     ecut=    40.00 Ry     beta=0.70
     Davidson diagonalization with overlap
     ethr =  1.20E-07,  avg # of iterations =  2.0

     total cpu time spent up to now is       68.7 secs

     total energy              =     -95.10509441 Ry
     Harris-Foulkes estimate   =     -95.10509710 Ry
     estimated scf accuracy    <       0.00000401 Ry

     iteration # 10     ecut=    40.00 Ry     beta=0.70
     Davidson diagonalization with overlap
     ethr =  4.46E-08,  avg # of iterations =  2.0

     total cpu time spent up to now is       70.3 secs

     total energy              =     -95.10509526 Ry
     Harris-Foulkes estimate   =     -95.10509526 Ry
     estimated scf accuracy    <          4.9E-09 Ry

     iteration # 11     ecut=    40.00 Ry     beta=0.70
     Davidson diagonalization with overlap
     ethr =  5.49E-11,  avg # of iterations =  2.0

     total cpu time spent up to now is       71.9 secs

     total energy              =     -95.10509526 Ry
     Harris-Foulkes estimate   =     -95.10509526 Ry
     estimated scf accuracy    <          5.4E-09 Ry

     iteration # 12     ecut=    40.00 Ry     beta=0.70
     Davidson diagonalization with overlap
     ethr =  5.49E-11,  avg # of iterations =  1.0

     total cpu time spent up to now is       73.3 secs

     total energy              =     -95.10509526 Ry
     Harris-Foulkes estimate   =     -95.10509526 Ry
     estimated scf accuracy    <          2.3E-09 Ry

     iteration # 13     ecut=    40.00 Ry     beta=0.70
     Davidson diagonalization with overlap
     ethr =  2.54E-11,  avg # of iterations =  1.0

     total cpu time spent up to now is       74.6 secs

     total energy              =     -95.10509526 Ry
     Harris-Foulkes estimate   =     -95.10509526 Ry
     estimated scf accuracy    <          4.3E-10 Ry

     iteration # 14     ecut=    40.00 Ry     beta=0.70
     Davidson diagonalization with overlap
     ethr =  4.80E-12,  avg # of iterations =  2.0

     total cpu time spent up to now is       76.2 secs

     End of self-consistent calculation

     Number of k-points >= 100: set verbosity='high' to print the bands.

     the Fermi energy is     2.3465 ev

!    total energy              =     -95.10509526 Ry
     Harris-Foulkes estimate   =     -95.10509526 Ry
     estimated scf accuracy    <          9.9E-14 Ry

     The total energy is the sum of the following terms:

     one-electron contribution =     -84.51304156 Ry
     hartree contribution      =      42.90061582 Ry
     xc contribution           =     -14.29076768 Ry
     ewald contribution        =     -39.20180145 Ry
     smearing contrib. (-TS)   =      -0.00010039 Ry

     convergence has been achieved in  14 iterations

     Forces acting on atoms (cartesian axes, Ry/au):

     atom    1 type  1   force =     0.00000000    0.00000000    0.00000000

     Total force =     0.000000     Total SCF correction =     0.000000


     Computing stress (Cartesian axis) and pressure

          total   stress  (Ry/bohr**3)                   (kbar)     P=   16.45
   0.00011183   0.00000000  -0.00000000         16.45      0.00     -0.00
  -0.00000000   0.00011183   0.00000000         -0.00     16.45      0.00
  -0.00000000   0.00000000   0.00011183         -0.00      0.00     16.45


     number of scf cycles    =   4
     number of bfgs steps    =   3

     enthalpy old            =     -94.9958800580 Ry
     enthalpy new            =     -95.0039356410 Ry

     CASE: enthalpy_new < enthalpy_old

     new trust radius        =       0.1323987395 bohr
     new conv_thr            =            1.0E-10 Ry

     new unit-cell volume =    184.92550 a.u.^3 (    27.40313 Ang^3 )
     density =      1.39312 g/cm^3

CELL_PARAMETERS (alat=  8.00000000)
   0.448630657   0.448630657   0.448630657
  -0.448630657   0.448630657   0.448630657
  -0.448630657  -0.448630657   0.448630657

ATOMIC_POSITIONS (crystal)
Na       0.000000000   0.000000000   0.000000000



     Writing output data file na.bcc.save
     NEW-OLD atomic charge density approx. for the potential
     extrapolated charge    7.65470, renormalised to    9.00000

     total cpu time spent up to now is       77.6 secs

     per-process dynamical memory:    31.4 Mb

     Self-consistent Calculation

     iteration #  1     ecut=    40.00 Ry     beta=0.70
     Davidson diagonalization with overlap
     ethr =  1.00E-06,  avg # of iterations =  6.6

     total cpu time spent up to now is       80.7 secs

     total energy              =     -94.31876400 Ry
     Harris-Foulkes estimate   =    -104.39871896 Ry
     estimated scf accuracy    <       0.47897035 Ry

     iteration #  2     ecut=    40.00 Ry     beta=0.70
     Davidson diagonalization with overlap
     ethr =  5.32E-03,  avg # of iterations =  2.5

     total cpu time spent up to now is       82.7 secs

     total energy              =     -95.07544691 Ry
     Harris-Foulkes estimate   =     -95.39855811 Ry
     estimated scf accuracy    <       0.71224345 Ry

     iteration #  3     ecut=    40.00 Ry     beta=0.70
     Davidson diagonalization with overlap
     ethr =  5.32E-03,  avg # of iterations =  2.0

     total cpu time spent up to now is       84.1 secs

     total energy              =     -95.10218539 Ry
     Harris-Foulkes estimate   =     -95.13961478 Ry
     estimated scf accuracy    <       0.09341664 Ry

     iteration #  4     ecut=    40.00 Ry     beta=0.70
     Davidson diagonalization with overlap
     ethr =  1.04E-03,  avg # of iterations =  1.1

     total cpu time spent up to now is       85.5 secs

     total energy              =     -95.10059550 Ry
     Harris-Foulkes estimate   =     -95.10854010 Ry
     estimated scf accuracy    <       0.02018100 Ry

     iteration #  5     ecut=    40.00 Ry     beta=0.70
     Davidson diagonalization with overlap
     ethr =  2.24E-04,  avg # of iterations =  1.2

     total cpu time spent up to now is       86.8 secs

     total energy              =     -95.09992249 Ry
     Harris-Foulkes estimate   =     -95.10202939 Ry
     estimated scf accuracy    <       0.00459936 Ry

     iteration #  6     ecut=    40.00 Ry     beta=0.70
     Davidson diagonalization with overlap
     ethr =  5.11E-05,  avg # of iterations =  1.3

     total cpu time spent up to now is       88.2 secs

     total energy              =     -95.09975719 Ry
     Harris-Foulkes estimate   =     -95.10028534 Ry
     estimated scf accuracy    <       0.00074180 Ry

     iteration #  7     ecut=    40.00 Ry     beta=0.70
     Davidson diagonalization with overlap
     ethr =  8.24E-06,  avg # of iterations =  2.4

     total cpu time spent up to now is       89.9 secs

     total energy              =     -95.09995202 Ry
     Harris-Foulkes estimate   =     -95.09995857 Ry
     estimated scf accuracy    <       0.00000775 Ry

     iteration #  8     ecut=    40.00 Ry     beta=0.70
     Davidson diagonalization with overlap
     ethr =  8.61E-08,  avg # of iterations =  2.1

     total cpu time spent up to now is       91.5 secs

     total energy              =     -95.09995443 Ry
     Harris-Foulkes estimate   =     -95.09995644 Ry
     estimated scf accuracy    <       0.00000291 Ry

     iteration #  9     ecut=    40.00 Ry     beta=0.70
     Davidson diagonalization with overlap
     ethr =  3.24E-08,  avg # of iterations =  2.0

     total cpu time spent up to now is       93.2 secs

     total energy              =     -95.09995518 Ry
     Harris-Foulkes estimate   =     -95.09995523 Ry
     estimated scf accuracy    <       0.00000008 Ry

     iteration # 10     ecut=    40.00 Ry     beta=0.70
     Davidson diagonalization with overlap
     ethr =  9.22E-10,  avg # of iterations =  2.0

     total cpu time spent up to now is       94.7 secs

     total energy              =     -95.09995520 Ry
     Harris-Foulkes estimate   =     -95.09995520 Ry
     estimated scf accuracy    <          2.9E-10 Ry

     iteration # 11     ecut=    40.00 Ry     beta=0.70
     Davidson diagonalization with overlap
     ethr =  3.17E-12,  avg # of iterations =  1.7

     total cpu time spent up to now is       96.2 secs

     total energy              =     -95.09995520 Ry
     Harris-Foulkes estimate   =     -95.09995520 Ry
     estimated scf accuracy    <          2.5E-10 Ry

     iteration # 12     ecut=    40.00 Ry     beta=0.70
     Davidson diagonalization with overlap
     ethr =  2.76E-12,  avg # of iterations =  1.0

     total cpu time spent up to now is       97.5 secs

     total energy              =     -95.09995520 Ry
     Harris-Foulkes estimate   =     -95.09995520 Ry
     estimated scf accuracy    <          2.6E-10 Ry

     iteration # 13     ecut=    40.00 Ry     beta=0.70
     Davidson diagonalization with overlap
     ethr =  2.76E-12,  avg # of iterations =  2.0

     total cpu time spent up to now is       99.1 secs

     total energy              =     -95.09995520 Ry
     Harris-Foulkes estimate   =     -95.09995520 Ry
     estimated scf accuracy    <          2.3E-09 Ry

     iteration # 14     ecut=    40.00 Ry     beta=0.70
     Davidson diagonalization with overlap
     ethr =  2.76E-12,  avg # of iterations =  2.8

     total cpu time spent up to now is      100.8 secs

     End of self-consistent calculation

     Number of k-points >= 100: set verbosity='high' to print the bands.

     the Fermi energy is     3.0929 ev

!    total energy              =     -95.09995520 Ry
     Harris-Foulkes estimate   =     -95.09995520 Ry
     estimated scf accuracy    <          2.2E-14 Ry

     The total energy is the sum of the following terms:

     one-electron contribution =     -81.26394560 Ry
     hartree contribution      =      41.54201284 Ry
     xc contribution           =     -14.31157722 Ry
     ewald contribution        =     -41.06634055 Ry
     smearing contrib. (-TS)   =      -0.00010466 Ry

     convergence has been achieved in  14 iterations

     Forces acting on atoms (cartesian axes, Ry/au):

     atom    1 type  1   force =     0.00000000    0.00000000    0.00000000

     Total force =     0.000000     Total SCF correction =     0.000000


     Computing stress (Cartesian axis) and pressure

          total   stress  (Ry/bohr**3)                   (kbar)     P=   40.18
   0.00027314  -0.00000000   0.00000000         40.18     -0.00      0.00
  -0.00000000   0.00027314  -0.00000000         -0.00     40.18     -0.00
   0.00000000  -0.00000000   0.00027314          0.00     -0.00     40.18


     number of scf cycles    =   5
     number of bfgs steps    =   4

     enthalpy old            =     -95.0039356410 Ry
     enthalpy new            =     -95.0119583249 Ry

     CASE: enthalpy_new < enthalpy_old

     new trust radius        =       0.1332680087 bohr
     new conv_thr            =            1.0E-10 Ry

     new unit-cell volume =    159.05163 a.u.^3 (    23.56902 Ang^3 )
     density =      1.61974 g/cm^3

CELL_PARAMETERS (alat=  8.00000000)
   0.426647682   0.426647682   0.426647682
  -0.426647682   0.426647682   0.426647682
  -0.426647682  -0.426647682   0.426647682

ATOMIC_POSITIONS (crystal)
Na       0.000000000   0.000000000   0.000000000



     Writing output data file na.bcc.save
     NEW-OLD atomic charge density approx. for the potential
     extrapolated charge    7.53694, renormalised to    9.00000

     total cpu time spent up to now is      102.2 secs

     per-process dynamical memory:    31.4 Mb

     Self-consistent Calculation

     iteration #  1     ecut=    40.00 Ry     beta=0.70
     Davidson diagonalization with overlap
     ethr =  1.00E-06,  avg # of iterations =  6.2

     total cpu time spent up to now is      105.3 secs

     total energy              =     -94.20715612 Ry
     Harris-Foulkes estimate   =    -104.69045767 Ry
     estimated scf accuracy    <       0.55123069 Ry

     iteration #  2     ecut=    40.00 Ry     beta=0.70
     Davidson diagonalization with overlap
     ethr =  6.12E-03,  avg # of iterations =  2.2

     total cpu time spent up to now is      107.2 secs

     total energy              =     -95.05841304 Ry
     Harris-Foulkes estimate   =     -95.42366897 Ry
     estimated scf accuracy    <       0.80119921 Ry

     iteration #  3     ecut=    40.00 Ry     beta=0.70
     Davidson diagonalization with overlap
     ethr =  6.12E-03,  avg # of iterations =  2.0

     total cpu time spent up to now is      108.7 secs

     total energy              =     -95.09093827 Ry
     Harris-Foulkes estimate   =     -95.13224734 Ry
     estimated scf accuracy    <       0.10136523 Ry

     iteration #  4     ecut=    40.00 Ry     beta=0.70
     Davidson diagonalization with overlap
     ethr =  1.13E-03,  avg # of iterations =  1.2

     total cpu time spent up to now is      110.1 secs

     total energy              =     -95.09018321 Ry
     Harris-Foulkes estimate   =     -95.09852518 Ry
     estimated scf accuracy    <       0.02030396 Ry

     iteration #  5     ecut=    40.00 Ry     beta=0.70
     Davidson diagonalization with overlap
     ethr =  2.26E-04,  avg # of iterations =  1.3

     total cpu time spent up to now is      111.4 secs

     total energy              =     -95.08936585 Ry
     Harris-Foulkes estimate   =     -95.09173761 Ry
     estimated scf accuracy    <       0.00419081 Ry

     iteration #  6     ecut=    40.00 Ry     beta=0.70
     Davidson diagonalization with overlap
     ethr =  4.66E-05,  avg # of iterations =  2.1

     total cpu time spent up to now is      112.9 secs

     total energy              =     -95.08978392 Ry
     Harris-Foulkes estimate   =     -95.08993091 Ry
     estimated scf accuracy    <       0.00019446 Ry

     iteration #  7     ecut=    40.00 Ry     beta=0.70
     Davidson diagonalization with overlap
     ethr =  2.16E-06,  avg # of iterations =  2.7

     total cpu time spent up to now is      114.7 secs

     total energy              =     -95.08984849 Ry
     Harris-Foulkes estimate   =     -95.08985944 Ry
     estimated scf accuracy    <       0.00001307 Ry

     iteration #  8     ecut=    40.00 Ry     beta=0.70
     Davidson diagonalization with overlap
     ethr =  1.45E-07,  avg # of iterations =  2.0

     total cpu time spent up to now is      116.3 secs

     total energy              =     -95.08985395 Ry
     Harris-Foulkes estimate   =     -95.08985666 Ry
     estimated scf accuracy    <       0.00000697 Ry

     iteration #  9     ecut=    40.00 Ry     beta=0.70
     Davidson diagonalization with overlap
     ethr =  7.75E-08,  avg # of iterations =  1.0

     total cpu time spent up to now is      117.6 secs

     total energy              =     -95.08985314 Ry
     Harris-Foulkes estimate   =     -95.08985431 Ry
     estimated scf accuracy    <       0.00000171 Ry

     iteration # 10     ecut=    40.00 Ry     beta=0.70
     Davidson diagonalization with overlap
     ethr =  1.90E-08,  avg # of iterations =  2.0

     total cpu time spent up to now is      119.2 secs

     total energy              =     -95.08985358 Ry
     Harris-Foulkes estimate   =     -95.08985359 Ry
     estimated scf accuracy    <       0.00000002 Ry

     iteration # 11     ecut=    40.00 Ry     beta=0.70
     Davidson diagonalization with overlap
     ethr =  1.72E-10,  avg # of iterations =  2.0

     total cpu time spent up to now is      120.8 secs

     total energy              =     -95.08985359 Ry
     Harris-Foulkes estimate   =     -95.08985359 Ry
     estimated scf accuracy    <          4.0E-10 Ry

     iteration # 12     ecut=    40.00 Ry     beta=0.70
     Davidson diagonalization with overlap
     ethr =  4.42E-12,  avg # of iterations =  1.1

     total cpu time spent up to now is      122.2 secs

     End of self-consistent calculation

     Number of k-points >= 100: set verbosity='high' to print the bands.

     the Fermi energy is     4.0388 ev

!    total energy              =     -95.08985359 Ry
     Harris-Foulkes estimate   =     -95.08985359 Ry
     estimated scf accuracy    <          4.9E-11 Ry

     The total energy is the sum of the following terms:

     one-electron contribution =     -77.59541999 Ry
     hartree contribution      =      40.02411360 Ry
     xc contribution           =     -14.33616257 Ry
     ewald contribution        =     -43.18227925 Ry
     smearing contrib. (-TS)   =      -0.00010539 Ry

     convergence has been achieved in  12 iterations

     Forces acting on atoms (cartesian axes, Ry/au):

     atom    1 type  1   force =     0.00000000    0.00000000    0.00000000

     Total force =     0.000000     Total SCF correction =     0.000000


     Computing stress (Cartesian axis) and pressure

          total   stress  (Ry/bohr**3)                   (kbar)     P=   78.32
   0.00053240  -0.00000000  -0.00000000         78.32     -0.00     -0.00
  -0.00000000   0.00053240  -0.00000000         -0.00     78.32     -0.00
  -0.00000000   0.00000000   0.00053240         -0.00      0.00     78.32


     number of scf cycles    =   6
     number of bfgs steps    =   5

     enthalpy old            =     -95.0119583249 Ry
     enthalpy new            =     -95.0141688050 Ry

     CASE: enthalpy_new < enthalpy_old

     new trust radius        =       0.0261837255 bohr
     new conv_thr            =            1.0E-10 Ry

     new unit-cell volume =    164.05649 a.u.^3 (    24.31066 Ang^3 )
     density =      1.57033 g/cm^3

CELL_PARAMETERS (alat=  8.00000000)
   0.431076642   0.431076642   0.431076642
  -0.431076642   0.431076642   0.431076642
  -0.431076642  -0.431076642   0.431076642

ATOMIC_POSITIONS (crystal)
Na       0.000000000   0.000000000   0.000000000



     Writing output data file na.bcc.save
     NEW-OLD atomic charge density approx. for the potential
     extrapolated charge    9.27437, renormalised to    9.00000

     total cpu time spent up to now is      123.6 secs

     per-process dynamical memory:    31.4 Mb

     Self-consistent Calculation

     iteration #  1     ecut=    40.00 Ry     beta=0.70
     Davidson diagonalization with overlap
     ethr =  1.00E-06,  avg # of iterations =  3.9

     total cpu time spent up to now is      126.1 secs

     total energy              =     -95.03926341 Ry
     Harris-Foulkes estimate   =     -93.19317270 Ry
     estimated scf accuracy    <       0.02965361 Ry

     iteration #  2     ecut=    40.00 Ry     beta=0.70
     Davidson diagonalization with overlap
     ethr =  3.29E-04,  avg # of iterations =  3.0

     total cpu time spent up to now is      128.1 secs

     total energy              =     -95.09388370 Ry
     Harris-Foulkes estimate   =     -95.11569023 Ry
     estimated scf accuracy    <       0.04976019 Ry

     iteration #  3     ecut=    40.00 Ry     beta=0.70
     Davidson diagonalization with overlap
     ethr =  3.29E-04,  avg # of iterations =  1.2

     total cpu time spent up to now is      129.5 secs

     total energy              =     -95.09377412 Ry
     Harris-Foulkes estimate   =     -95.09695305 Ry
     estimated scf accuracy    <       0.01030652 Ry

     iteration #  4     ecut=    40.00 Ry     beta=0.70
     Davidson diagonalization with overlap
     ethr =  1.15E-04,  avg # of iterations =  1.0

     total cpu time spent up to now is      130.8 secs

     total energy              =     -95.09325836 Ry
     Harris-Foulkes estimate   =     -95.09417304 Ry
     estimated scf accuracy    <       0.00387639 Ry

     iteration #  5     ecut=    40.00 Ry     beta=0.70
     Davidson diagonalization with overlap
     ethr =  4.31E-05,  avg # of iterations =  1.0

     total cpu time spent up to now is      132.2 secs

     total energy              =     -95.09272197 Ry
     Harris-Foulkes estimate   =     -95.09332942 Ry
     estimated scf accuracy    <       0.00205966 Ry

     iteration #  6     ecut=    40.00 Ry     beta=0.70
     Davidson diagonalization with overlap
     ethr =  2.29E-05,  avg # of iterations =  1.0

     total cpu time spent up to now is      133.5 secs

     total energy              =     -95.09230162 Ry
     Harris-Foulkes estimate   =     -95.09277014 Ry
     estimated scf accuracy    <       0.00089433 Ry

     iteration #  7     ecut=    40.00 Ry     beta=0.70
     Davidson diagonalization with overlap
     ethr =  9.94E-06,  avg # of iterations =  1.4

     total cpu time spent up to now is      134.9 secs

     total energy              =     -95.09236984 Ry
     Harris-Foulkes estimate   =     -95.09239454 Ry
     estimated scf accuracy    <       0.00008227 Ry

     iteration #  8     ecut=    40.00 Ry     beta=0.70
     Davidson diagonalization with overlap
     ethr =  9.14E-07,  avg # of iterations =  1.5

     total cpu time spent up to now is      136.3 secs

     total energy              =     -95.09235462 Ry
     Harris-Foulkes estimate   =     -95.09237497 Ry
     estimated scf accuracy    <       0.00003265 Ry

     iteration #  9     ecut=    40.00 Ry     beta=0.70
     Davidson diagonalization with overlap
     ethr =  3.63E-07,  avg # of iterations =  2.0

     total cpu time spent up to now is      137.8 secs

     total energy              =     -95.09236018 Ry
     Harris-Foulkes estimate   =     -95.09236007 Ry
     estimated scf accuracy    <       0.00000044 Ry

     iteration # 10     ecut=    40.00 Ry     beta=0.70
     Davidson diagonalization with overlap
     ethr =  4.87E-09,  avg # of iterations =  1.5

     total cpu time spent up to now is      139.2 secs

     total energy              =     -95.09235971 Ry
     Harris-Foulkes estimate   =     -95.09236021 Ry
     estimated scf accuracy    <       0.00000068 Ry

     iteration # 11     ecut=    40.00 Ry     beta=0.70
     Davidson diagonalization with overlap
     ethr =  4.87E-09,  avg # of iterations =  2.0

     total cpu time spent up to now is      140.9 secs

     total energy              =     -95.09235990 Ry
     Harris-Foulkes estimate   =     -95.09235991 Ry
     estimated scf accuracy    <       0.00000003 Ry

     iteration # 12     ecut=    40.00 Ry     beta=0.70
     Davidson diagonalization with overlap
     ethr =  3.15E-10,  avg # of iterations =  1.0

     total cpu time spent up to now is      142.2 secs

     total energy              =     -95.09235990 Ry
     Harris-Foulkes estimate   =     -95.09235990 Ry
     estimated scf accuracy    <          7.6E-09 Ry

     iteration # 13     ecut=    40.00 Ry     beta=0.70
     Davidson diagonalization with overlap
     ethr =  8.48E-11,  avg # of iterations =  2.0

     total cpu time spent up to now is      143.7 secs

     total energy              =     -95.09235990 Ry
     Harris-Foulkes estimate   =     -95.09235990 Ry
     estimated scf accuracy    <          3.5E-10 Ry

     iteration # 14     ecut=    40.00 Ry     beta=0.70
     Davidson diagonalization with overlap
     ethr =  3.94E-12,  avg # of iterations =  2.0

     total cpu time spent up to now is      145.4 secs

     total energy              =     -95.09235990 Ry
     Harris-Foulkes estimate   =     -95.09235990 Ry
     estimated scf accuracy    <          1.2E-09 Ry

     iteration # 15     ecut=    40.00 Ry     beta=0.70
     Davidson diagonalization with overlap
     ethr =  3.94E-12,  avg # of iterations =  2.0

     total cpu time spent up to now is      147.0 secs

     End of self-consistent calculation

     Number of k-points >= 100: set verbosity='high' to print the bands.

     the Fermi energy is     3.8313 ev

!    total energy              =     -95.09235990 Ry
     Harris-Foulkes estimate   =     -95.09235990 Ry
     estimated scf accuracy    <          8.2E-12 Ry

     The total energy is the sum of the following terms:

     one-electron contribution =     -78.36294978 Ry
     hartree contribution      =      40.34022069 Ry
     xc contribution           =     -14.33090861 Ry
     ewald contribution        =     -42.73861663 Ry
     smearing contrib. (-TS)   =      -0.00010559 Ry

     convergence has been achieved in  15 iterations

     Forces acting on atoms (cartesian axes, Ry/au):

     atom    1 type  1   force =     0.00000000    0.00000000    0.00000000

     Total force =     0.000000     Total SCF correction =     0.000000


     Computing stress (Cartesian axis) and pressure

          total   stress  (Ry/bohr**3)                   (kbar)     P=   69.10
   0.00046970  -0.00000000  -0.00000000         69.10     -0.00     -0.00
  -0.00000000   0.00046970  -0.00000000         -0.00     69.10     -0.00
  -0.00000000  -0.00000000   0.00046970         -0.00     -0.00     69.10


     number of scf cycles    =   7
     number of bfgs steps    =   6

     enthalpy old            =     -95.0141688050 Ry
     enthalpy new            =     -95.0142935516 Ry

     CASE: enthalpy_new < enthalpy_old

     new trust radius        =       0.0026307681 bohr
     new conv_thr            =            1.0E-10 Ry

     new unit-cell volume =    163.55157 a.u.^3 (    24.23584 Ang^3 )
     density =      1.57518 g/cm^3

CELL_PARAMETERS (alat=  8.00000000)
   0.430633941   0.430633941   0.430633941
  -0.430633941   0.430633941   0.430633941
  -0.430633941  -0.430633941   0.430633941

ATOMIC_POSITIONS (crystal)
Na       0.000000000   0.000000000   0.000000000



     Writing output data file na.bcc.save
     NEW-OLD atomic charge density approx. for the potential
     extrapolated charge    8.97223, renormalised to    9.00000

     total cpu time spent up to now is      148.5 secs

     per-process dynamical memory:    31.4 Mb

     Self-consistent Calculation

     iteration #  1     ecut=    40.00 Ry     beta=0.70
     Davidson diagonalization with overlap
     ethr =  1.00E-06,  avg # of iterations =  2.0

     total cpu time spent up to now is      150.3 secs

     total energy              =     -95.09163823 Ry
     Harris-Foulkes estimate   =     -95.28330250 Ry
     estimated scf accuracy    <       0.00027115 Ry

     iteration #  2     ecut=    40.00 Ry     beta=0.70
     Davidson diagonalization with overlap
     ethr =  3.01E-06,  avg # of iterations =  2.9

     total cpu time spent up to now is      152.3 secs

     total energy              =     -95.09212952 Ry
     Harris-Foulkes estimate   =     -95.09232863 Ry
     estimated scf accuracy    <       0.00045430 Ry

     iteration #  3     ecut=    40.00 Ry     beta=0.70
     Davidson diagonalization with overlap
     ethr =  3.01E-06,  avg # of iterations =  1.4

     total cpu time spent up to now is      153.7 secs

     total energy              =     -95.09213708 Ry
     Harris-Foulkes estimate   =     -95.09215963 Ry
     estimated scf accuracy    <       0.00008773 Ry

     iteration #  4     ecut=    40.00 Ry     beta=0.70
     Davidson diagonalization with overlap
     ethr =  9.75E-07,  avg # of iterations =  1.0

     total cpu time spent up to now is      155.0 secs

     total energy              =     -95.09212830 Ry
     Harris-Foulkes estimate   =     -95.09213972 Ry
     estimated scf accuracy    <       0.00004005 Ry

     iteration #  5     ecut=    40.00 Ry     beta=0.70
     Davidson diagonalization with overlap
     ethr =  4.45E-07,  avg # of iterations =  1.0

     total cpu time spent up to now is      156.4 secs

     total energy              =     -95.09212412 Ry
     Harris-Foulkes estimate   =     -95.09212926 Ry
     estimated scf accuracy    <       0.00001764 Ry

     iteration #  6     ecut=    40.00 Ry     beta=0.70
     Davidson diagonalization with overlap
     ethr =  1.96E-07,  avg # of iterations =  1.0

     total cpu time spent up to now is      157.7 secs

     total energy              =     -95.09212141 Ry
     Harris-Foulkes estimate   =     -95.09212458 Ry
     estimated scf accuracy    <       0.00000748 Ry

     iteration #  7     ecut=    40.00 Ry     beta=0.70
     Davidson diagonalization with overlap
     ethr =  8.31E-08,  avg # of iterations =  1.0

     total cpu time spent up to now is      159.1 secs

     total energy              =     -95.09212081 Ry
     Harris-Foulkes estimate   =     -95.09212186 Ry
     estimated scf accuracy    <       0.00000162 Ry

     iteration #  8     ecut=    40.00 Ry     beta=0.70
     Davidson diagonalization with overlap
     ethr =  1.80E-08,  avg # of iterations =  2.0

     total cpu time spent up to now is      160.6 secs

     total energy              =     -95.09212114 Ry
     Harris-Foulkes estimate   =     -95.09212114 Ry
     estimated scf accuracy    <          4.5E-09 Ry

     iteration #  9     ecut=    40.00 Ry     beta=0.70
     Davidson diagonalization with overlap
     ethr =  4.96E-11,  avg # of iterations =  1.8

     total cpu time spent up to now is      162.1 secs

     total energy              =     -95.09212114 Ry
     Harris-Foulkes estimate   =     -95.09212114 Ry
     estimated scf accuracy    <          3.4E-09 Ry

     iteration # 10     ecut=    40.00 Ry     beta=0.70
     Davidson diagonalization with overlap
     ethr =  3.78E-11,  avg # of iterations =  2.0

     total cpu time spent up to now is      163.7 secs

     End of self-consistent calculation

     Number of k-points >= 100: set verbosity='high' to print the bands.

     the Fermi energy is     3.8517 ev

!    total energy              =     -95.09212114 Ry
     Harris-Foulkes estimate   =     -95.09212114 Ry
     estimated scf accuracy    <          6.2E-11 Ry

     The total energy is the sum of the following terms:

     one-electron contribution =     -78.28689901 Ry
     hartree contribution      =      40.30886216 Ry
     xc contribution           =     -14.33142588 Ry
     ewald contribution        =     -42.78255283 Ry
     smearing contrib. (-TS)   =      -0.00010557 Ry

     convergence has been achieved in  10 iterations

     Forces acting on atoms (cartesian axes, Ry/au):

     atom    1 type  1   force =     0.00000000    0.00000000    0.00000000

     Total force =     0.000000     Total SCF correction =     0.000000


     Computing stress (Cartesian axis) and pressure

          total   stress  (Ry/bohr**3)                   (kbar)     P=   69.98
   0.00047573   0.00000000  -0.00000000         69.98      0.00     -0.00
   0.00000000   0.00047573   0.00000000          0.00     69.98      0.00
  -0.00000000   0.00000000   0.00047573         -0.00      0.00     69.98


     bfgs converged in   8 scf cycles and   7 bfgs steps
     (criteria: energy <  1.0E-04 Ry, force <  1.0E-03Ry/Bohr, cell <  5.0E-01kbar)

     End of BFGS Geometry Optimization

     Final enthalpy =     -95.0142950599 Ry
Begin final coordinates
     new unit-cell volume =    163.55157 a.u.^3 (    24.23584 Ang^3 )
     density =      1.57518 g/cm^3

CELL_PARAMETERS (alat=  8.00000000)
   0.430633941   0.430633941   0.430633941
  -0.430633941   0.430633941   0.430633941
  -0.430633941  -0.430633941   0.430633941

ATOMIC_POSITIONS (crystal)
Na       0.000000000   0.000000000   0.000000000
End final coordinates



     A final scf calculation at the relaxed structure.
     The G-vectors are recalculated for the final unit cell
     Results may differ from those at the preceding step.

     Parallelization info
     --------------------
     sticks:   dense  smooth     PW     G-vecs:    dense   smooth      PW
     Min         211     104     34                 3926     1370     263
     Max         212     105     35                 3928     1371     265
     Sum         845     419    137                15707     5481    1055



     bravais-lattice index     =            3
     lattice parameter (alat)  =       8.0000  a.u.
     unit-cell volume          =     163.5516 (a.u.)^3
     number of atoms/cell      =            1
     number of atomic types    =            1
     number of electrons       =         9.00
     number of Kohn-Sham states=            9
     kinetic-energy cutoff     =      40.0000  Ry
     charge density cutoff     =     320.0000  Ry
     convergence threshold     =      1.0E-10
     mixing beta               =       0.7000
     number of iterations used =            8  plain     mixing
     Exchange-correlation      = SLA  PW   PBE  PBE ( 1  4  3  4 0 0)

     celldm(1)=   8.000000  celldm(2)=   0.000000  celldm(3)=   0.000000
     celldm(4)=   0.000000  celldm(5)=   0.000000  celldm(6)=   0.000000

     crystal axes: (cart. coord. in units of alat)
               a(1) = (   0.430634   0.430634   0.430634 )  
               a(2) = (  -0.430634   0.430634   0.430634 )  
               a(3) = (  -0.430634  -0.430634   0.430634 )  

     reciprocal axes: (cart. coord. in units 2 pi/alat)
               b(1) = (  1.161079  0.000000  1.161079 )  
               b(2) = ( -1.161079  1.161079  0.000000 )  
               b(3) = ( -0.000000 -1.161079  1.161079 )  


     PseudoPot. # 1 for Na read from file:
     /home/s1333534/quantum_espresso/qe-6.1/pseudo/Na_pbe_v1.uspp.F.UPF
     MD5 check sum: 76a99c7e9422403d3e93cbc85ab7bccb
     Pseudo is Ultrasoft, Zval =  9.0
     Generated by new atomic code, or converted to UPF format
     Using radial grid of  819 points,  5 beta functions with: 
                l(1) =   0
                l(2) =   0
                l(3) =   1
                l(4) =   1
                l(5) =   2
     Q(r) pseudized with  8 coefficients,  rinner =    1.250   1.250   1.250
                                                       1.250   1.250

     atomic species   valence    mass     pseudopotential
        Na             9.00    22.99000     Na( 1.00)

     48 Sym. Ops., with inversion, found



   Cartesian axes

     site n.     atom                  positions (alat units)
         1           Na  tau(   1) = (   0.0000000   0.0000000   0.0000000  )

     number of k points=   250  Marzari-Vanderbilt smearing, width (Ry)=  0.0200

     Number of k-points >= 100: set verbosity='high' to print them.

     Dense  grid:    15707 G-vectors     FFT dimensions: (  36,  36,  36)

     Smooth grid:     5481 G-vectors     FFT dimensions: (  25,  25,  25)

     Estimated max dynamical RAM per process >       8.62MB

     Estimated total allocated dynamical RAM >      34.48MB

     Initial potential from superposition of free atoms

     starting charge    8.99371, renormalised to    9.00000
     Starting wfc are    5 randomized atomic wfcs +    4 random wfc

     Writing output data file na.bcc.save

     total cpu time spent up to now is      165.5 secs

     per-process dynamical memory:    20.4 Mb

     Self-consistent Calculation

     iteration #  1     ecut=    40.00 Ry     beta=0.70
     Davidson diagonalization with overlap
     ethr =  1.00E-06,  avg # of iterations = 10.9

     total cpu time spent up to now is      168.2 secs

     total energy              =     -95.09131178 Ry
     Harris-Foulkes estimate   =     -95.09182619 Ry
     estimated scf accuracy    <       0.00137778 Ry

     iteration #  2     ecut=    40.00 Ry     beta=0.70
     Davidson diagonalization with overlap
     ethr =  1.53E-05,  avg # of iterations =  2.0

     total cpu time spent up to now is      169.2 secs

     total energy              =     -95.09150127 Ry
     Harris-Foulkes estimate   =     -95.09154429 Ry
     estimated scf accuracy    <       0.00016077 Ry

     iteration #  3     ecut=    40.00 Ry     beta=0.70
     Davidson diagonalization with overlap
     ethr =  1.79E-06,  avg # of iterations =  2.0

     total cpu time spent up to now is      170.1 secs

     total energy              =     -95.09152027 Ry
     Harris-Foulkes estimate   =     -95.09152159 Ry
     estimated scf accuracy    <       0.00000960 Ry

     iteration #  4     ecut=    40.00 Ry     beta=0.70
     Davidson diagonalization with overlap
     ethr =  1.07E-07,  avg # of iterations =  1.0

     total cpu time spent up to now is      170.9 secs

     total energy              =     -95.09152109 Ry
     Harris-Foulkes estimate   =     -95.09152103 Ry
     estimated scf accuracy    <       0.00000001 Ry

     iteration #  5     ecut=    40.00 Ry     beta=0.70
     Davidson diagonalization with overlap
     ethr =  1.34E-10,  avg # of iterations =  3.0

     total cpu time spent up to now is      172.0 secs

     total energy              =     -95.09152112 Ry
     Harris-Foulkes estimate   =     -95.09152111 Ry
     estimated scf accuracy    <          1.2E-09 Ry

     iteration #  6     ecut=    40.00 Ry     beta=0.70
     Davidson diagonalization with overlap
     ethr =  1.28E-11,  avg # of iterations =  1.5

     total cpu time spent up to now is      172.9 secs

     End of self-consistent calculation

     Number of k-points >= 100: set verbosity='high' to print the bands.

     the Fermi energy is     3.8505 ev

!    total energy              =     -95.09152112 Ry
     Harris-Foulkes estimate   =     -95.09152112 Ry
     estimated scf accuracy    <          8.7E-11 Ry

     The total energy is the sum of the following terms:

     one-electron contribution =     -78.28631011 Ry
     hartree contribution      =      40.30888894 Ry
     xc contribution           =     -14.33144155 Ry
     ewald contribution        =     -42.78255283 Ry
     smearing contrib. (-TS)   =      -0.00010556 Ry

     convergence has been achieved in   6 iterations

     Forces acting on atoms (cartesian axes, Ry/au):

     atom    1 type  1   force =     0.00000000    0.00000000    0.00000000

     Total force =     0.000000     Total SCF correction =     0.000000


     Computing stress (Cartesian axis) and pressure

          total   stress  (Ry/bohr**3)                   (kbar)     P=   67.90
   0.00046160   0.00000000  -0.00000000         67.90      0.00     -0.00
   0.00000000   0.00046160   0.00000000          0.00     67.90      0.00
  -0.00000000   0.00000000   0.00046160         -0.00      0.00     67.90


     Writing output data file na.bcc.save

     init_run     :      1.49s CPU      1.53s WALL (       2 calls)
     electrons    :    152.52s CPU    160.20s WALL (       9 calls)
     update_pot   :      1.66s CPU      1.67s WALL (       7 calls)
     forces       :      1.36s CPU      1.37s WALL (       9 calls)
     stress       :      6.39s CPU      6.40s WALL (       9 calls)

     Called by init_run:
     wfcinit      :      0.80s CPU      0.84s WALL (       2 calls)
     potinit      :      0.10s CPU      0.10s WALL (       2 calls)

     Called by electrons:
     c_bands      :    123.99s CPU    130.45s WALL (      99 calls)
     sum_band     :     25.55s CPU     26.72s WALL (      99 calls)
     v_of_rho     :      1.27s CPU      1.29s WALL (     107 calls)
     newd         :      1.72s CPU      1.73s WALL (     107 calls)
     mix_rho      :      0.11s CPU      0.12s WALL (      99 calls)

     Called by c_bands:
     init_us_2    :      6.55s CPU      6.53s WALL (   54500 calls)
     cegterg      :    117.59s CPU    123.99s WALL (   24750 calls)

     Called by sum_band:
     sum_band:bec :      0.06s CPU      0.08s WALL (   24750 calls)
     addusdens    :      1.86s CPU      1.86s WALL (      99 calls)

     Called by *egterg:
     h_psi        :     97.49s CPU    102.96s WALL (   78619 calls)
     s_psi        :      1.49s CPU      1.18s WALL (   78619 calls)
     g_psi        :      0.77s CPU      0.76s WALL (   53369 calls)
     cdiaghg      :     10.01s CPU     10.40s WALL (   76119 calls)

     Called by h_psi:
     h_psi:pot    :     97.15s CPU    102.46s WALL (   78619 calls)
     h_psi:calbec :      2.39s CPU      1.88s WALL (   78619 calls)
     vloc_psi     :     93.87s CPU     99.12s WALL (   78619 calls)
     add_vuspsi   :      0.78s CPU      1.26s WALL (   78619 calls)

     General routines
     calbec       :      3.22s CPU      2.79s WALL (  114619 calls)
     fft          :      0.63s CPU      0.65s WALL (    1759 calls)
     ffts         :      0.03s CPU      0.03s WALL (     206 calls)
     fftw         :    104.96s CPU    105.52s WALL ( 1357334 calls)
     interpolate  :      0.10s CPU      0.11s WALL (     206 calls)
     davcio       :      0.00s CPU      0.01s WALL (     500 calls)

     Parallel routines
     fft_scatter  :     16.38s CPU     20.29s WALL ( 1359299 calls)

     PWSCF        :  2m45.73s CPU     2m53.60s WALL


   This run was terminated on:  15:57:21  20Dec2017            

=------------------------------------------------------------------------------=
   JOB DONE.
=------------------------------------------------------------------------------=
