
     Program PWSCF v.6.1 (svn rev. 13369) starts on 21Dec2017 at 15:25:10 

     This program is part of the open-source Quantum ESPRESSO suite
     for quantum simulation of materials; please cite
         "P. Giannozzi et al., J. Phys.:Condens. Matter 21 395502 (2009);
          URL http://www.quantum-espresso.org", 
     in publications or presentations arising from this work. More details at
     http://www.quantum-espresso.org/quote

     Parallel version (MPI), running on     4 processors
     R & G space division:  proc/nbgrp/npool/nimage =       4
     Waiting for input...
     Reading input from standard input

     Current dimensions of program PWSCF are:
     Max number of different atomic species (ntypx) = 10
     Max number of k-points (npk) =  40000
     Max angular momentum in pseudopotentials (lmaxx) =  3

     Subspace diagonalization in iterative solution of the eigenvalue problem:
     a serial algorithm will be used


     Parallelization info
     --------------------
     sticks:   dense  smooth     PW     G-vecs:    dense   smooth      PW
     Min         287     142     43                 6207     2171     375
     Max         288     144     44                 6210     2172     378
     Sum        1151     571    173                24835     8685    1505



     bravais-lattice index     =            3
     lattice parameter (alat)  =       8.0000  a.u.
     unit-cell volume          =     256.0000 (a.u.)^3
     number of atoms/cell      =            1
     number of atomic types    =            1
     number of electrons       =         9.00
     number of Kohn-Sham states=            9
     kinetic-energy cutoff     =      40.0000  Ry
     charge density cutoff     =     320.0000  Ry
     convergence threshold     =      1.0E-08
     mixing beta               =       0.7000
     number of iterations used =            8  plain     mixing
     Exchange-correlation      = SLA  PW   PBE  PBE ( 1  4  3  4 0 0)
     nstep                     =           50


     celldm(1)=   8.000000  celldm(2)=   0.000000  celldm(3)=   0.000000
     celldm(4)=   0.000000  celldm(5)=   0.000000  celldm(6)=   0.000000

     crystal axes: (cart. coord. in units of alat)
               a(1) = (   0.500000   0.500000   0.500000 )  
               a(2) = (  -0.500000   0.500000   0.500000 )  
               a(3) = (  -0.500000  -0.500000   0.500000 )  

     reciprocal axes: (cart. coord. in units 2 pi/alat)
               b(1) = (  1.000000  0.000000  1.000000 )  
               b(2) = ( -1.000000  1.000000  0.000000 )  
               b(3) = (  0.000000 -1.000000  1.000000 )  


     PseudoPot. # 1 for Na read from file:
     /home/max/quantum_espresso/qe-6.1/pseudo/Na_pbe_v1.uspp.F.UPF
     MD5 check sum: 76a99c7e9422403d3e93cbc85ab7bccb
     Pseudo is Ultrasoft, Zval =  9.0
     Generated by new atomic code, or converted to UPF format
     Using radial grid of  819 points,  5 beta functions with: 
                l(1) =   0
                l(2) =   0
                l(3) =   1
                l(4) =   1
                l(5) =   2
     Q(r) pseudized with  8 coefficients,  rinner =    1.250   1.250   1.250
                                                       1.250   1.250

     atomic species   valence    mass     pseudopotential
        Na             9.00    22.99000     Na( 1.00)

     48 Sym. Ops., with inversion, found



   Cartesian axes

     site n.     atom                  positions (alat units)
         1           Na  tau(   1) = (   0.0000000   0.0000000   0.0000000  )

     number of k points=   250  Marzari-Vanderbilt smearing, width (Ry)=  0.0200

     Number of k-points >= 100: set verbosity='high' to print them.

     Dense  grid:    24835 G-vectors     FFT dimensions: (  40,  40,  40)

     Smooth grid:     8685 G-vectors     FFT dimensions: (  27,  27,  27)

     Estimated max dynamical RAM per process >      13.36MB

     Estimated total allocated dynamical RAM >      53.44MB

     Initial potential from superposition of free atoms

     starting charge    8.99371, renormalised to    9.00000
     Starting wfc are    5 randomized atomic wfcs +    4 random wfc

     total cpu time spent up to now is        2.4 secs

     per-process dynamical memory:    20.2 Mb

     Self-consistent Calculation

     iteration #  1     ecut=    40.00 Ry     beta=0.70
     Davidson diagonalization with overlap
     ethr =  1.00E-02,  avg # of iterations =  5.8

     Threshold (ethr) on eigenvalues was too large:
     Diagonalizing with lowered threshold

     Davidson diagonalization with overlap
     ethr =  9.84E-06,  avg # of iterations =  4.8

     total cpu time spent up to now is       15.8 secs

     total energy              =     -95.10637787 Ry
     Harris-Foulkes estimate   =     -95.10656725 Ry
     estimated scf accuracy    <       0.00088332 Ry

     iteration #  2     ecut=    40.00 Ry     beta=0.70
     Davidson diagonalization with overlap
     ethr =  9.81E-06,  avg # of iterations =  2.0

     total cpu time spent up to now is       20.0 secs

     total energy              =     -95.10647616 Ry
     Harris-Foulkes estimate   =     -95.10649624 Ry
     estimated scf accuracy    <       0.00009724 Ry

     iteration #  3     ecut=    40.00 Ry     beta=0.70
     Davidson diagonalization with overlap
     ethr =  1.08E-06,  avg # of iterations =  2.1

     total cpu time spent up to now is       24.6 secs

     total energy              =     -95.10648758 Ry
     Harris-Foulkes estimate   =     -95.10648858 Ry
     estimated scf accuracy    <       0.00000602 Ry

     iteration #  4     ecut=    40.00 Ry     beta=0.70
     Davidson diagonalization with overlap
     ethr =  6.69E-08,  avg # of iterations =  1.0

     total cpu time spent up to now is       28.7 secs

     total energy              =     -95.10648815 Ry
     Harris-Foulkes estimate   =     -95.10648811 Ry
     estimated scf accuracy    <       0.00000001 Ry

     iteration #  5     ecut=    40.00 Ry     beta=0.70
     Davidson diagonalization with overlap
     ethr =  1.40E-10,  avg # of iterations =  3.0

     total cpu time spent up to now is       33.9 secs

     End of self-consistent calculation

     Number of k-points >= 100: set verbosity='high' to print the bands.

     the Fermi energy is     1.5119 ev

!    total energy              =     -95.10648818 Ry
     Harris-Foulkes estimate   =     -95.10648818 Ry
     estimated scf accuracy    <          1.7E-09 Ry

     The total energy is the sum of the following terms:

     one-electron contribution =     -88.63767028 Ry
     hartree contribution      =      44.64403185 Ry
     xc contribution           =     -14.26551967 Ry
     ewald contribution        =     -36.84723868 Ry
     smearing contrib. (-TS)   =      -0.00009141 Ry

     convergence has been achieved in   5 iterations

     Forces acting on atoms (cartesian axes, Ry/au):

     atom    1 type  1   force =     0.00000000    0.00000000    0.00000000

     Total force =     0.000000     Total SCF correction =     0.000000


     Computing stress (Cartesian axis) and pressure

          total   stress  (Ry/bohr**3)                   (kbar)     P=   -4.40
  -0.00002994   0.00000000  -0.00000000         -4.40      0.00     -0.00
   0.00000000  -0.00002994   0.00000000          0.00     -4.40      0.00
  -0.00000000   0.00000000  -0.00002994         -0.00      0.00     -4.40


     BFGS Geometry Optimization

     number of scf cycles    =   1
     number of bfgs steps    =   0

     enthalpy new            =     -95.1151894492 Ry

     new trust radius        =       0.0003239423 bohr
     new conv_thr            =       0.0000000100 Ry

     new unit-cell volume =    256.07775 a.u.^3 (    37.94681 Ang^3 )
     density =      1.00603 g/cm^3

CELL_PARAMETERS (alat=  8.00000000)
   0.500050616   0.500050616   0.500050616
  -0.500050616   0.500050616   0.500050616
  -0.500050616  -0.500050616   0.500050616

ATOMIC_POSITIONS (crystal)
Na       0.000000000   0.000000000   0.000000000



     Writing output data file na.bcc.save
     NEW-OLD atomic charge density approx. for the potential
     extrapolated charge    9.00273, renormalised to    9.00000

     total cpu time spent up to now is       37.2 secs

     per-process dynamical memory:    32.0 Mb

     Self-consistent Calculation

     iteration #  1     ecut=    40.00 Ry     beta=0.70
     Davidson diagonalization with overlap
     ethr =  1.00E-06,  avg # of iterations =  2.0

     Threshold (ethr) on eigenvalues was too large:
     Diagonalizing with lowered threshold

     Davidson diagonalization with overlap
     ethr =  3.12E-08,  avg # of iterations =  1.0

     total cpu time spent up to now is       45.8 secs

     total energy              =     -95.10648077 Ry
     Harris-Foulkes estimate   =     -95.08501427 Ry
     estimated scf accuracy    <       0.00000281 Ry

     iteration #  2     ecut=    40.00 Ry     beta=0.70
     Davidson diagonalization with overlap
     ethr =  3.12E-08,  avg # of iterations =  3.0

     total cpu time spent up to now is       51.7 secs

     total energy              =     -95.10648583 Ry
     Harris-Foulkes estimate   =     -95.10648788 Ry
     estimated scf accuracy    <       0.00000464 Ry

     iteration #  3     ecut=    40.00 Ry     beta=0.70
     Davidson diagonalization with overlap
     ethr =  3.12E-08,  avg # of iterations =  1.7

     total cpu time spent up to now is       55.8 secs

     total energy              =     -95.10648586 Ry
     Harris-Foulkes estimate   =     -95.10648614 Ry
     estimated scf accuracy    <       0.00000090 Ry

     iteration #  4     ecut=    40.00 Ry     beta=0.70
     Davidson diagonalization with overlap
     ethr =  1.00E-08,  avg # of iterations =  1.0

     total cpu time spent up to now is       59.6 secs

     total energy              =     -95.10648578 Ry
     Harris-Foulkes estimate   =     -95.10648590 Ry
     estimated scf accuracy    <       0.00000033 Ry

     iteration #  5     ecut=    40.00 Ry     beta=0.70
     Davidson diagonalization with overlap
     ethr =  3.68E-09,  avg # of iterations =  1.0

     total cpu time spent up to now is       63.6 secs

     total energy              =     -95.10648576 Ry
     Harris-Foulkes estimate   =     -95.10648580 Ry
     estimated scf accuracy    <       0.00000011 Ry

     iteration #  6     ecut=    40.00 Ry     beta=0.70
     Davidson diagonalization with overlap
     ethr =  1.19E-09,  avg # of iterations =  1.0

     total cpu time spent up to now is       67.6 secs

     total energy              =     -95.10648574 Ry
     Harris-Foulkes estimate   =     -95.10648576 Ry
     estimated scf accuracy    <       0.00000003 Ry

     iteration #  7     ecut=    40.00 Ry     beta=0.70
     Davidson diagonalization with overlap
     ethr =  3.72E-10,  avg # of iterations =  2.0

     total cpu time spent up to now is       72.1 secs

     End of self-consistent calculation

     Number of k-points >= 100: set verbosity='high' to print the bands.

     the Fermi energy is     1.5106 ev

!    total energy              =     -95.10648575 Ry
     Harris-Foulkes estimate   =     -95.10648575 Ry
     estimated scf accuracy    <          2.6E-10 Ry

     The total energy is the sum of the following terms:

     one-electron contribution =     -88.64421435 Ry
     hartree contribution      =      44.64680893 Ry
     xc contribution           =     -14.26548000 Ry
     ewald contribution        =     -36.84350894 Ry
     smearing contrib. (-TS)   =      -0.00009140 Ry

     convergence has been achieved in   7 iterations

     Forces acting on atoms (cartesian axes, Ry/au):

     atom    1 type  1   force =     0.00000000    0.00000000    0.00000000

     Total force =     0.000000     Total SCF correction =     0.000000


     Computing stress (Cartesian axis) and pressure

          total   stress  (Ry/bohr**3)                   (kbar)     P=   -4.50
  -0.00003059  -0.00000000   0.00000000         -4.50     -0.00      0.00
  -0.00000000  -0.00003059  -0.00000000         -0.00     -4.50     -0.00
   0.00000000  -0.00000000  -0.00003059          0.00     -0.00     -4.50


     number of scf cycles    =   2
     number of bfgs steps    =   1

     enthalpy old            =     -95.1151894492 Ry
     enthalpy new            =     -95.1151896549 Ry

     CASE: enthalpy_new < enthalpy_old


     WARNING: bfgs curvature condition failed, Theta= 0.952
     new trust radius        =       0.0003563546 bohr
     new conv_thr            =            1.0E-10 Ry

     new unit-cell volume =    256.16330 a.u.^3 (    37.95948 Ang^3 )
     density =      1.00570 g/cm^3

CELL_PARAMETERS (alat=  8.00000000)
   0.500106294   0.500106294   0.500106294
  -0.500106294   0.500106294   0.500106294
  -0.500106294  -0.500106294   0.500106294

ATOMIC_POSITIONS (crystal)
Na       0.000000000   0.000000000   0.000000000



     Writing output data file na.bcc.save
     NEW-OLD atomic charge density approx. for the potential
     extrapolated charge    9.00300, renormalised to    9.00000

     total cpu time spent up to now is       75.8 secs

     per-process dynamical memory:    33.3 Mb

     Self-consistent Calculation

     iteration #  1     ecut=    40.00 Ry     beta=0.70
     Davidson diagonalization with overlap
     ethr =  1.00E-06,  avg # of iterations =  2.0

     Threshold (ethr) on eigenvalues was too large:
     Diagonalizing with lowered threshold

     Davidson diagonalization with overlap
     ethr =  3.77E-08,  avg # of iterations =  1.0

     total cpu time spent up to now is       86.7 secs

     total energy              =     -95.10647703 Ry
     Harris-Foulkes estimate   =     -95.08286511 Ry
     estimated scf accuracy    <       0.00000339 Ry

     iteration #  2     ecut=    40.00 Ry     beta=0.70
     Davidson diagonalization with overlap
     ethr =  3.77E-08,  avg # of iterations =  2.9

     total cpu time spent up to now is       92.0 secs

     total energy              =     -95.10648316 Ry
     Harris-Foulkes estimate   =     -95.10648563 Ry
     estimated scf accuracy    <       0.00000561 Ry

     iteration #  3     ecut=    40.00 Ry     beta=0.70
     Davidson diagonalization with overlap
     ethr =  3.77E-08,  avg # of iterations =  1.7

     total cpu time spent up to now is       97.0 secs

     total energy              =     -95.10648320 Ry
     Harris-Foulkes estimate   =     -95.10648353 Ry
     estimated scf accuracy    <       0.00000109 Ry

     iteration #  4     ecut=    40.00 Ry     beta=0.70
     Davidson diagonalization with overlap
     ethr =  1.21E-08,  avg # of iterations =  1.0

     total cpu time spent up to now is      101.6 secs

     total energy              =     -95.10648310 Ry
     Harris-Foulkes estimate   =     -95.10648324 Ry
     estimated scf accuracy    <       0.00000041 Ry

     iteration #  5     ecut=    40.00 Ry     beta=0.70
     Davidson diagonalization with overlap
     ethr =  4.61E-09,  avg # of iterations =  1.0

     total cpu time spent up to now is      105.8 secs

     total energy              =     -95.10648306 Ry
     Harris-Foulkes estimate   =     -95.10648312 Ry
     estimated scf accuracy    <       0.00000014 Ry

     iteration #  6     ecut=    40.00 Ry     beta=0.70
     Davidson diagonalization with overlap
     ethr =  1.58E-09,  avg # of iterations =  1.0

     total cpu time spent up to now is      110.8 secs

     total energy              =     -95.10648305 Ry
     Harris-Foulkes estimate   =     -95.10648307 Ry
     estimated scf accuracy    <       0.00000004 Ry

     iteration #  7     ecut=    40.00 Ry     beta=0.70
     Davidson diagonalization with overlap
     ethr =  4.93E-10,  avg # of iterations =  2.0

     total cpu time spent up to now is      115.7 secs

     total energy              =     -95.10648305 Ry
     Harris-Foulkes estimate   =     -95.10648305 Ry
     estimated scf accuracy    <          2.8E-09 Ry

     iteration #  8     ecut=    40.00 Ry     beta=0.70
     Davidson diagonalization with overlap
     ethr =  3.06E-11,  avg # of iterations =  2.0

     total cpu time spent up to now is      121.1 secs

     End of self-consistent calculation

     Number of k-points >= 100: set verbosity='high' to print the bands.

     the Fermi energy is     1.5093 ev

!    total energy              =     -95.10648305 Ry
     Harris-Foulkes estimate   =     -95.10648305 Ry
     estimated scf accuracy    <          2.4E-11 Ry

     The total energy is the sum of the following terms:

     one-electron contribution =     -88.65133002 Ry
     hartree contribution      =      44.64976203 Ry
     xc contribution           =     -14.26541659 Ry
     ewald contribution        =     -36.83940709 Ry
     smearing contrib. (-TS)   =      -0.00009138 Ry

     convergence has been achieved in   8 iterations

     Forces acting on atoms (cartesian axes, Ry/au):

     atom    1 type  1   force =     0.00000000    0.00000000    0.00000000

     Total force =     0.000000     Total SCF correction =     0.000000


     Computing stress (Cartesian axis) and pressure

          total   stress  (Ry/bohr**3)                   (kbar)     P=   -4.69
  -0.00003187   0.00000000  -0.00000000         -4.69      0.00     -0.00
   0.00000000  -0.00003187   0.00000000          0.00     -4.69      0.00
  -0.00000000   0.00000000  -0.00003187         -0.00      0.00     -4.69


     bfgs converged in   3 scf cycles and   2 bfgs steps
     (criteria: energy <  1.0E-04 Ry, force <  1.0E-03Ry/Bohr, cell <  5.0E-01kbar)

     End of BFGS Geometry Optimization

     Final enthalpy =     -95.1151898656 Ry
Begin final coordinates
     new unit-cell volume =    256.16330 a.u.^3 (    37.95948 Ang^3 )
     density =      1.00570 g/cm^3

CELL_PARAMETERS (alat=  8.00000000)
   0.500106294   0.500106294   0.500106294
  -0.500106294   0.500106294   0.500106294
  -0.500106294  -0.500106294   0.500106294

ATOMIC_POSITIONS (crystal)
Na       0.000000000   0.000000000   0.000000000
End final coordinates



     A final scf calculation at the relaxed structure.
     The G-vectors are recalculated for the final unit cell
     Results may differ from those at the preceding step.

     Parallelization info
     --------------------
     sticks:   dense  smooth     PW     G-vecs:    dense   smooth      PW
     Min         287     142     43                 6207     2171     375
     Max         288     144     44                 6210     2172     378
     Sum        1151     571    173                24835     8685    1505



     bravais-lattice index     =            3
     lattice parameter (alat)  =       8.0000  a.u.
     unit-cell volume          =     256.1633 (a.u.)^3
     number of atoms/cell      =            1
     number of atomic types    =            1
     number of electrons       =         9.00
     number of Kohn-Sham states=            9
     kinetic-energy cutoff     =      40.0000  Ry
     charge density cutoff     =     320.0000  Ry
     convergence threshold     =      1.0E-10
     mixing beta               =       0.7000
     number of iterations used =            8  plain     mixing
     Exchange-correlation      = SLA  PW   PBE  PBE ( 1  4  3  4 0 0)

     celldm(1)=   8.000000  celldm(2)=   0.000000  celldm(3)=   0.000000
     celldm(4)=   0.000000  celldm(5)=   0.000000  celldm(6)=   0.000000

     crystal axes: (cart. coord. in units of alat)
               a(1) = (   0.500106   0.500106   0.500106 )  
               a(2) = (  -0.500106   0.500106   0.500106 )  
               a(3) = (  -0.500106  -0.500106   0.500106 )  

     reciprocal axes: (cart. coord. in units 2 pi/alat)
               b(1) = (  0.999787  0.000000  0.999787 )  
               b(2) = ( -0.999787  0.999787  0.000000 )  
               b(3) = (  0.000000 -0.999787  0.999787 )  


     PseudoPot. # 1 for Na read from file:
     /home/max/quantum_espresso/qe-6.1/pseudo/Na_pbe_v1.uspp.F.UPF
     MD5 check sum: 76a99c7e9422403d3e93cbc85ab7bccb
     Pseudo is Ultrasoft, Zval =  9.0
     Generated by new atomic code, or converted to UPF format
     Using radial grid of  819 points,  5 beta functions with: 
                l(1) =   0
                l(2) =   0
                l(3) =   1
                l(4) =   1
                l(5) =   2
     Q(r) pseudized with  8 coefficients,  rinner =    1.250   1.250   1.250
                                                       1.250   1.250

     atomic species   valence    mass     pseudopotential
        Na             9.00    22.99000     Na( 1.00)

     48 Sym. Ops., with inversion, found



   Cartesian axes

     site n.     atom                  positions (alat units)
         1           Na  tau(   1) = (   0.0000000   0.0000000   0.0000000  )

     number of k points=   250  Marzari-Vanderbilt smearing, width (Ry)=  0.0200

     Number of k-points >= 100: set verbosity='high' to print them.

     Dense  grid:    24835 G-vectors     FFT dimensions: (  40,  40,  40)

     Smooth grid:     8685 G-vectors     FFT dimensions: (  27,  27,  27)

     Estimated max dynamical RAM per process >      13.36MB

     Estimated total allocated dynamical RAM >      53.44MB

     Initial potential from superposition of free atoms

     starting charge    8.99371, renormalised to    9.00000
     Starting wfc are    5 randomized atomic wfcs +    4 random wfc

     Writing output data file na.bcc.save

     total cpu time spent up to now is      126.5 secs

     per-process dynamical memory:    30.6 Mb

     Self-consistent Calculation

     iteration #  1     ecut=    40.00 Ry     beta=0.70
     Davidson diagonalization with overlap
     c_bands:  1 eigenvalues not converged
     c_bands:  1 eigenvalues not converged
     c_bands:  1 eigenvalues not converged
     c_bands:  1 eigenvalues not converged
     c_bands:  1 eigenvalues not converged
     c_bands:  1 eigenvalues not converged
     c_bands:  1 eigenvalues not converged
     c_bands:  1 eigenvalues not converged
     ethr =  1.00E-06,  avg # of iterations = 12.1

     total cpu time spent up to now is      143.1 secs

     total energy              =     -95.10637376 Ry
     Harris-Foulkes estimate   =     -95.10656706 Ry
     estimated scf accuracy    <       0.00088616 Ry

     iteration #  2     ecut=    40.00 Ry     beta=0.70
     Davidson diagonalization with overlap
     ethr =  9.85E-06,  avg # of iterations =  2.0

     total cpu time spent up to now is      148.1 secs

     total energy              =     -95.10647519 Ry
     Harris-Foulkes estimate   =     -95.10649657 Ry
     estimated scf accuracy    <       0.00009953 Ry

     iteration #  3     ecut=    40.00 Ry     beta=0.70
     Davidson diagonalization with overlap
     ethr =  1.11E-06,  avg # of iterations =  2.0

     total cpu time spent up to now is      153.7 secs

     total energy              =     -95.10648633 Ry
     Harris-Foulkes estimate   =     -95.10648747 Ry
     estimated scf accuracy    <       0.00000634 Ry

     iteration #  4     ecut=    40.00 Ry     beta=0.70
     Davidson diagonalization with overlap
     ethr =  7.04E-08,  avg # of iterations =  1.0

     total cpu time spent up to now is      158.2 secs

     total energy              =     -95.10648692 Ry
     Harris-Foulkes estimate   =     -95.10648688 Ry
     estimated scf accuracy    <       0.00000001 Ry

     iteration #  5     ecut=    40.00 Ry     beta=0.70
     Davidson diagonalization with overlap
     ethr =  1.23E-10,  avg # of iterations =  3.0

     total cpu time spent up to now is      165.0 secs

     total energy              =     -95.10648695 Ry
     Harris-Foulkes estimate   =     -95.10648695 Ry
     estimated scf accuracy    <          1.7E-09 Ry

     iteration #  6     ecut=    40.00 Ry     beta=0.70
     Davidson diagonalization with overlap
     ethr =  1.90E-11,  avg # of iterations =  1.0

     total cpu time spent up to now is      169.8 secs

     total energy              =     -95.10648696 Ry
     Harris-Foulkes estimate   =     -95.10648696 Ry
     estimated scf accuracy    <          1.4E-10 Ry

     iteration #  7     ecut=    40.00 Ry     beta=0.70
     Davidson diagonalization with overlap
     ethr =  1.51E-12,  avg # of iterations =  1.6

     total cpu time spent up to now is      174.3 secs

     End of self-consistent calculation

     Number of k-points >= 100: set verbosity='high' to print the bands.

     the Fermi energy is     1.5093 ev

!    total energy              =     -95.10648696 Ry
     Harris-Foulkes estimate   =     -95.10648696 Ry
     estimated scf accuracy    <          3.0E-12 Ry

     The total energy is the sum of the following terms:

     one-electron contribution =     -88.65135594 Ry
     hartree contribution      =      44.64979014 Ry
     xc contribution           =     -14.26542268 Ry
     ewald contribution        =     -36.83940709 Ry
     smearing contrib. (-TS)   =      -0.00009138 Ry

     convergence has been achieved in   7 iterations

     Forces acting on atoms (cartesian axes, Ry/au):

     atom    1 type  1   force =     0.00000000    0.00000000    0.00000000

     Total force =     0.000000     Total SCF correction =     0.000000


     Computing stress (Cartesian axis) and pressure

          total   stress  (Ry/bohr**3)                   (kbar)     P=   -4.64
  -0.00003152   0.00000000  -0.00000000         -4.64      0.00     -0.00
   0.00000000  -0.00003152   0.00000000          0.00     -4.64      0.00
  -0.00000000   0.00000000  -0.00003152         -0.00      0.00     -4.64


     Writing output data file na.bcc.save

     init_run     :      3.63s CPU      4.67s WALL (       2 calls)
     electrons    :    114.09s CPU    159.54s WALL (       4 calls)
     update_pot   :      0.94s CPU      1.07s WALL (       2 calls)
     forces       :      1.64s CPU      2.50s WALL (       4 calls)
     stress       :      4.88s CPU      6.05s WALL (       4 calls)

     Called by init_run:
     wfcinit      :      2.49s CPU      3.47s WALL (       2 calls)
     potinit      :      0.20s CPU      0.20s WALL (       2 calls)

     Called by electrons:
     c_bands      :     95.60s CPU    134.65s WALL (      30 calls)
     sum_band     :     17.30s CPU     23.56s WALL (      30 calls)
     v_of_rho     :      0.61s CPU      0.72s WALL (      31 calls)
     newd         :      0.58s CPU      0.64s WALL (      31 calls)
     mix_rho      :      0.06s CPU      0.07s WALL (      30 calls)

     Called by c_bands:
     init_us_2    :      3.03s CPU      3.29s WALL (   17500 calls)
     cegterg      :     92.06s CPU    129.76s WALL (    7500 calls)

     Called by sum_band:
     sum_band:bec :      0.06s CPU      0.06s WALL (    7500 calls)
     addusdens    :      0.62s CPU      0.67s WALL (      30 calls)

     Called by *egterg:
     h_psi        :     74.09s CPU    105.25s WALL (   25168 calls)
     s_psi        :      1.84s CPU      2.02s WALL (   25168 calls)
     g_psi        :      0.39s CPU      0.43s WALL (   17168 calls)
     cdiaghg      :      5.68s CPU      7.52s WALL (   23418 calls)

     Called by h_psi:
     h_psi:pot    :     73.81s CPU    104.94s WALL (   25168 calls)
     h_psi:calbec :      2.97s CPU      4.72s WALL (   25168 calls)
     vloc_psi     :     68.89s CPU     98.07s WALL (   25168 calls)
     add_vuspsi   :      1.88s CPU      2.07s WALL (   25168 calls)

     General routines
     calbec       :      5.17s CPU      9.23s WALL (   37668 calls)
     fft          :      0.42s CPU      0.63s WALL (     526 calls)
     ffts         :      0.02s CPU      0.02s WALL (      61 calls)
     fftw         :     74.71s CPU    108.55s WALL (  410922 calls)
     interpolate  :      0.07s CPU      0.09s WALL (      61 calls)
     davcio       :      0.00s CPU      0.01s WALL (     500 calls)

     Parallel routines
     fft_scatter  :     21.98s CPU     51.25s WALL (  411509 calls)

     PWSCF        :  2m 7.61s CPU     2m57.14s WALL


   This run was terminated on:  15:28: 7  21Dec2017            

=------------------------------------------------------------------------------=
   JOB DONE.
=------------------------------------------------------------------------------=
