
     Program PWSCF v.6.1 (svn rev. 13369) starts on 20Dec2017 at 15:30:36 

     This program is part of the open-source Quantum ESPRESSO suite
     for quantum simulation of materials; please cite
         "P. Giannozzi et al., J. Phys.:Condens. Matter 21 395502 (2009);
          URL http://www.quantum-espresso.org", 
     in publications or presentations arising from this work. More details at
     http://www.quantum-espresso.org/quote

     Parallel version (MPI), running on     4 processors
     R & G space division:  proc/nbgrp/npool/nimage =       4
     Waiting for input...
     Reading input from standard input

     Current dimensions of program PWSCF are:
     Max number of different atomic species (ntypx) = 10
     Max number of k-points (npk) =  40000
     Max angular momentum in pseudopotentials (lmaxx) =  3

     Subspace diagonalization in iterative solution of the eigenvalue problem:
     a serial algorithm will be used


     Parallelization info
     --------------------
     sticks:   dense  smooth     PW     G-vecs:    dense   smooth      PW
     Min         287     142     43                 6207     2171     375
     Max         288     144     44                 6210     2172     378
     Sum        1151     571    173                24835     8685    1505



     bravais-lattice index     =            3
     lattice parameter (alat)  =       8.0000  a.u.
     unit-cell volume          =     256.0000 (a.u.)^3
     number of atoms/cell      =            1
     number of atomic types    =            1
     number of electrons       =         9.00
     number of Kohn-Sham states=            9
     kinetic-energy cutoff     =      40.0000  Ry
     charge density cutoff     =     320.0000  Ry
     convergence threshold     =      1.0E-08
     mixing beta               =       0.7000
     number of iterations used =            8  plain     mixing
     Exchange-correlation      = SLA  PW   PBE  PBE ( 1  4  3  4 0 0)
     nstep                     =           50


     celldm(1)=   8.000000  celldm(2)=   0.000000  celldm(3)=   0.000000
     celldm(4)=   0.000000  celldm(5)=   0.000000  celldm(6)=   0.000000

     crystal axes: (cart. coord. in units of alat)
               a(1) = (   0.500000   0.500000   0.500000 )  
               a(2) = (  -0.500000   0.500000   0.500000 )  
               a(3) = (  -0.500000  -0.500000   0.500000 )  

     reciprocal axes: (cart. coord. in units 2 pi/alat)
               b(1) = (  1.000000  0.000000  1.000000 )  
               b(2) = ( -1.000000  1.000000  0.000000 )  
               b(3) = (  0.000000 -1.000000  1.000000 )  


     PseudoPot. # 1 for Na read from file:
     /home/s1333534/quantum_espresso/qe-6.1/pseudo/Na_pbe_v1.uspp.F.UPF
     MD5 check sum: 76a99c7e9422403d3e93cbc85ab7bccb
     Pseudo is Ultrasoft, Zval =  9.0
     Generated by new atomic code, or converted to UPF format
     Using radial grid of  819 points,  5 beta functions with: 
                l(1) =   0
                l(2) =   0
                l(3) =   1
                l(4) =   1
                l(5) =   2
     Q(r) pseudized with  8 coefficients,  rinner =    1.250   1.250   1.250
                                                       1.250   1.250

     atomic species   valence    mass     pseudopotential
        Na             9.00    22.99000     Na( 1.00)

     48 Sym. Ops., with inversion, found



   Cartesian axes

     site n.     atom                  positions (alat units)
         1           Na  tau(   1) = (   0.0000000   0.0000000   0.0000000  )

     number of k points=   250  Marzari-Vanderbilt smearing, width (Ry)=  0.0200

     Number of k-points >= 100: set verbosity='high' to print them.

     Dense  grid:    24835 G-vectors     FFT dimensions: (  40,  40,  40)

     Smooth grid:     8685 G-vectors     FFT dimensions: (  27,  27,  27)

     Estimated max dynamical RAM per process >      13.36MB

     Estimated total allocated dynamical RAM >      53.44MB

     Initial potential from superposition of free atoms

     starting charge    8.99371, renormalised to    9.00000
     Starting wfc are    5 randomized atomic wfcs +    4 random wfc

     total cpu time spent up to now is        1.0 secs

     per-process dynamical memory:    19.6 Mb

     Self-consistent Calculation

     iteration #  1     ecut=    40.00 Ry     beta=0.70
     Davidson diagonalization with overlap
     ethr =  1.00E-02,  avg # of iterations =  5.8

     Threshold (ethr) on eigenvalues was too large:
     Diagonalizing with lowered threshold

     Davidson diagonalization with overlap
     ethr =  9.84E-06,  avg # of iterations =  4.8

     total cpu time spent up to now is        5.8 secs

     total energy              =     -95.10637787 Ry
     Harris-Foulkes estimate   =     -95.10656725 Ry
     estimated scf accuracy    <       0.00088332 Ry

     iteration #  2     ecut=    40.00 Ry     beta=0.70
     Davidson diagonalization with overlap
     ethr =  9.81E-06,  avg # of iterations =  2.0

     total cpu time spent up to now is        7.4 secs

     total energy              =     -95.10647616 Ry
     Harris-Foulkes estimate   =     -95.10649624 Ry
     estimated scf accuracy    <       0.00009724 Ry

     iteration #  3     ecut=    40.00 Ry     beta=0.70
     Davidson diagonalization with overlap
     ethr =  1.08E-06,  avg # of iterations =  2.1

     total cpu time spent up to now is        9.0 secs

     total energy              =     -95.10648758 Ry
     Harris-Foulkes estimate   =     -95.10648858 Ry
     estimated scf accuracy    <       0.00000602 Ry

     iteration #  4     ecut=    40.00 Ry     beta=0.70
     Davidson diagonalization with overlap
     ethr =  6.69E-08,  avg # of iterations =  1.0

     total cpu time spent up to now is       10.5 secs

     total energy              =     -95.10648815 Ry
     Harris-Foulkes estimate   =     -95.10648811 Ry
     estimated scf accuracy    <       0.00000001 Ry

     iteration #  5     ecut=    40.00 Ry     beta=0.70
     Davidson diagonalization with overlap
     ethr =  1.40E-10,  avg # of iterations =  3.0

     total cpu time spent up to now is       12.4 secs

     End of self-consistent calculation

     Number of k-points >= 100: set verbosity='high' to print the bands.

     the Fermi energy is     1.5119 ev

!    total energy              =     -95.10648818 Ry
     Harris-Foulkes estimate   =     -95.10648818 Ry
     estimated scf accuracy    <          1.7E-09 Ry

     The total energy is the sum of the following terms:

     one-electron contribution =     -88.63767028 Ry
     hartree contribution      =      44.64403185 Ry
     xc contribution           =     -14.26551967 Ry
     ewald contribution        =     -36.84723868 Ry
     smearing contrib. (-TS)   =      -0.00009141 Ry

     convergence has been achieved in   5 iterations

     Forces acting on atoms (cartesian axes, Ry/au):

     atom    1 type  1   force =     0.00000000    0.00000000    0.00000000

     Total force =     0.000000     Total SCF correction =     0.000000


     Computing stress (Cartesian axis) and pressure

          total   stress  (Ry/bohr**3)                   (kbar)     P=   -4.40
  -0.00002994  -0.00000000   0.00000000         -4.40     -0.00      0.00
  -0.00000000  -0.00002994   0.00000000         -0.00     -4.40      0.00
   0.00000000   0.00000000  -0.00002994          0.00      0.00     -4.40


     BFGS Geometry Optimization

     number of scf cycles    =   1
     number of bfgs steps    =   0

     enthalpy new            =     -95.0890856554 Ry

     new trust radius        =       0.0078334933 bohr
     new conv_thr            =       0.0000000100 Ry

     new unit-cell volume =    254.12456 a.u.^3 (    37.65737 Ang^3 )
     density =      1.01377 g/cm^3

CELL_PARAMETERS (alat=  8.00000000)
   0.498776017   0.498776017   0.498776017
  -0.498776017   0.498776017   0.498776017
  -0.498776017  -0.498776017   0.498776017

ATOMIC_POSITIONS (crystal)
Na       0.000000000   0.000000000   0.000000000



     Writing output data file na.bcc.save
     NEW-OLD atomic charge density approx. for the potential
     extrapolated charge    8.93363, renormalised to    9.00000

     total cpu time spent up to now is       13.8 secs

     per-process dynamical memory:    31.4 Mb

     Self-consistent Calculation

     iteration #  1     ecut=    40.00 Ry     beta=0.70
     Davidson diagonalization with overlap
     ethr =  1.00E-06,  avg # of iterations =  3.1

     total cpu time spent up to now is       16.0 secs

     total energy              =     -95.10369599 Ry
     Harris-Foulkes estimate   =     -95.62669568 Ry
     estimated scf accuracy    <       0.00159147 Ry

     iteration #  2     ecut=    40.00 Ry     beta=0.70
     Davidson diagonalization with overlap
     ethr =  1.77E-05,  avg # of iterations =  2.9

     total cpu time spent up to now is       18.1 secs

     total energy              =     -95.10658894 Ry
     Harris-Foulkes estimate   =     -95.10775835 Ry
     estimated scf accuracy    <       0.00266253 Ry

     iteration #  3     ecut=    40.00 Ry     beta=0.70
     Davidson diagonalization with overlap
     ethr =  1.77E-05,  avg # of iterations =  2.0

     total cpu time spent up to now is       19.7 secs

     total energy              =     -95.10658182 Ry
     Harris-Foulkes estimate   =     -95.10676820 Ry
     estimated scf accuracy    <       0.00050513 Ry

     iteration #  4     ecut=    40.00 Ry     beta=0.70
     Davidson diagonalization with overlap
     ethr =  5.61E-06,  avg # of iterations =  1.0

     total cpu time spent up to now is       21.1 secs

     total energy              =     -95.10654016 Ry
     Harris-Foulkes estimate   =     -95.10660734 Ry
     estimated scf accuracy    <       0.00014417 Ry

     iteration #  5     ecut=    40.00 Ry     beta=0.70
     Davidson diagonalization with overlap
     ethr =  1.60E-06,  avg # of iterations =  1.3

     total cpu time spent up to now is       22.6 secs

     total energy              =     -95.10655041 Ry
     Harris-Foulkes estimate   =     -95.10655249 Ry
     estimated scf accuracy    <       0.00002189 Ry

     iteration #  6     ecut=    40.00 Ry     beta=0.70
     Davidson diagonalization with overlap
     ethr =  2.43E-07,  avg # of iterations =  1.0

     total cpu time spent up to now is       24.0 secs

     total energy              =     -95.10654415 Ry
     Harris-Foulkes estimate   =     -95.10655095 Ry
     estimated scf accuracy    <       0.00001888 Ry

     iteration #  7     ecut=    40.00 Ry     beta=0.70
     Davidson diagonalization with overlap
     ethr =  2.10E-07,  avg # of iterations =  1.0

     total cpu time spent up to now is       25.4 secs

     total energy              =     -95.10654596 Ry
     Harris-Foulkes estimate   =     -95.10654517 Ry
     estimated scf accuracy    <       0.00000545 Ry

     iteration #  8     ecut=    40.00 Ry     beta=0.70
     Davidson diagonalization with overlap
     ethr =  6.06E-08,  avg # of iterations =  1.0

     total cpu time spent up to now is       26.8 secs

     total energy              =     -95.10654090 Ry
     Harris-Foulkes estimate   =     -95.10654601 Ry
     estimated scf accuracy    <       0.00000749 Ry

     iteration #  9     ecut=    40.00 Ry     beta=0.70
     Davidson diagonalization with overlap
     ethr =  6.06E-08,  avg # of iterations =  2.0

     total cpu time spent up to now is       28.4 secs

     total energy              =     -95.10654321 Ry
     Harris-Foulkes estimate   =     -95.10654301 Ry
     estimated scf accuracy    <       0.00000062 Ry

     iteration # 10     ecut=    40.00 Ry     beta=0.70
     Davidson diagonalization with overlap
     ethr =  6.85E-09,  avg # of iterations =  1.0

     total cpu time spent up to now is       29.8 secs

     total energy              =     -95.10654295 Ry
     Harris-Foulkes estimate   =     -95.10654324 Ry
     estimated scf accuracy    <       0.00000117 Ry

     iteration # 11     ecut=    40.00 Ry     beta=0.70
     Davidson diagonalization with overlap
     ethr =  6.85E-09,  avg # of iterations =  1.0

     total cpu time spent up to now is       31.2 secs

     total energy              =     -95.10654281 Ry
     Harris-Foulkes estimate   =     -95.10654297 Ry
     estimated scf accuracy    <       0.00000044 Ry

     iteration # 12     ecut=    40.00 Ry     beta=0.70
     Davidson diagonalization with overlap
     ethr =  4.92E-09,  avg # of iterations =  1.0

     total cpu time spent up to now is       32.6 secs

     total energy              =     -95.10654280 Ry
     Harris-Foulkes estimate   =     -95.10654283 Ry
     estimated scf accuracy    <       0.00000006 Ry

     iteration # 13     ecut=    40.00 Ry     beta=0.70
     Davidson diagonalization with overlap
     ethr =  7.13E-10,  avg # of iterations =  2.0

     total cpu time spent up to now is       34.3 secs

     End of self-consistent calculation

     Number of k-points >= 100: set verbosity='high' to print the bands.

     the Fermi energy is     1.5418 ev

!    total energy              =     -95.10654281 Ry
     Harris-Foulkes estimate   =     -95.10654281 Ry
     estimated scf accuracy    <          3.4E-09 Ry

     The total energy is the sum of the following terms:

     one-electron contribution =     -88.47867972 Ry
     hartree contribution      =      44.57632723 Ry
     xc contribution           =     -14.26643769 Ry
     ewald contribution        =     -36.93766084 Ry
     smearing contrib. (-TS)   =      -0.00009179 Ry

     convergence has been achieved in  13 iterations

     Forces acting on atoms (cartesian axes, Ry/au):

     atom    1 type  1   force =     0.00000000    0.00000000    0.00000000

     Total force =     0.000000     Total SCF correction =     0.000000


     Computing stress (Cartesian axis) and pressure

          total   stress  (Ry/bohr**3)                   (kbar)     P=   -4.15
  -0.00002820  -0.00000000   0.00000000         -4.15     -0.00      0.00
  -0.00000000  -0.00002820   0.00000000         -0.00     -4.15      0.00
   0.00000000   0.00000000  -0.00002820          0.00      0.00     -4.15


     number of scf cycles    =   2
     number of bfgs steps    =   1

     enthalpy old            =     -95.0890856554 Ry
     enthalpy new            =     -95.0892677747 Ry

     CASE: enthalpy_new < enthalpy_old


     WARNING: bfgs curvature condition failed, Theta= 0.818
     new trust radius        =       0.0117358491 bohr
     new conv_thr            =            1.0E-10 Ry

     new unit-cell volume =    251.32861 a.u.^3 (    37.24306 Ang^3 )
     density =      1.02504 g/cm^3

CELL_PARAMETERS (alat=  8.00000000)
   0.496940042   0.496940042   0.496940042
  -0.496940042   0.496940042   0.496940042
  -0.496940042  -0.496940042   0.496940042

ATOMIC_POSITIONS (crystal)
Na       0.000000000   0.000000000   0.000000000



     Writing output data file na.bcc.save
     NEW-OLD atomic charge density approx. for the potential
     extrapolated charge    8.89995, renormalised to    9.00000

     total cpu time spent up to now is       35.7 secs

     per-process dynamical memory:    31.4 Mb

     Self-consistent Calculation

     iteration #  1     ecut=    40.00 Ry     beta=0.70
     Davidson diagonalization with overlap
     ethr =  1.00E-06,  avg # of iterations =  3.4

     total cpu time spent up to now is       38.1 secs

     total energy              =     -95.10022253 Ry
     Harris-Foulkes estimate   =     -95.88789501 Ry
     estimated scf accuracy    <       0.00357615 Ry

     iteration #  2     ecut=    40.00 Ry     beta=0.70
     Davidson diagonalization with overlap
     ethr =  3.97E-05,  avg # of iterations =  3.0

     total cpu time spent up to now is       40.2 secs

     total energy              =     -95.10670393 Ry
     Harris-Foulkes estimate   =     -95.10932866 Ry
     estimated scf accuracy    <       0.00597338 Ry

     iteration #  3     ecut=    40.00 Ry     beta=0.70
     Davidson diagonalization with overlap
     ethr =  3.97E-05,  avg # of iterations =  2.0

     total cpu time spent up to now is       41.8 secs

     total energy              =     -95.10668307 Ry
     Harris-Foulkes estimate   =     -95.10710992 Ry
     estimated scf accuracy    <       0.00112176 Ry

     iteration #  4     ecut=    40.00 Ry     beta=0.70
     Davidson diagonalization with overlap
     ethr =  1.25E-05,  avg # of iterations =  1.0

     total cpu time spent up to now is       43.2 secs

     total energy              =     -95.10659782 Ry
     Harris-Foulkes estimate   =     -95.10674291 Ry
     estimated scf accuracy    <       0.00030115 Ry

     iteration #  5     ecut=    40.00 Ry     beta=0.70
     Davidson diagonalization with overlap
     ethr =  3.35E-06,  avg # of iterations =  1.8

     total cpu time spent up to now is       44.7 secs

     total energy              =     -95.10662667 Ry
     Harris-Foulkes estimate   =     -95.10662651 Ry
     estimated scf accuracy    <       0.00003944 Ry

     iteration #  6     ecut=    40.00 Ry     beta=0.70
     Davidson diagonalization with overlap
     ethr =  4.38E-07,  avg # of iterations =  1.0

     total cpu time spent up to now is       46.1 secs

     total energy              =     -95.10661066 Ry
     Harris-Foulkes estimate   =     -95.10662746 Ry
     estimated scf accuracy    <       0.00004227 Ry

     iteration #  7     ecut=    40.00 Ry     beta=0.70
     Davidson diagonalization with overlap
     ethr =  4.38E-07,  avg # of iterations =  1.0

     total cpu time spent up to now is       47.5 secs

     total energy              =     -95.10661393 Ry
     Harris-Foulkes estimate   =     -95.10661332 Ry
     estimated scf accuracy    <       0.00001018 Ry

     iteration #  8     ecut=    40.00 Ry     beta=0.70
     Davidson diagonalization with overlap
     ethr =  1.13E-07,  avg # of iterations =  1.0

     total cpu time spent up to now is       48.9 secs

     total energy              =     -95.10660589 Ry
     Harris-Foulkes estimate   =     -95.10661401 Ry
     estimated scf accuracy    <       0.00001201 Ry

     iteration #  9     ecut=    40.00 Ry     beta=0.70
     Davidson diagonalization with overlap
     ethr =  1.13E-07,  avg # of iterations =  2.0

     total cpu time spent up to now is       50.6 secs

     total energy              =     -95.10660944 Ry
     Harris-Foulkes estimate   =     -95.10660952 Ry
     estimated scf accuracy    <       0.00000169 Ry

     iteration # 10     ecut=    40.00 Ry     beta=0.70
     Davidson diagonalization with overlap
     ethr =  1.88E-08,  avg # of iterations =  1.0

     total cpu time spent up to now is       52.0 secs

     total energy              =     -95.10660949 Ry
     Harris-Foulkes estimate   =     -95.10660945 Ry
     estimated scf accuracy    <       0.00000143 Ry

     iteration # 11     ecut=    40.00 Ry     beta=0.70
     Davidson diagonalization with overlap
     ethr =  1.59E-08,  avg # of iterations =  1.0

     total cpu time spent up to now is       53.4 secs

     total energy              =     -95.10660888 Ry
     Harris-Foulkes estimate   =     -95.10660949 Ry
     estimated scf accuracy    <       0.00000148 Ry

     iteration # 12     ecut=    40.00 Ry     beta=0.70
     Davidson diagonalization with overlap
     ethr =  1.59E-08,  avg # of iterations =  1.0

     total cpu time spent up to now is       54.8 secs

     total energy              =     -95.10660900 Ry
     Harris-Foulkes estimate   =     -95.10660900 Ry
     estimated scf accuracy    <       0.00000003 Ry

     iteration # 13     ecut=    40.00 Ry     beta=0.70
     Davidson diagonalization with overlap
     ethr =  2.78E-10,  avg # of iterations =  2.0

     total cpu time spent up to now is       56.4 secs

     total energy              =     -95.10660900 Ry
     Harris-Foulkes estimate   =     -95.10660900 Ry
     estimated scf accuracy    <       0.00000001 Ry

     iteration # 14     ecut=    40.00 Ry     beta=0.70
     Davidson diagonalization with overlap
     ethr =  1.31E-10,  avg # of iterations =  1.0

     total cpu time spent up to now is       57.8 secs

     total energy              =     -95.10660900 Ry
     Harris-Foulkes estimate   =     -95.10660900 Ry
     estimated scf accuracy    <          7.2E-09 Ry

     iteration # 15     ecut=    40.00 Ry     beta=0.70
     Davidson diagonalization with overlap
     ethr =  7.98E-11,  avg # of iterations =  1.0

     total cpu time spent up to now is       59.2 secs

     total energy              =     -95.10660900 Ry
     Harris-Foulkes estimate   =     -95.10660900 Ry
     estimated scf accuracy    <          2.8E-09 Ry

     iteration # 16     ecut=    40.00 Ry     beta=0.70
     Davidson diagonalization with overlap
     ethr =  3.14E-11,  avg # of iterations =  1.0

     total cpu time spent up to now is       60.7 secs

     total energy              =     -95.10660900 Ry
     Harris-Foulkes estimate   =     -95.10660900 Ry
     estimated scf accuracy    <          5.8E-09 Ry

     iteration # 17     ecut=    40.00 Ry     beta=0.70
     Davidson diagonalization with overlap
     ethr =  3.14E-11,  avg # of iterations =  1.1

     total cpu time spent up to now is       62.0 secs

     End of self-consistent calculation

     Number of k-points >= 100: set verbosity='high' to print the bands.

     the Fermi energy is     1.5873 ev

!    total energy              =     -95.10660900 Ry
     Harris-Foulkes estimate   =     -95.10660900 Ry
     estimated scf accuracy    <          2.4E-11 Ry

     The total energy is the sum of the following terms:

     one-electron contribution =     -88.23908770 Ry
     hartree contribution      =      44.47458627 Ry
     xc contribution           =     -14.26788596 Ry
     ewald contribution        =     -37.07412926 Ry
     smearing contrib. (-TS)   =      -0.00009236 Ry

     convergence has been achieved in  17 iterations

     Forces acting on atoms (cartesian axes, Ry/au):

     atom    1 type  1   force =     0.00000000    0.00000000    0.00000000

     Total force =     0.000000     Total SCF correction =     0.000000


     Computing stress (Cartesian axis) and pressure

          total   stress  (Ry/bohr**3)                   (kbar)     P=   -2.95
  -0.00002004  -0.00000000   0.00000000         -2.95     -0.00      0.00
  -0.00000000  -0.00002004  -0.00000000         -0.00     -2.95     -0.00
   0.00000000  -0.00000000  -0.00002004          0.00     -0.00     -2.95


     number of scf cycles    =   3
     number of bfgs steps    =   2

     enthalpy old            =     -95.0892677747 Ry
     enthalpy new            =     -95.0895240218 Ry

     CASE: enthalpy_new < enthalpy_old

     new trust radius        =       0.0175713444 bohr
     new conv_thr            =            1.0E-10 Ry

     new unit-cell volume =    247.17325 a.u.^3 (    36.62730 Ang^3 )
     density =      1.04228 g/cm^3

CELL_PARAMETERS (alat=  8.00000000)
   0.494186079   0.494186079   0.494186079
  -0.494186079   0.494186079   0.494186079
  -0.494186079  -0.494186079   0.494186079

ATOMIC_POSITIONS (crystal)
Na       0.000000000   0.000000000   0.000000000



     Writing output data file na.bcc.save
     NEW-OLD atomic charge density approx. for the potential
     extrapolated charge    8.84880, renormalised to    9.00000

     total cpu time spent up to now is       63.5 secs

     per-process dynamical memory:    31.4 Mb

     Self-consistent Calculation

     iteration #  1     ecut=    40.00 Ry     beta=0.70
     Davidson diagonalization with overlap
     c_bands:  1 eigenvalues not converged
     ethr =  1.00E-06,  avg # of iterations =  3.8

     total cpu time spent up to now is       66.1 secs

     total energy              =     -95.09237564 Ry
     Harris-Foulkes estimate   =     -96.28091832 Ry
     estimated scf accuracy    <       0.00801741 Ry

     iteration #  2     ecut=    40.00 Ry     beta=0.70
     Davidson diagonalization with overlap
     ethr =  8.91E-05,  avg # of iterations =  2.9

     total cpu time spent up to now is       68.2 secs

     total energy              =     -95.10685736 Ry
     Harris-Foulkes estimate   =     -95.11273707 Ry
     estimated scf accuracy    <       0.01337626 Ry

     iteration #  3     ecut=    40.00 Ry     beta=0.70
     Davidson diagonalization with overlap
     ethr =  8.91E-05,  avg # of iterations =  2.0

     total cpu time spent up to now is       69.8 secs

     total energy              =     -95.10680326 Ry
     Harris-Foulkes estimate   =     -95.10777751 Ry
     estimated scf accuracy    <       0.00248016 Ry

     iteration #  4     ecut=    40.00 Ry     beta=0.70
     Davidson diagonalization with overlap
     ethr =  2.76E-05,  avg # of iterations =  1.0

     total cpu time spent up to now is       71.2 secs

     total energy              =     -95.10667399 Ry
     Harris-Foulkes estimate   =     -95.10694494 Ry
     estimated scf accuracy    <       0.00061893 Ry

     iteration #  5     ecut=    40.00 Ry     beta=0.70
     Davidson diagonalization with overlap
     ethr =  6.88E-06,  avg # of iterations =  1.2

     total cpu time spent up to now is       72.6 secs

     total energy              =     -95.10670921 Ry
     Harris-Foulkes estimate   =     -95.10672272 Ry
     estimated scf accuracy    <       0.00011332 Ry

     iteration #  6     ecut=    40.00 Ry     beta=0.70
     Davidson diagonalization with overlap
     ethr =  1.26E-06,  avg # of iterations =  1.1

     total cpu time spent up to now is       74.0 secs

     total energy              =     -95.10668808 Ry
     Harris-Foulkes estimate   =     -95.10671156 Ry
     estimated scf accuracy    <       0.00009168 Ry

     iteration #  7     ecut=    40.00 Ry     beta=0.70
     Davidson diagonalization with overlap
     ethr =  1.02E-06,  avg # of iterations =  1.0

     total cpu time spent up to now is       75.4 secs

     total energy              =     -95.10668943 Ry
     Harris-Foulkes estimate   =     -95.10669056 Ry
     estimated scf accuracy    <       0.00004249 Ry

     iteration #  8     ecut=    40.00 Ry     beta=0.70
     Davidson diagonalization with overlap
     ethr =  4.72E-07,  avg # of iterations =  1.0

     total cpu time spent up to now is       76.8 secs

     total energy              =     -95.10666461 Ry
     Harris-Foulkes estimate   =     -95.10668960 Ry
     estimated scf accuracy    <       0.00004344 Ry

     iteration #  9     ecut=    40.00 Ry     beta=0.70
     Davidson diagonalization with overlap
     ethr =  4.72E-07,  avg # of iterations =  2.0

     total cpu time spent up to now is       78.5 secs

     total energy              =     -95.10667196 Ry
     Harris-Foulkes estimate   =     -95.10667193 Ry
     estimated scf accuracy    <       0.00000052 Ry

     iteration # 10     ecut=    40.00 Ry     beta=0.70
     Davidson diagonalization with overlap
     ethr =  5.80E-09,  avg # of iterations =  1.0

     total cpu time spent up to now is       79.9 secs

     total energy              =     -95.10667197 Ry
     Harris-Foulkes estimate   =     -95.10667198 Ry
     estimated scf accuracy    <       0.00000052 Ry

     iteration # 11     ecut=    40.00 Ry     beta=0.70
     Davidson diagonalization with overlap
     ethr =  5.73E-09,  avg # of iterations =  2.1

     total cpu time spent up to now is       81.7 secs

     total energy              =     -95.10667132 Ry
     Harris-Foulkes estimate   =     -95.10667274 Ry
     estimated scf accuracy    <       0.00000268 Ry

     iteration # 12     ecut=    40.00 Ry     beta=0.70
     Davidson diagonalization with overlap
     ethr =  5.73E-09,  avg # of iterations =  2.0

     total cpu time spent up to now is       83.4 secs

     total energy              =     -95.10667175 Ry
     Harris-Foulkes estimate   =     -95.10667175 Ry
     estimated scf accuracy    <          9.0E-09 Ry

     iteration # 13     ecut=    40.00 Ry     beta=0.70
     Davidson diagonalization with overlap
     ethr =  1.00E-10,  avg # of iterations =  1.0

     total cpu time spent up to now is       84.8 secs

     total energy              =     -95.10667175 Ry
     Harris-Foulkes estimate   =     -95.10667175 Ry
     estimated scf accuracy    <          3.9E-09 Ry

     iteration # 14     ecut=    40.00 Ry     beta=0.70
     Davidson diagonalization with overlap
     ethr =  4.30E-11,  avg # of iterations =  1.0

     total cpu time spent up to now is       86.2 secs

     total energy              =     -95.10667175 Ry
     Harris-Foulkes estimate   =     -95.10667175 Ry
     estimated scf accuracy    <          3.3E-09 Ry

     iteration # 15     ecut=    40.00 Ry     beta=0.70
     Davidson diagonalization with overlap
     ethr =  3.66E-11,  avg # of iterations =  1.0

     total cpu time spent up to now is       87.6 secs

     total energy              =     -95.10667175 Ry
     Harris-Foulkes estimate   =     -95.10667175 Ry
     estimated scf accuracy    <          2.0E-09 Ry

     iteration # 16     ecut=    40.00 Ry     beta=0.70
     Davidson diagonalization with overlap
     ethr =  2.26E-11,  avg # of iterations =  2.0

     total cpu time spent up to now is       89.3 secs

     End of self-consistent calculation

     Number of k-points >= 100: set verbosity='high' to print the bands.

     the Fermi energy is     1.6569 ev

!    total energy              =     -95.10667175 Ry
     Harris-Foulkes estimate   =     -95.10667175 Ry
     estimated scf accuracy    <          3.9E-11 Ry

     The total energy is the sum of the following terms:

     one-electron contribution =     -87.87635727 Ry
     hartree contribution      =      44.32056501 Ry
     xc contribution           =     -14.27005313 Ry
     ewald contribution        =     -37.28073314 Ry
     smearing contrib. (-TS)   =      -0.00009321 Ry

     convergence has been achieved in  16 iterations

     Forces acting on atoms (cartesian axes, Ry/au):

     atom    1 type  1   force =     0.00000000    0.00000000    0.00000000

     Total force =     0.000000     Total SCF correction =     0.000000


     Computing stress (Cartesian axis) and pressure

          total   stress  (Ry/bohr**3)                   (kbar)     P=   -1.48
  -0.00001008   0.00000000  -0.00000000         -1.48      0.00     -0.00
   0.00000000  -0.00001008   0.00000000          0.00     -1.48      0.00
  -0.00000000   0.00000000  -0.00001008         -0.00      0.00     -1.48


     number of scf cycles    =   4
     number of bfgs steps    =   3

     enthalpy old            =     -95.0895240218 Ry
     enthalpy new            =     -95.0898692483 Ry

     CASE: enthalpy_new < enthalpy_old

     new trust radius        =       0.0262838819 bohr
     new conv_thr            =            1.0E-10 Ry

     new unit-cell volume =    241.02650 a.u.^3 (    35.71644 Ang^3 )
     density =      1.06886 g/cm^3

CELL_PARAMETERS (alat=  8.00000000)
   0.490055135   0.490055135   0.490055135
  -0.490055135   0.490055135   0.490055135
  -0.490055135  -0.490055135   0.490055135

ATOMIC_POSITIONS (crystal)
Na       0.000000000   0.000000000   0.000000000



     Writing output data file na.bcc.save
     NEW-OLD atomic charge density approx. for the potential
     extrapolated charge    8.77064, renormalised to    9.00000

     total cpu time spent up to now is       90.7 secs

     per-process dynamical memory:    31.4 Mb

     Self-consistent Calculation

     iteration #  1     ecut=    40.00 Ry     beta=0.70
     Davidson diagonalization with overlap
     ethr =  1.00E-06,  avg # of iterations =  4.2

     total cpu time spent up to now is       93.5 secs

     total energy              =     -95.07473242 Ry
     Harris-Foulkes estimate   =     -96.87303334 Ry
     estimated scf accuracy    <       0.01797167 Ry

     iteration #  2     ecut=    40.00 Ry     beta=0.70
     Davidson diagonalization with overlap
     ethr =  2.00E-04,  avg # of iterations =  2.9

     total cpu time spent up to now is       95.6 secs

     total energy              =     -95.10700116 Ry
     Harris-Foulkes estimate   =     -95.12015207 Ry
     estimated scf accuracy    <       0.02989544 Ry

     iteration #  3     ecut=    40.00 Ry     beta=0.70
     Davidson diagonalization with overlap
     ethr =  2.00E-04,  avg # of iterations =  2.0

     total cpu time spent up to now is       97.2 secs

     total energy              =     -95.10682197 Ry
     Harris-Foulkes estimate   =     -95.10909708 Ry
     estimated scf accuracy    <       0.00542993 Ry

     iteration #  4     ecut=    40.00 Ry     beta=0.70
     Davidson diagonalization with overlap
     ethr =  6.03E-05,  avg # of iterations =  1.0

     total cpu time spent up to now is       98.7 secs

     total energy              =     -95.10720734 Ry
     Harris-Foulkes estimate   =     -95.10717838 Ry
     estimated scf accuracy    <       0.00114781 Ry

     iteration #  5     ecut=    40.00 Ry     beta=0.70
     Davidson diagonalization with overlap
     ethr =  1.28E-05,  avg # of iterations =  1.0

     total cpu time spent up to now is      100.1 secs

     total energy              =     -95.10680637 Ry
     Harris-Foulkes estimate   =     -95.10722381 Ry
     estimated scf accuracy    <       0.00124560 Ry

     iteration #  6     ecut=    40.00 Ry     beta=0.70
     Davidson diagonalization with overlap
     ethr =  1.28E-05,  avg # of iterations =  1.0

     total cpu time spent up to now is      101.5 secs

     total energy              =     -95.10670715 Ry
     Harris-Foulkes estimate   =     -95.10686112 Ry
     estimated scf accuracy    <       0.00040614 Ry

     iteration #  7     ecut=    40.00 Ry     beta=0.70
     Davidson diagonalization with overlap
     ethr =  4.51E-06,  avg # of iterations =  1.0

     total cpu time spent up to now is      102.9 secs

     total energy              =     -95.10665542 Ry
     Harris-Foulkes estimate   =     -95.10672892 Ry
     estimated scf accuracy    <       0.00010873 Ry

     iteration #  8     ecut=    40.00 Ry     beta=0.70
     Davidson diagonalization with overlap
     ethr =  1.21E-06,  avg # of iterations =  2.0

     total cpu time spent up to now is      104.6 secs

     total energy              =     -95.10668050 Ry
     Harris-Foulkes estimate   =     -95.10668026 Ry
     estimated scf accuracy    <       0.00000003 Ry

     iteration #  9     ecut=    40.00 Ry     beta=0.70
     Davidson diagonalization with overlap
     ethr =  3.18E-10,  avg # of iterations =  3.0

     total cpu time spent up to now is      106.7 secs

     total energy              =     -95.10668009 Ry
     Harris-Foulkes estimate   =     -95.10668086 Ry
     estimated scf accuracy    <       0.00000131 Ry

     iteration # 10     ecut=    40.00 Ry     beta=0.70
     Davidson diagonalization with overlap
     ethr =  3.18E-10,  avg # of iterations =  3.0

     total cpu time spent up to now is      108.7 secs

     total energy              =     -95.10668028 Ry
     Harris-Foulkes estimate   =     -95.10668029 Ry
     estimated scf accuracy    <       0.00000004 Ry

     iteration # 11     ecut=    40.00 Ry     beta=0.70
     Davidson diagonalization with overlap
     ethr =  3.18E-10,  avg # of iterations =  2.0

     total cpu time spent up to now is      110.3 secs

     total energy              =     -95.10668028 Ry
     Harris-Foulkes estimate   =     -95.10668028 Ry
     estimated scf accuracy    <       0.00000002 Ry

     iteration # 12     ecut=    40.00 Ry     beta=0.70
     Davidson diagonalization with overlap
     ethr =  2.60E-10,  avg # of iterations =  1.0

     total cpu time spent up to now is      111.7 secs

     total energy              =     -95.10668028 Ry
     Harris-Foulkes estimate   =     -95.10668029 Ry
     estimated scf accuracy    <       0.00000003 Ry

     iteration # 13     ecut=    40.00 Ry     beta=0.70
     Davidson diagonalization with overlap
     ethr =  2.60E-10,  avg # of iterations =  1.0

     total cpu time spent up to now is      113.1 secs

     total energy              =     -95.10668028 Ry
     Harris-Foulkes estimate   =     -95.10668028 Ry
     estimated scf accuracy    <       0.00000003 Ry

     iteration # 14     ecut=    40.00 Ry     beta=0.70
     Davidson diagonalization with overlap
     ethr =  2.60E-10,  avg # of iterations =  1.0

     total cpu time spent up to now is      114.5 secs

     total energy              =     -95.10668028 Ry
     Harris-Foulkes estimate   =     -95.10668029 Ry
     estimated scf accuracy    <       0.00000003 Ry

     iteration # 15     ecut=    40.00 Ry     beta=0.70
     Davidson diagonalization with overlap
     ethr =  2.60E-10,  avg # of iterations =  1.0

     total cpu time spent up to now is      116.0 secs

     total energy              =     -95.10668027 Ry
     Harris-Foulkes estimate   =     -95.10668028 Ry
     estimated scf accuracy    <       0.00000001 Ry

     iteration # 16     ecut=    40.00 Ry     beta=0.70
     Davidson diagonalization with overlap
     ethr =  1.39E-10,  avg # of iterations =  2.0

     total cpu time spent up to now is      117.6 secs

     total energy              =     -95.10668028 Ry
     Harris-Foulkes estimate   =     -95.10668028 Ry
     estimated scf accuracy    <          1.8E-09 Ry

     iteration # 17     ecut=    40.00 Ry     beta=0.70
     Davidson diagonalization with overlap
     ethr =  1.99E-11,  avg # of iterations =  1.6

     total cpu time spent up to now is      119.1 secs

     total energy              =     -95.10668028 Ry
     Harris-Foulkes estimate   =     -95.10668028 Ry
     estimated scf accuracy    <       0.00000001 Ry

     iteration # 18     ecut=    40.00 Ry     beta=0.70
     Davidson diagonalization with overlap
     ethr =  1.99E-11,  avg # of iterations =  1.0

     total cpu time spent up to now is      120.6 secs

     total energy              =     -95.10668028 Ry
     Harris-Foulkes estimate   =     -95.10668028 Ry
     estimated scf accuracy    <       0.00000001 Ry

     iteration # 19     ecut=    40.00 Ry     beta=0.70
     Davidson diagonalization with overlap
     ethr =  1.99E-11,  avg # of iterations =  1.0

     total cpu time spent up to now is      122.0 secs

     total energy              =     -95.10668028 Ry
     Harris-Foulkes estimate   =     -95.10668028 Ry
     estimated scf accuracy    <          7.6E-09 Ry

     iteration # 20     ecut=    40.00 Ry     beta=0.70
     Davidson diagonalization with overlap
     ethr =  1.99E-11,  avg # of iterations =  1.0

     total cpu time spent up to now is      123.4 secs

     total energy              =     -95.10668028 Ry
     Harris-Foulkes estimate   =     -95.10668028 Ry
     estimated scf accuracy    <          4.2E-09 Ry

     iteration # 21     ecut=    40.00 Ry     beta=0.70
     Davidson diagonalization with overlap
     ethr =  1.99E-11,  avg # of iterations =  1.6

     total cpu time spent up to now is      124.8 secs

     End of self-consistent calculation

     Number of k-points >= 100: set verbosity='high' to print the bands.

     the Fermi energy is     1.7645 ev

!    total energy              =     -95.10668028 Ry
     Harris-Foulkes estimate   =     -95.10668028 Ry
     estimated scf accuracy    <          9.9E-11 Ry

     The total energy is the sum of the following terms:

     one-electron contribution =     -87.32511845 Ry
     hartree contribution      =      44.08692517 Ry
     xc contribution           =     -14.27339959 Ry
     ewald contribution        =     -37.59499291 Ry
     smearing contrib. (-TS)   =      -0.00009450 Ry

     convergence has been achieved in  21 iterations

     Forces acting on atoms (cartesian axes, Ry/au):

     atom    1 type  1   force =     0.00000000    0.00000000    0.00000000

     Total force =     0.000000     Total SCF correction =     0.000000


     Computing stress (Cartesian axis) and pressure

          total   stress  (Ry/bohr**3)                   (kbar)     P=    1.15
   0.00000782   0.00000000  -0.00000000          1.15      0.00     -0.00
   0.00000000   0.00000782   0.00000000          0.00      1.15      0.00
  -0.00000000   0.00000000   0.00000782         -0.00      0.00      1.15


     number of scf cycles    =   5
     number of bfgs steps    =   4

     enthalpy old            =     -95.0898692483 Ry
     enthalpy new            =     -95.0902956247 Ry

     CASE: enthalpy_new < enthalpy_old

     new trust radius        =       0.0392606951 bohr
     new conv_thr            =            1.0E-10 Ry

     new unit-cell volume =    231.99876 a.u.^3 (    34.37867 Ang^3 )
     density =      1.11045 g/cm^3

CELL_PARAMETERS (alat=  8.00000000)
   0.483858720   0.483858720   0.483858720
  -0.483858720   0.483858720   0.483858720
  -0.483858720  -0.483858720   0.483858720

ATOMIC_POSITIONS (crystal)
Na       0.000000000   0.000000000   0.000000000



     Writing output data file na.bcc.save
     NEW-OLD atomic charge density approx. for the potential
     extrapolated charge    8.65003, renormalised to    9.00000

     total cpu time spent up to now is      126.3 secs

     per-process dynamical memory:    31.4 Mb

     Self-consistent Calculation

     iteration #  1     ecut=    40.00 Ry     beta=0.70
     Davidson diagonalization with overlap
     ethr =  1.00E-06,  avg # of iterations =  4.6

     total cpu time spent up to now is      129.1 secs

     total energy              =     -95.03528008 Ry
     Harris-Foulkes estimate   =     -97.76646931 Ry
     estimated scf accuracy    <       0.04027342 Ry

     iteration #  2     ecut=    40.00 Ry     beta=0.70
     Davidson diagonalization with overlap
     ethr =  4.47E-04,  avg # of iterations =  2.9

     total cpu time spent up to now is      131.2 secs

     total energy              =     -95.10688455 Ry
     Harris-Foulkes estimate   =     -95.13623857 Ry
     estimated scf accuracy    <       0.06662256 Ry

     iteration #  3     ecut=    40.00 Ry     beta=0.70
     Davidson diagonalization with overlap
     ethr =  4.47E-04,  avg # of iterations =  2.0

     total cpu time spent up to now is      132.8 secs

     total energy              =     -95.10643187 Ry
     Harris-Foulkes estimate   =     -95.11168865 Ry
     estimated scf accuracy    <       0.01172750 Ry

     iteration #  4     ecut=    40.00 Ry     beta=0.70
     Davidson diagonalization with overlap
     ethr =  1.30E-04,  avg # of iterations =  1.1

     total cpu time spent up to now is      134.2 secs

     total energy              =     -95.10750772 Ry
     Harris-Foulkes estimate   =     -95.10733454 Ry
     estimated scf accuracy    <       0.00199761 Ry

     iteration #  5     ecut=    40.00 Ry     beta=0.70
     Davidson diagonalization with overlap
     ethr =  2.22E-05,  avg # of iterations =  1.0

     total cpu time spent up to now is      135.6 secs

     total energy              =     -95.10670880 Ry
     Harris-Foulkes estimate   =     -95.10754851 Ry
     estimated scf accuracy    <       0.00243594 Ry

     iteration #  6     ecut=    40.00 Ry     beta=0.70
     Davidson diagonalization with overlap
     ethr =  2.22E-05,  avg # of iterations =  1.0

     total cpu time spent up to now is      137.1 secs

     total energy              =     -95.10663315 Ry
     Harris-Foulkes estimate   =     -95.10682329 Ry
     estimated scf accuracy    <       0.00075315 Ry

     iteration #  7     ecut=    40.00 Ry     beta=0.70
     Davidson diagonalization with overlap
     ethr =  8.37E-06,  avg # of iterations =  1.0

     total cpu time spent up to now is      138.5 secs

     total energy              =     -95.10664515 Ry
     Harris-Foulkes estimate   =     -95.10665290 Ry
     estimated scf accuracy    <       0.00035410 Ry

     iteration #  8     ecut=    40.00 Ry     beta=0.70
     Davidson diagonalization with overlap
     ethr =  3.93E-06,  avg # of iterations =  1.1

     total cpu time spent up to now is      139.9 secs

     total energy              =     -95.10641230 Ry
     Harris-Foulkes estimate   =     -95.10664628 Ry
     estimated scf accuracy    <       0.00035002 Ry

     iteration #  9     ecut=    40.00 Ry     beta=0.70
     Davidson diagonalization with overlap
     ethr =  3.89E-06,  avg # of iterations =  2.0

     total cpu time spent up to now is      141.6 secs

     total energy              =     -95.10648965 Ry
     Harris-Foulkes estimate   =     -95.10648961 Ry
     estimated scf accuracy    <       0.00000005 Ry

     iteration # 10     ecut=    40.00 Ry     beta=0.70
     Davidson diagonalization with overlap
     ethr =  5.95E-10,  avg # of iterations =  2.7

     total cpu time spent up to now is      143.4 secs

     total energy              =     -95.10648969 Ry
     Harris-Foulkes estimate   =     -95.10648971 Ry
     estimated scf accuracy    <       0.00000016 Ry

     iteration # 11     ecut=    40.00 Ry     beta=0.70
     Davidson diagonalization with overlap
     ethr =  5.95E-10,  avg # of iterations =  1.0

     total cpu time spent up to now is      144.8 secs

     total energy              =     -95.10648964 Ry
     Harris-Foulkes estimate   =     -95.10648969 Ry
     estimated scf accuracy    <       0.00000011 Ry

     iteration # 12     ecut=    40.00 Ry     beta=0.70
     Davidson diagonalization with overlap
     ethr =  5.95E-10,  avg # of iterations =  2.0

     total cpu time spent up to now is      146.5 secs

     total energy              =     -95.10648968 Ry
     Harris-Foulkes estimate   =     -95.10648966 Ry
     estimated scf accuracy    <       0.00000005 Ry

     iteration # 13     ecut=    40.00 Ry     beta=0.70
     Davidson diagonalization with overlap
     ethr =  5.27E-10,  avg # of iterations =  2.0

     total cpu time spent up to now is      148.2 secs

     total energy              =     -95.10648978 Ry
     Harris-Foulkes estimate   =     -95.10648972 Ry
     estimated scf accuracy    <       0.00000020 Ry

     iteration # 14     ecut=    40.00 Ry     beta=0.70
     Davidson diagonalization with overlap
     ethr =  5.27E-10,  avg # of iterations =  1.0

     total cpu time spent up to now is      149.6 secs

     total energy              =     -95.10648972 Ry
     Harris-Foulkes estimate   =     -95.10648978 Ry
     estimated scf accuracy    <       0.00000037 Ry

     iteration # 15     ecut=    40.00 Ry     beta=0.70
     Davidson diagonalization with overlap
     ethr =  5.27E-10,  avg # of iterations =  1.0

     total cpu time spent up to now is      151.0 secs

     total energy              =     -95.10648963 Ry
     Harris-Foulkes estimate   =     -95.10648972 Ry
     estimated scf accuracy    <       0.00000022 Ry

     iteration # 16     ecut=    40.00 Ry     beta=0.70
     Davidson diagonalization with overlap
     ethr =  5.27E-10,  avg # of iterations =  2.0

     total cpu time spent up to now is      152.7 secs

     total energy              =     -95.10648964 Ry
     Harris-Foulkes estimate   =     -95.10648965 Ry
     estimated scf accuracy    <       0.00000001 Ry

     iteration # 17     ecut=    40.00 Ry     beta=0.70
     Davidson diagonalization with overlap
     ethr =  1.53E-10,  avg # of iterations =  2.0

     total cpu time spent up to now is      154.3 secs

     End of self-consistent calculation

     Number of k-points >= 100: set verbosity='high' to print the bands.

     the Fermi energy is     1.9332 ev

!    total energy              =     -95.10648964 Ry
     Harris-Foulkes estimate   =     -95.10648964 Ry
     estimated scf accuracy    <          5.6E-11 Ry

     The total energy is the sum of the following terms:

     one-electron contribution =     -86.48129457 Ry
     hartree contribution      =      43.72987867 Ry
     xc contribution           =     -14.27853355 Ry
     ewald contribution        =     -38.07644379 Ry
     smearing contrib. (-TS)   =      -0.00009641 Ry

     convergence has been achieved in  17 iterations

     Forces acting on atoms (cartesian axes, Ry/au):

     atom    1 type  1   force =     0.00000000    0.00000000    0.00000000

     Total force =     0.000000     Total SCF correction =     0.000000


     Computing stress (Cartesian axis) and pressure

          total   stress  (Ry/bohr**3)                   (kbar)     P=    5.18
   0.00003521   0.00000000  -0.00000000          5.18      0.00     -0.00
   0.00000000   0.00003521   0.00000000          0.00      5.18      0.00
  -0.00000000   0.00000000   0.00003521         -0.00      0.00      5.18


     number of scf cycles    =   6
     number of bfgs steps    =   5

     enthalpy old            =     -95.0902956247 Ry
     enthalpy new            =     -95.0907186844 Ry

     CASE: enthalpy_new < enthalpy_old

     new trust radius        =       0.0441786236 bohr
     new conv_thr            =            1.0E-10 Ry

     new unit-cell volume =    222.05083 a.u.^3 (    32.90454 Ang^3 )
     density =      1.16020 g/cm^3

CELL_PARAMETERS (alat=  8.00000000)
   0.476841615   0.476841615   0.476841615
  -0.476841615   0.476841615   0.476841615
  -0.476841615  -0.476841615   0.476841615

ATOMIC_POSITIONS (crystal)
Na       0.000000000   0.000000000   0.000000000



     Writing output data file na.bcc.save
     NEW-OLD atomic charge density approx. for the potential
     extrapolated charge    8.59708, renormalised to    9.00000

     total cpu time spent up to now is      155.8 secs

     per-process dynamical memory:    31.4 Mb

     Self-consistent Calculation

     iteration #  1     ecut=    40.00 Ry     beta=0.70
     Davidson diagonalization with overlap
     ethr =  1.00E-06,  avg # of iterations =  4.7

     total cpu time spent up to now is      158.6 secs

     total energy              =     -95.01354433 Ry
     Harris-Foulkes estimate   =     -98.12751066 Ry
     estimated scf accuracy    <       0.05243322 Ry

     iteration #  2     ecut=    40.00 Ry     beta=0.70
     Davidson diagonalization with overlap
     ethr =  5.83E-04,  avg # of iterations =  2.9

     total cpu time spent up to now is      160.7 secs

     total energy              =     -95.10628670 Ry
     Harris-Foulkes estimate   =     -95.14441526 Ry
     estimated scf accuracy    <       0.08647184 Ry

     iteration #  3     ecut=    40.00 Ry     beta=0.70
     Davidson diagonalization with overlap
     ethr =  5.83E-04,  avg # of iterations =  2.0

     total cpu time spent up to now is      162.2 secs

     total energy              =     -95.10573224 Ry
     Harris-Foulkes estimate   =     -95.11259280 Ry
     estimated scf accuracy    <       0.01502982 Ry

     iteration #  4     ecut=    40.00 Ry     beta=0.70
     Davidson diagonalization with overlap
     ethr =  1.67E-04,  avg # of iterations =  1.1

     total cpu time spent up to now is      163.6 secs

     total energy              =     -95.10697833 Ry
     Harris-Foulkes estimate   =     -95.10695597 Ry
     estimated scf accuracy    <       0.00237508 Ry

     iteration #  5     ecut=    40.00 Ry     beta=0.70
     Davidson diagonalization with overlap
     ethr =  2.64E-05,  avg # of iterations =  1.0

     total cpu time spent up to now is      165.0 secs

     total energy              =     -95.10621369 Ry
     Harris-Foulkes estimate   =     -95.10703110 Ry
     estimated scf accuracy    <       0.00249609 Ry

     iteration #  6     ecut=    40.00 Ry     beta=0.70
     Davidson diagonalization with overlap
     ethr =  2.64E-05,  avg # of iterations =  1.0

     total cpu time spent up to now is      166.4 secs

     total energy              =     -95.10616440 Ry
     Harris-Foulkes estimate   =     -95.10632529 Ry
     estimated scf accuracy    <       0.00082517 Ry

     iteration #  7     ecut=    40.00 Ry     beta=0.70
     Davidson diagonalization with overlap
     ethr =  9.17E-06,  avg # of iterations =  1.0

     total cpu time spent up to now is      167.8 secs

     total energy              =     -95.10617904 Ry
     Harris-Foulkes estimate   =     -95.10617854 Ry
     estimated scf accuracy    <       0.00047442 Ry

     iteration #  8     ecut=    40.00 Ry     beta=0.70
     Davidson diagonalization with overlap
     ethr =  5.27E-06,  avg # of iterations =  1.0

     total cpu time spent up to now is      169.2 secs

     total energy              =     -95.10614913 Ry
     Harris-Foulkes estimate   =     -95.10617980 Ry
     estimated scf accuracy    <       0.00048786 Ry

     iteration #  9     ecut=    40.00 Ry     beta=0.70
     Davidson diagonalization with overlap
     ethr =  5.27E-06,  avg # of iterations =  1.0

     total cpu time spent up to now is      170.6 secs

     total energy              =     -95.10589933 Ry
     Harris-Foulkes estimate   =     -95.10614987 Ry
     estimated scf accuracy    <       0.00041646 Ry

     iteration # 10     ecut=    40.00 Ry     beta=0.70
     Davidson diagonalization with overlap
     ethr =  4.63E-06,  avg # of iterations =  2.0

     total cpu time spent up to now is      172.2 secs

     total energy              =     -95.10596374 Ry
     Harris-Foulkes estimate   =     -95.10596361 Ry
     estimated scf accuracy    <       0.00000929 Ry

     iteration # 11     ecut=    40.00 Ry     beta=0.70
     Davidson diagonalization with overlap
     ethr =  1.03E-07,  avg # of iterations =  1.1

     total cpu time spent up to now is      173.7 secs

     total energy              =     -95.10596211 Ry
     Harris-Foulkes estimate   =     -95.10596386 Ry
     estimated scf accuracy    <       0.00000957 Ry

     iteration # 12     ecut=    40.00 Ry     beta=0.70
     Davidson diagonalization with overlap
     ethr =  1.03E-07,  avg # of iterations =  1.0

     total cpu time spent up to now is      175.1 secs

     total energy              =     -95.10595879 Ry
     Harris-Foulkes estimate   =     -95.10596222 Ry
     estimated scf accuracy    <       0.00000577 Ry

     iteration # 13     ecut=    40.00 Ry     beta=0.70
     Davidson diagonalization with overlap
     ethr =  6.41E-08,  avg # of iterations =  2.0

     total cpu time spent up to now is      176.7 secs

     total energy              =     -95.10595985 Ry
     Harris-Foulkes estimate   =     -95.10595974 Ry
     estimated scf accuracy    <       0.00000008 Ry

     iteration # 14     ecut=    40.00 Ry     beta=0.70
     Davidson diagonalization with overlap
     ethr =  8.51E-10,  avg # of iterations =  2.0

     total cpu time spent up to now is      178.4 secs

     total energy              =     -95.10596010 Ry
     Harris-Foulkes estimate   =     -95.10595988 Ry
     estimated scf accuracy    <       0.00000040 Ry

     iteration # 15     ecut=    40.00 Ry     beta=0.70
     Davidson diagonalization with overlap
     ethr =  8.51E-10,  avg # of iterations =  2.0

     total cpu time spent up to now is      180.1 secs

     total energy              =     -95.10595954 Ry
     Harris-Foulkes estimate   =     -95.10596012 Ry
     estimated scf accuracy    <       0.00000095 Ry

     iteration # 16     ecut=    40.00 Ry     beta=0.70
     Davidson diagonalization with overlap
     ethr =  8.51E-10,  avg # of iterations =  2.8

     total cpu time spent up to now is      181.9 secs

     total energy              =     -95.10595971 Ry
     Harris-Foulkes estimate   =     -95.10595971 Ry
     estimated scf accuracy    <       0.00000001 Ry

     iteration # 17     ecut=    40.00 Ry     beta=0.70
     Davidson diagonalization with overlap
     ethr =  1.44E-10,  avg # of iterations =  2.1

     total cpu time spent up to now is      183.6 secs

     total energy              =     -95.10595970 Ry
     Harris-Foulkes estimate   =     -95.10595973 Ry
     estimated scf accuracy    <       0.00000005 Ry

     iteration # 18     ecut=    40.00 Ry     beta=0.70
     Davidson diagonalization with overlap
     ethr =  1.44E-10,  avg # of iterations =  2.0

     total cpu time spent up to now is      185.4 secs

     total energy              =     -95.10595971 Ry
     Harris-Foulkes estimate   =     -95.10595971 Ry
     estimated scf accuracy    <          7.3E-09 Ry

     iteration # 19     ecut=    40.00 Ry     beta=0.70
     Davidson diagonalization with overlap
     ethr =  8.06E-11,  avg # of iterations =  1.0

     total cpu time spent up to now is      186.8 secs

     total energy              =     -95.10595971 Ry
     Harris-Foulkes estimate   =     -95.10595971 Ry
     estimated scf accuracy    <          6.5E-09 Ry

     iteration # 20     ecut=    40.00 Ry     beta=0.70
     Davidson diagonalization with overlap
     ethr =  7.27E-11,  avg # of iterations =  1.0

     total cpu time spent up to now is      188.2 secs

     total energy              =     -95.10595971 Ry
     Harris-Foulkes estimate   =     -95.10595971 Ry
     estimated scf accuracy    <       0.00000001 Ry

     iteration # 21     ecut=    40.00 Ry     beta=0.70
     Davidson diagonalization with overlap
     ethr =  7.27E-11,  avg # of iterations =  2.0

     total cpu time spent up to now is      189.9 secs

     total energy              =     -95.10595971 Ry
     Harris-Foulkes estimate   =     -95.10595971 Ry
     estimated scf accuracy    <          7.6E-09 Ry

     iteration # 22     ecut=    40.00 Ry     beta=0.70
     Davidson diagonalization with overlap
     ethr =  7.27E-11,  avg # of iterations =  1.6

     total cpu time spent up to now is      191.4 secs

     End of self-consistent calculation

     Number of k-points >= 100: set verbosity='high' to print the bands.

     the Fermi energy is     2.1356 ev

!    total energy              =     -95.10595971 Ry
     Harris-Foulkes estimate   =     -95.10595971 Ry
     estimated scf accuracy    <          3.7E-11 Ry

     The total energy is the sum of the following terms:

     one-electron contribution =     -85.50061378 Ry
     hartree contribution      =      43.31611754 Ry
     xc contribution           =     -14.28459598 Ry
     ewald contribution        =     -38.63676899 Ry
     smearing contrib. (-TS)   =      -0.00009849 Ry

     convergence has been achieved in  22 iterations

     Forces acting on atoms (cartesian axes, Ry/au):

     atom    1 type  1   force =     0.00000000    0.00000000    0.00000000

     Total force =     0.000000     Total SCF correction =     0.000000


     Computing stress (Cartesian axis) and pressure

          total   stress  (Ry/bohr**3)                   (kbar)     P=   10.55
   0.00007168   0.00000000  -0.00000000         10.55      0.00     -0.00
   0.00000000   0.00007168   0.00000000          0.00     10.55      0.00
  -0.00000000   0.00000000   0.00007168         -0.00      0.00     10.55


     number of scf cycles    =   7
     number of bfgs steps    =   6

     enthalpy old            =     -95.0907186844 Ry
     enthalpy new            =     -95.0908649965 Ry

     CASE: enthalpy_new < enthalpy_old

     new trust radius        =       0.0043392713 bohr
     new conv_thr            =            1.0E-10 Ry

     new unit-cell volume =    223.02216 a.u.^3 (    33.04847 Ang^3 )
     density =      1.15515 g/cm^3

CELL_PARAMETERS (alat=  8.00000000)
   0.477535896   0.477535896   0.477535896
  -0.477535896   0.477535896   0.477535896
  -0.477535896  -0.477535896   0.477535896

ATOMIC_POSITIONS (crystal)
Na       0.000000000   0.000000000   0.000000000



     Writing output data file na.bcc.save
     NEW-OLD atomic charge density approx. for the potential
     extrapolated charge    9.03917, renormalised to    9.00000

     total cpu time spent up to now is      193.0 secs

     per-process dynamical memory:    31.4 Mb

     Self-consistent Calculation

     iteration #  1     ecut=    40.00 Ry     beta=0.70
     Davidson diagonalization with overlap
     ethr =  1.00E-06,  avg # of iterations =  2.1

     total cpu time spent up to now is      195.0 secs

     total energy              =     -95.10500875 Ry
     Harris-Foulkes estimate   =     -94.80918585 Ry
     estimated scf accuracy    <       0.00056930 Ry

     iteration #  2     ecut=    40.00 Ry     beta=0.70
     Davidson diagonalization with overlap
     ethr =  6.33E-06,  avg # of iterations =  3.0

     total cpu time spent up to now is      197.1 secs

     total energy              =     -95.10604806 Ry
     Harris-Foulkes estimate   =     -95.10646665 Ry
     estimated scf accuracy    <       0.00095390 Ry

     iteration #  3     ecut=    40.00 Ry     beta=0.70
     Davidson diagonalization with overlap
     ethr =  6.33E-06,  avg # of iterations =  1.6

     total cpu time spent up to now is      198.6 secs

     total energy              =     -95.10605183 Ry
     Harris-Foulkes estimate   =     -95.10611032 Ry
     estimated scf accuracy    <       0.00018697 Ry

     iteration #  4     ecut=    40.00 Ry     beta=0.70
     Davidson diagonalization with overlap
     ethr =  2.08E-06,  avg # of iterations =  1.0

     total cpu time spent up to now is      200.1 secs

     total energy              =     -95.10603557 Ry
     Harris-Foulkes estimate   =     -95.10605925 Ry
     estimated scf accuracy    <       0.00006869 Ry

     iteration #  5     ecut=    40.00 Ry     beta=0.70
     Davidson diagonalization with overlap
     ethr =  7.63E-07,  avg # of iterations =  1.0

     total cpu time spent up to now is      201.5 secs

     total energy              =     -95.10603034 Ry
     Harris-Foulkes estimate   =     -95.10603829 Ry
     estimated scf accuracy    <       0.00002305 Ry

     iteration #  6     ecut=    40.00 Ry     beta=0.70
     Davidson diagonalization with overlap
     ethr =  2.56E-07,  avg # of iterations =  1.0

     total cpu time spent up to now is      202.9 secs

     total energy              =     -95.10602693 Ry
     Harris-Foulkes estimate   =     -95.10603124 Ry
     estimated scf accuracy    <       0.00000778 Ry

     iteration #  7     ecut=    40.00 Ry     beta=0.70
     Davidson diagonalization with overlap
     ethr =  8.64E-08,  avg # of iterations =  1.9

     total cpu time spent up to now is      204.4 secs

     total energy              =     -95.10602758 Ry
     Harris-Foulkes estimate   =     -95.10602785 Ry
     estimated scf accuracy    <       0.00000051 Ry

     iteration #  8     ecut=    40.00 Ry     beta=0.70
     Davidson diagonalization with overlap
     ethr =  5.66E-09,  avg # of iterations =  2.0

     total cpu time spent up to now is      206.0 secs

     total energy              =     -95.10602764 Ry
     Harris-Foulkes estimate   =     -95.10602766 Ry
     estimated scf accuracy    <       0.00000004 Ry

     iteration #  9     ecut=    40.00 Ry     beta=0.70
     Davidson diagonalization with overlap
     ethr =  4.98E-10,  avg # of iterations =  1.7

     total cpu time spent up to now is      207.5 secs

     total energy              =     -95.10602764 Ry
     Harris-Foulkes estimate   =     -95.10602764 Ry
     estimated scf accuracy    <          6.1E-09 Ry

     iteration # 10     ecut=    40.00 Ry     beta=0.70
     Davidson diagonalization with overlap
     ethr =  6.77E-11,  avg # of iterations =  1.0

     total cpu time spent up to now is      208.9 secs

     total energy              =     -95.10602764 Ry
     Harris-Foulkes estimate   =     -95.10602764 Ry
     estimated scf accuracy    <          7.6E-09 Ry

     iteration # 11     ecut=    40.00 Ry     beta=0.70
     Davidson diagonalization with overlap
     ethr =  6.77E-11,  avg # of iterations =  2.0

     total cpu time spent up to now is      210.6 secs

     End of self-consistent calculation

     Number of k-points >= 100: set verbosity='high' to print the bands.

     the Fermi energy is     2.1150 ev

!    total energy              =     -95.10602764 Ry
     Harris-Foulkes estimate   =     -95.10602764 Ry
     estimated scf accuracy    <          5.0E-11 Ry

     The total energy is the sum of the following terms:

     one-electron contribution =     -85.59888028 Ry
     hartree contribution      =      43.35753494 Ry
     xc contribution           =     -14.28398826 Ry
     ewald contribution        =     -38.58059574 Ry
     smearing contrib. (-TS)   =      -0.00009829 Ry

     convergence has been achieved in  11 iterations

     Forces acting on atoms (cartesian axes, Ry/au):

     atom    1 type  1   force =     0.00000000    0.00000000    0.00000000

     Total force =     0.000000     Total SCF correction =     0.000000


     Computing stress (Cartesian axis) and pressure

          total   stress  (Ry/bohr**3)                   (kbar)     P=   10.04
   0.00006825   0.00000000  -0.00000000         10.04      0.00     -0.00
   0.00000000   0.00006825   0.00000000          0.00     10.04      0.00
  -0.00000000   0.00000000   0.00006825         -0.00      0.00     10.04


     bfgs converged in   8 scf cycles and   7 bfgs steps
     (criteria: energy <  1.0E-04 Ry, force <  1.0E-03Ry/Bohr, cell <  5.0E-01kbar)

     End of BFGS Geometry Optimization

     Final enthalpy =     -95.0908669002 Ry
Begin final coordinates
     new unit-cell volume =    223.02216 a.u.^3 (    33.04847 Ang^3 )
     density =      1.15515 g/cm^3

CELL_PARAMETERS (alat=  8.00000000)
   0.477535896   0.477535896   0.477535896
  -0.477535896   0.477535896   0.477535896
  -0.477535896  -0.477535896   0.477535896

ATOMIC_POSITIONS (crystal)
Na       0.000000000   0.000000000   0.000000000
End final coordinates



     A final scf calculation at the relaxed structure.
     The G-vectors are recalculated for the final unit cell
     Results may differ from those at the preceding step.

     Parallelization info
     --------------------
     sticks:   dense  smooth     PW     G-vecs:    dense   smooth      PW
     Min         261     132     42                 5382     1926     352
     Max         262     133     43                 5383     1927     353
     Sum        1047     531    169                21529     7707    1409



     bravais-lattice index     =            3
     lattice parameter (alat)  =       8.0000  a.u.
     unit-cell volume          =     223.0222 (a.u.)^3
     number of atoms/cell      =            1
     number of atomic types    =            1
     number of electrons       =         9.00
     number of Kohn-Sham states=            9
     kinetic-energy cutoff     =      40.0000  Ry
     charge density cutoff     =     320.0000  Ry
     convergence threshold     =      1.0E-10
     mixing beta               =       0.7000
     number of iterations used =            8  plain     mixing
     Exchange-correlation      = SLA  PW   PBE  PBE ( 1  4  3  4 0 0)

     celldm(1)=   8.000000  celldm(2)=   0.000000  celldm(3)=   0.000000
     celldm(4)=   0.000000  celldm(5)=   0.000000  celldm(6)=   0.000000

     crystal axes: (cart. coord. in units of alat)
               a(1) = (   0.477536   0.477536   0.477536 )  
               a(2) = (  -0.477536   0.477536   0.477536 )  
               a(3) = (  -0.477536  -0.477536   0.477536 )  

     reciprocal axes: (cart. coord. in units 2 pi/alat)
               b(1) = (  1.047042  0.000000  1.047042 )  
               b(2) = ( -1.047042  1.047042  0.000000 )  
               b(3) = (  0.000000 -1.047042  1.047042 )  


     PseudoPot. # 1 for Na read from file:
     /home/s1333534/quantum_espresso/qe-6.1/pseudo/Na_pbe_v1.uspp.F.UPF
     MD5 check sum: 76a99c7e9422403d3e93cbc85ab7bccb
     Pseudo is Ultrasoft, Zval =  9.0
     Generated by new atomic code, or converted to UPF format
     Using radial grid of  819 points,  5 beta functions with: 
                l(1) =   0
                l(2) =   0
                l(3) =   1
                l(4) =   1
                l(5) =   2
     Q(r) pseudized with  8 coefficients,  rinner =    1.250   1.250   1.250
                                                       1.250   1.250

     atomic species   valence    mass     pseudopotential
        Na             9.00    22.99000     Na( 1.00)

     48 Sym. Ops., with inversion, found



   Cartesian axes

     site n.     atom                  positions (alat units)
         1           Na  tau(   1) = (   0.0000000   0.0000000   0.0000000  )

     number of k points=   250  Marzari-Vanderbilt smearing, width (Ry)=  0.0200

     Number of k-points >= 100: set verbosity='high' to print them.

     Dense  grid:    21529 G-vectors     FFT dimensions: (  40,  40,  40)

     Smooth grid:     7707 G-vectors     FFT dimensions: (  27,  27,  27)

     Estimated max dynamical RAM per process >      11.78MB

     Estimated total allocated dynamical RAM >      47.13MB

     Initial potential from superposition of free atoms

     starting charge    8.99371, renormalised to    9.00000
     Starting wfc are    5 randomized atomic wfcs +    4 random wfc

     Writing output data file na.bcc.save

     total cpu time spent up to now is      212.6 secs

     per-process dynamical memory:    23.5 Mb

     Self-consistent Calculation

     iteration #  1     ecut=    40.00 Ry     beta=0.70
     Davidson diagonalization with overlap
     c_bands:  1 eigenvalues not converged
     c_bands:  1 eigenvalues not converged
     c_bands:  1 eigenvalues not converged
     ethr =  1.00E-06,  avg # of iterations = 11.7

     total cpu time spent up to now is      217.2 secs

     total energy              =     -95.10550948 Ry
     Harris-Foulkes estimate   =     -95.10578007 Ry
     estimated scf accuracy    <       0.00093977 Ry

     iteration #  2     ecut=    40.00 Ry     beta=0.70
     Davidson diagonalization with overlap
     ethr =  1.04E-05,  avg # of iterations =  2.0

     total cpu time spent up to now is      218.8 secs

     total energy              =     -95.10562512 Ry
     Harris-Foulkes estimate   =     -95.10565121 Ry
     estimated scf accuracy    <       0.00010709 Ry

     iteration #  3     ecut=    40.00 Ry     beta=0.70
     Davidson diagonalization with overlap
     ethr =  1.19E-06,  avg # of iterations =  2.0

     total cpu time spent up to now is      220.4 secs

     total energy              =     -95.10563689 Ry
     Harris-Foulkes estimate   =     -95.10563819 Ry
     estimated scf accuracy    <       0.00000673 Ry

     iteration #  4     ecut=    40.00 Ry     beta=0.70
     Davidson diagonalization with overlap
     ethr =  7.48E-08,  avg # of iterations =  1.0

     total cpu time spent up to now is      221.8 secs

     total energy              =     -95.10563749 Ry
     Harris-Foulkes estimate   =     -95.10563744 Ry
     estimated scf accuracy    <          8.9E-09 Ry

     iteration #  5     ecut=    40.00 Ry     beta=0.70
     Davidson diagonalization with overlap
     ethr =  9.84E-11,  avg # of iterations =  3.0

     total cpu time spent up to now is      223.6 secs

     total energy              =     -95.10563752 Ry
     Harris-Foulkes estimate   =     -95.10563752 Ry
     estimated scf accuracy    <          1.4E-09 Ry

     iteration #  6     ecut=    40.00 Ry     beta=0.70
     Davidson diagonalization with overlap
     ethr =  1.53E-11,  avg # of iterations =  1.5

     total cpu time spent up to now is      225.0 secs

     total energy              =     -95.10563752 Ry
     Harris-Foulkes estimate   =     -95.10563752 Ry
     estimated scf accuracy    <          1.1E-10 Ry

     iteration #  7     ecut=    40.00 Ry     beta=0.70
     Davidson diagonalization with overlap
     ethr =  1.18E-12,  avg # of iterations =  1.6

     total cpu time spent up to now is      226.5 secs

     End of self-consistent calculation

     Number of k-points >= 100: set verbosity='high' to print the bands.

     the Fermi energy is     2.1145 ev

!    total energy              =     -95.10563752 Ry
     Harris-Foulkes estimate   =     -95.10563752 Ry
     estimated scf accuracy    <          3.5E-12 Ry

     The total energy is the sum of the following terms:

     one-electron contribution =     -85.59803837 Ry
     hartree contribution      =      43.35684011 Ry
     xc contribution           =     -14.28374523 Ry
     ewald contribution        =     -38.58059574 Ry
     smearing contrib. (-TS)   =      -0.00009829 Ry

     convergence has been achieved in   7 iterations

     Forces acting on atoms (cartesian axes, Ry/au):

     atom    1 type  1   force =     0.00000000    0.00000000    0.00000000

     Total force =     0.000000     Total SCF correction =     0.000000


     Computing stress (Cartesian axis) and pressure

          total   stress  (Ry/bohr**3)                   (kbar)     P=    7.65
   0.00005200   0.00000000  -0.00000000          7.65      0.00     -0.00
   0.00000000   0.00005200   0.00000000          0.00      7.65      0.00
  -0.00000000   0.00000000   0.00005200         -0.00      0.00      7.65


     Writing output data file na.bcc.save

     init_run     :      1.73s CPU      1.78s WALL (       2 calls)
     electrons    :    203.21s CPU    213.18s WALL (       9 calls)
     update_pot   :      1.68s CPU      1.70s WALL (       7 calls)
     forces       :      1.39s CPU      1.40s WALL (       9 calls)
     stress       :      6.57s CPU      6.61s WALL (       9 calls)

     Called by init_run:
     wfcinit      :      1.02s CPU      1.07s WALL (       2 calls)
     potinit      :      0.10s CPU      0.10s WALL (       2 calls)

     Called by electrons:
     c_bands      :    163.27s CPU    171.59s WALL (     130 calls)
     sum_band     :     36.18s CPU     37.80s WALL (     130 calls)
     v_of_rho     :      1.64s CPU      1.66s WALL (     138 calls)
     newd         :      2.02s CPU      2.03s WALL (     138 calls)
     mix_rho      :      0.17s CPU      0.18s WALL (     130 calls)

     Called by c_bands:
     init_us_2    :      8.60s CPU      8.57s WALL (   70000 calls)
     cegterg      :    154.49s CPU    162.67s WALL (   32500 calls)

     Called by sum_band:
     sum_band:bec :      0.07s CPU      0.11s WALL (   32500 calls)
     addusdens    :      2.47s CPU      2.49s WALL (     130 calls)

     Called by *egterg:
     h_psi        :    129.86s CPU    137.00s WALL (   91798 calls)
     s_psi        :      1.77s CPU      1.44s WALL (   91798 calls)
     g_psi        :      0.91s CPU      0.90s WALL (   58798 calls)
     cdiaghg      :     11.56s CPU     12.04s WALL (   89298 calls)

     Called by h_psi:
     h_psi:pot    :    129.42s CPU    136.32s WALL (   91798 calls)
     h_psi:calbec :      3.29s CPU      2.70s WALL (   91798 calls)
     vloc_psi     :    125.08s CPU    131.82s WALL (   91798 calls)
     add_vuspsi   :      0.94s CPU      1.57s WALL (   91798 calls)

     General routines
     calbec       :      4.98s CPU      4.41s WALL (  135548 calls)
     fft          :      0.89s CPU      0.90s WALL (    2255 calls)
     ffts         :      0.03s CPU      0.03s WALL (     268 calls)
     fftw         :    141.41s CPU    142.24s WALL ( 1680476 calls)
     interpolate  :      0.13s CPU      0.14s WALL (     268 calls)
     davcio       :      0.00s CPU      0.01s WALL (     500 calls)

     Parallel routines
     fft_scatter  :     27.60s CPU     32.33s WALL ( 1682999 calls)

     PWSCF        :  3m36.87s CPU     3m47.55s WALL


   This run was terminated on:  15:34:24  20Dec2017            

=------------------------------------------------------------------------------=
   JOB DONE.
=------------------------------------------------------------------------------=
