
     Program PWSCF v.6.1 (svn rev. 13369) starts on 20Dec2017 at 15:45:34 

     This program is part of the open-source Quantum ESPRESSO suite
     for quantum simulation of materials; please cite
         "P. Giannozzi et al., J. Phys.:Condens. Matter 21 395502 (2009);
          URL http://www.quantum-espresso.org", 
     in publications or presentations arising from this work. More details at
     http://www.quantum-espresso.org/quote

     Parallel version (MPI), running on     4 processors
     R & G space division:  proc/nbgrp/npool/nimage =       4
     Waiting for input...
     Reading input from standard input

     Current dimensions of program PWSCF are:
     Max number of different atomic species (ntypx) = 10
     Max number of k-points (npk) =  40000
     Max angular momentum in pseudopotentials (lmaxx) =  3

     Subspace diagonalization in iterative solution of the eigenvalue problem:
     a serial algorithm will be used


     Parallelization info
     --------------------
     sticks:   dense  smooth     PW     G-vecs:    dense   smooth      PW
     Min         287     142     43                 6207     2171     375
     Max         288     144     44                 6210     2172     378
     Sum        1151     571    173                24835     8685    1505



     bravais-lattice index     =            3
     lattice parameter (alat)  =       8.0000  a.u.
     unit-cell volume          =     256.0000 (a.u.)^3
     number of atoms/cell      =            1
     number of atomic types    =            1
     number of electrons       =         9.00
     number of Kohn-Sham states=            9
     kinetic-energy cutoff     =      40.0000  Ry
     charge density cutoff     =     320.0000  Ry
     convergence threshold     =      1.0E-08
     mixing beta               =       0.7000
     number of iterations used =            8  plain     mixing
     Exchange-correlation      = SLA  PW   PBE  PBE ( 1  4  3  4 0 0)
     nstep                     =           50


     celldm(1)=   8.000000  celldm(2)=   0.000000  celldm(3)=   0.000000
     celldm(4)=   0.000000  celldm(5)=   0.000000  celldm(6)=   0.000000

     crystal axes: (cart. coord. in units of alat)
               a(1) = (   0.500000   0.500000   0.500000 )  
               a(2) = (  -0.500000   0.500000   0.500000 )  
               a(3) = (  -0.500000  -0.500000   0.500000 )  

     reciprocal axes: (cart. coord. in units 2 pi/alat)
               b(1) = (  1.000000  0.000000  1.000000 )  
               b(2) = ( -1.000000  1.000000  0.000000 )  
               b(3) = (  0.000000 -1.000000  1.000000 )  


     PseudoPot. # 1 for Na read from file:
     /home/s1333534/quantum_espresso/qe-6.1/pseudo/Na_pbe_v1.uspp.F.UPF
     MD5 check sum: 76a99c7e9422403d3e93cbc85ab7bccb
     Pseudo is Ultrasoft, Zval =  9.0
     Generated by new atomic code, or converted to UPF format
     Using radial grid of  819 points,  5 beta functions with: 
                l(1) =   0
                l(2) =   0
                l(3) =   1
                l(4) =   1
                l(5) =   2
     Q(r) pseudized with  8 coefficients,  rinner =    1.250   1.250   1.250
                                                       1.250   1.250

     atomic species   valence    mass     pseudopotential
        Na             9.00    22.99000     Na( 1.00)

     48 Sym. Ops., with inversion, found



   Cartesian axes

     site n.     atom                  positions (alat units)
         1           Na  tau(   1) = (   0.0000000   0.0000000   0.0000000  )

     number of k points=   250  Marzari-Vanderbilt smearing, width (Ry)=  0.0200

     Number of k-points >= 100: set verbosity='high' to print them.

     Dense  grid:    24835 G-vectors     FFT dimensions: (  40,  40,  40)

     Smooth grid:     8685 G-vectors     FFT dimensions: (  27,  27,  27)

     Estimated max dynamical RAM per process >      13.36MB

     Estimated total allocated dynamical RAM >      53.44MB

     Initial potential from superposition of free atoms

     starting charge    8.99371, renormalised to    9.00000
     Starting wfc are    5 randomized atomic wfcs +    4 random wfc

     total cpu time spent up to now is        1.0 secs

     per-process dynamical memory:    19.6 Mb

     Self-consistent Calculation

     iteration #  1     ecut=    40.00 Ry     beta=0.70
     Davidson diagonalization with overlap
     ethr =  1.00E-02,  avg # of iterations =  5.8

     Threshold (ethr) on eigenvalues was too large:
     Diagonalizing with lowered threshold

     Davidson diagonalization with overlap
     ethr =  9.84E-06,  avg # of iterations =  4.8

     total cpu time spent up to now is        5.6 secs

     total energy              =     -95.10637787 Ry
     Harris-Foulkes estimate   =     -95.10656725 Ry
     estimated scf accuracy    <       0.00088332 Ry

     iteration #  2     ecut=    40.00 Ry     beta=0.70
     Davidson diagonalization with overlap
     ethr =  9.81E-06,  avg # of iterations =  2.0

     total cpu time spent up to now is        7.1 secs

     total energy              =     -95.10647616 Ry
     Harris-Foulkes estimate   =     -95.10649624 Ry
     estimated scf accuracy    <       0.00009724 Ry

     iteration #  3     ecut=    40.00 Ry     beta=0.70
     Davidson diagonalization with overlap
     ethr =  1.08E-06,  avg # of iterations =  2.1

     total cpu time spent up to now is        8.7 secs

     total energy              =     -95.10648758 Ry
     Harris-Foulkes estimate   =     -95.10648858 Ry
     estimated scf accuracy    <       0.00000602 Ry

     iteration #  4     ecut=    40.00 Ry     beta=0.70
     Davidson diagonalization with overlap
     ethr =  6.69E-08,  avg # of iterations =  1.0

     total cpu time spent up to now is       10.0 secs

     total energy              =     -95.10648815 Ry
     Harris-Foulkes estimate   =     -95.10648811 Ry
     estimated scf accuracy    <       0.00000001 Ry

     iteration #  5     ecut=    40.00 Ry     beta=0.70
     Davidson diagonalization with overlap
     ethr =  1.40E-10,  avg # of iterations =  3.0

     total cpu time spent up to now is       11.9 secs

     End of self-consistent calculation

     Number of k-points >= 100: set verbosity='high' to print the bands.

     the Fermi energy is     1.5119 ev

!    total energy              =     -95.10648818 Ry
     Harris-Foulkes estimate   =     -95.10648818 Ry
     estimated scf accuracy    <          1.7E-09 Ry

     The total energy is the sum of the following terms:

     one-electron contribution =     -88.63767028 Ry
     hartree contribution      =      44.64403185 Ry
     xc contribution           =     -14.26551967 Ry
     ewald contribution        =     -36.84723868 Ry
     smearing contrib. (-TS)   =      -0.00009141 Ry

     convergence has been achieved in   5 iterations

     Forces acting on atoms (cartesian axes, Ry/au):

     atom    1 type  1   force =     0.00000000    0.00000000    0.00000000

     Total force =     0.000000     Total SCF correction =     0.000000


     Computing stress (Cartesian axis) and pressure

          total   stress  (Ry/bohr**3)                   (kbar)     P=   -4.40
  -0.00002994  -0.00000000   0.00000000         -4.40     -0.00      0.00
  -0.00000000  -0.00002994   0.00000000         -0.00     -4.40      0.00
   0.00000000   0.00000000  -0.00002994          0.00      0.00     -4.40


     BFGS Geometry Optimization

     number of scf cycles    =   1
     number of bfgs steps    =   0

     enthalpy new            =     -95.0368780678 Ry

     new trust radius        =       0.0241483647 bohr
     new conv_thr            =       0.0000000100 Ry

     new unit-cell volume =    250.24802 a.u.^3 (    37.08293 Ang^3 )
     density =      1.02947 g/cm^3

CELL_PARAMETERS (alat=  8.00000000)
   0.496226818   0.496226818   0.496226818
  -0.496226818   0.496226818   0.496226818
  -0.496226818  -0.496226818   0.496226818

ATOMIC_POSITIONS (crystal)
Na       0.000000000   0.000000000   0.000000000



     Writing output data file na.bcc.save
     NEW-OLD atomic charge density approx. for the potential
     extrapolated charge    8.79328, renormalised to    9.00000

     total cpu time spent up to now is       13.3 secs

     per-process dynamical memory:    31.4 Mb

     Self-consistent Calculation

     iteration #  1     ecut=    40.00 Ry     beta=0.70
     Davidson diagonalization with overlap
     c_bands:  1 eigenvalues not converged
     ethr =  1.00E-06,  avg # of iterations =  4.2

     total cpu time spent up to now is       15.8 secs

     total energy              =     -95.08038622 Ry
     Harris-Foulkes estimate   =     -96.71544516 Ry
     estimated scf accuracy    <       0.01474001 Ry

     iteration #  2     ecut=    40.00 Ry     beta=0.70
     Davidson diagonalization with overlap
     ethr =  1.64E-04,  avg # of iterations =  2.9

     total cpu time spent up to now is       17.9 secs

     total energy              =     -95.10691640 Ry
     Harris-Foulkes estimate   =     -95.11771336 Ry
     estimated scf accuracy    <       0.02454835 Ry

     iteration #  3     ecut=    40.00 Ry     beta=0.70
     Davidson diagonalization with overlap
     ethr =  1.64E-04,  avg # of iterations =  2.0

     total cpu time spent up to now is       19.4 secs

     total energy              =     -95.10676213 Ry
     Harris-Foulkes estimate   =     -95.10862958 Ry
     estimated scf accuracy    <       0.00448046 Ry

     iteration #  4     ecut=    40.00 Ry     beta=0.70
     Davidson diagonalization with overlap
     ethr =  4.98E-05,  avg # of iterations =  1.0

     total cpu time spent up to now is       20.7 secs

     total energy              =     -95.10717399 Ry
     Harris-Foulkes estimate   =     -95.10704989 Ry
     estimated scf accuracy    <       0.00096711 Ry

     iteration #  5     ecut=    40.00 Ry     beta=0.70
     Davidson diagonalization with overlap
     ethr =  1.07E-05,  avg # of iterations =  1.0

     total cpu time spent up to now is       22.1 secs

     total energy              =     -95.10678423 Ry
     Harris-Foulkes estimate   =     -95.10718967 Ry
     estimated scf accuracy    <       0.00126183 Ry

     iteration #  6     ecut=    40.00 Ry     beta=0.70
     Davidson diagonalization with overlap
     ethr =  1.07E-05,  avg # of iterations =  1.0

     total cpu time spent up to now is       23.4 secs

     total energy              =     -95.10664884 Ry
     Harris-Foulkes estimate   =     -95.10683131 Ry
     estimated scf accuracy    <       0.00045047 Ry

     iteration #  7     ecut=    40.00 Ry     beta=0.70
     Davidson diagonalization with overlap
     ethr =  5.01E-06,  avg # of iterations =  1.0

     total cpu time spent up to now is       24.7 secs

     total energy              =     -95.10660197 Ry
     Harris-Foulkes estimate   =     -95.10667595 Ry
     estimated scf accuracy    <       0.00010465 Ry

     iteration #  8     ecut=    40.00 Ry     beta=0.70
     Davidson diagonalization with overlap
     ethr =  1.16E-06,  avg # of iterations =  2.0

     total cpu time spent up to now is       26.4 secs

     total energy              =     -95.10662986 Ry
     Harris-Foulkes estimate   =     -95.10662986 Ry
     estimated scf accuracy    <       0.00000088 Ry

     iteration #  9     ecut=    40.00 Ry     beta=0.70
     Davidson diagonalization with overlap
     ethr =  9.75E-09,  avg # of iterations =  1.1

     total cpu time spent up to now is       27.7 secs

     total energy              =     -95.10662936 Ry
     Harris-Foulkes estimate   =     -95.10662988 Ry
     estimated scf accuracy    <       0.00000084 Ry

     iteration # 10     ecut=    40.00 Ry     beta=0.70
     Davidson diagonalization with overlap
     ethr =  9.32E-09,  avg # of iterations =  2.0

     total cpu time spent up to now is       29.3 secs

     total energy              =     -95.10662953 Ry
     Harris-Foulkes estimate   =     -95.10662952 Ry
     estimated scf accuracy    <       0.00000006 Ry

     iteration # 11     ecut=    40.00 Ry     beta=0.70
     Davidson diagonalization with overlap
     ethr =  6.40E-10,  avg # of iterations =  1.0

     total cpu time spent up to now is       30.6 secs

     total energy              =     -95.10662953 Ry
     Harris-Foulkes estimate   =     -95.10662953 Ry
     estimated scf accuracy    <       0.00000009 Ry

     iteration # 12     ecut=    40.00 Ry     beta=0.70
     Davidson diagonalization with overlap
     ethr =  6.40E-10,  avg # of iterations =  1.0

     total cpu time spent up to now is       32.0 secs

     total energy              =     -95.10662952 Ry
     Harris-Foulkes estimate   =     -95.10662953 Ry
     estimated scf accuracy    <       0.00000011 Ry

     iteration # 13     ecut=    40.00 Ry     beta=0.70
     Davidson diagonalization with overlap
     ethr =  6.40E-10,  avg # of iterations =  1.0

     total cpu time spent up to now is       33.3 secs

     total energy              =     -95.10662950 Ry
     Harris-Foulkes estimate   =     -95.10662952 Ry
     estimated scf accuracy    <       0.00000005 Ry

     iteration # 14     ecut=    40.00 Ry     beta=0.70
     Davidson diagonalization with overlap
     ethr =  5.57E-10,  avg # of iterations =  1.0

     total cpu time spent up to now is       34.6 secs

     End of self-consistent calculation

     Number of k-points >= 100: set verbosity='high' to print the bands.

     the Fermi energy is     1.6052 ev

!    total energy              =     -95.10662951 Ry
     Harris-Foulkes estimate   =     -95.10662951 Ry
     estimated scf accuracy    <          4.1E-10 Ry

     The total energy is the sum of the following terms:

     one-electron contribution =     -88.14548355 Ry
     hartree contribution      =      44.43479922 Ry
     xc contribution           =     -14.26843693 Ry
     ewald contribution        =     -37.12741567 Ry
     smearing contrib. (-TS)   =      -0.00009258 Ry

     convergence has been achieved in  14 iterations

     Forces acting on atoms (cartesian axes, Ry/au):

     atom    1 type  1   force =     0.00000000    0.00000000    0.00000000

     Total force =     0.000000     Total SCF correction =     0.000000


     Computing stress (Cartesian axis) and pressure

          total   stress  (Ry/bohr**3)                   (kbar)     P=   -2.59
  -0.00001763  -0.00000000   0.00000000         -2.59     -0.00      0.00
  -0.00000000  -0.00001763  -0.00000000         -0.00     -2.59     -0.00
   0.00000000  -0.00000000  -0.00001763          0.00     -0.00     -2.59


     number of scf cycles    =   2
     number of bfgs steps    =   1

     enthalpy old            =     -95.0368780678 Ry
     enthalpy new            =     -95.0385834361 Ry

     CASE: enthalpy_new < enthalpy_old


     WARNING: bfgs curvature condition failed, Theta= 0.847
     new trust radius        =       0.0360856139 bohr
     new conv_thr            =            1.0E-10 Ry

     new unit-cell volume =    241.78261 a.u.^3 (    35.82849 Ang^3 )
     density =      1.06552 g/cm^3

CELL_PARAMETERS (alat=  8.00000000)
   0.490567045   0.490567045   0.490567045
  -0.490567045   0.490567045   0.490567045
  -0.490567045  -0.490567045   0.490567045

ATOMIC_POSITIONS (crystal)
Na       0.000000000   0.000000000   0.000000000



     Writing output data file na.bcc.save
     NEW-OLD atomic charge density approx. for the potential
     extrapolated charge    8.68511, renormalised to    9.00000

     total cpu time spent up to now is       36.0 secs

     per-process dynamical memory:    31.4 Mb

     Self-consistent Calculation

     iteration #  1     ecut=    40.00 Ry     beta=0.70
     Davidson diagonalization with overlap
     ethr =  1.00E-06,  avg # of iterations =  4.5

     total cpu time spent up to now is       38.7 secs

     total energy              =     -95.04814289 Ry
     Harris-Foulkes estimate   =     -97.52903497 Ry
     estimated scf accuracy    <       0.03303896 Ry

     iteration #  2     ecut=    40.00 Ry     beta=0.70
     Davidson diagonalization with overlap
     ethr =  3.67E-04,  avg # of iterations =  2.9

     total cpu time spent up to now is       40.7 secs

     total energy              =     -95.10708675 Ry
     Harris-Foulkes estimate   =     -95.13120126 Ry
     estimated scf accuracy    <       0.05475107 Ry

     iteration #  3     ecut=    40.00 Ry     beta=0.70
     Davidson diagonalization with overlap
     ethr =  3.67E-04,  avg # of iterations =  2.0

     total cpu time spent up to now is       42.2 secs

     total energy              =     -95.10672172 Ry
     Harris-Foulkes estimate   =     -95.11100763 Ry
     estimated scf accuracy    <       0.00971111 Ry

     iteration #  4     ecut=    40.00 Ry     beta=0.70
     Davidson diagonalization with overlap
     ethr =  1.08E-04,  avg # of iterations =  1.0

     total cpu time spent up to now is       43.6 secs

     total energy              =     -95.10763257 Ry
     Harris-Foulkes estimate   =     -95.10743323 Ry
     estimated scf accuracy    <       0.00175849 Ry

     iteration #  5     ecut=    40.00 Ry     beta=0.70
     Davidson diagonalization with overlap
     ethr =  1.95E-05,  avg # of iterations =  1.0

     total cpu time spent up to now is       44.9 secs

     total energy              =     -95.10690008 Ry
     Harris-Foulkes estimate   =     -95.10766649 Ry
     estimated scf accuracy    <       0.00223983 Ry

     iteration #  6     ecut=    40.00 Ry     beta=0.70
     Davidson diagonalization with overlap
     ethr =  1.95E-05,  avg # of iterations =  1.0

     total cpu time spent up to now is       46.2 secs

     total energy              =     -95.10678563 Ry
     Harris-Foulkes estimate   =     -95.10700044 Ry
     estimated scf accuracy    <       0.00071010 Ry

     iteration #  7     ecut=    40.00 Ry     beta=0.70
     Davidson diagonalization with overlap
     ethr =  7.89E-06,  avg # of iterations =  1.0

     total cpu time spent up to now is       47.6 secs

     total energy              =     -95.10674597 Ry
     Harris-Foulkes estimate   =     -95.10681052 Ry
     estimated scf accuracy    <       0.00027445 Ry

     iteration #  8     ecut=    40.00 Ry     beta=0.70
     Davidson diagonalization with overlap
     ethr =  3.05E-06,  avg # of iterations =  1.1

     total cpu time spent up to now is       48.9 secs

     total energy              =     -95.10666527 Ry
     Harris-Foulkes estimate   =     -95.10675143 Ry
     estimated scf accuracy    <       0.00014260 Ry

     iteration #  9     ecut=    40.00 Ry     beta=0.70
     Davidson diagonalization with overlap
     ethr =  1.58E-06,  avg # of iterations =  2.0

     total cpu time spent up to now is       50.5 secs

     total energy              =     -95.10668395 Ry
     Harris-Foulkes estimate   =     -95.10668648 Ry
     estimated scf accuracy    <       0.00000352 Ry

     iteration # 10     ecut=    40.00 Ry     beta=0.70
     Davidson diagonalization with overlap
     ethr =  3.91E-08,  avg # of iterations =  2.0

     total cpu time spent up to now is       52.1 secs

     total energy              =     -95.10668497 Ry
     Harris-Foulkes estimate   =     -95.10668499 Ry
     estimated scf accuracy    <       0.00000010 Ry

     iteration # 11     ecut=    40.00 Ry     beta=0.70
     Davidson diagonalization with overlap
     ethr =  1.07E-09,  avg # of iterations =  1.2

     total cpu time spent up to now is       53.4 secs

     total energy              =     -95.10668498 Ry
     Harris-Foulkes estimate   =     -95.10668497 Ry
     estimated scf accuracy    <       0.00000005 Ry

     iteration # 12     ecut=    40.00 Ry     beta=0.70
     Davidson diagonalization with overlap
     ethr =  5.47E-10,  avg # of iterations =  1.0

     total cpu time spent up to now is       54.8 secs

     total energy              =     -95.10668495 Ry
     Harris-Foulkes estimate   =     -95.10668499 Ry
     estimated scf accuracy    <       0.00000008 Ry

     iteration # 13     ecut=    40.00 Ry     beta=0.70
     Davidson diagonalization with overlap
     ethr =  5.47E-10,  avg # of iterations =  2.0

     total cpu time spent up to now is       56.4 secs

     total energy              =     -95.10668520 Ry
     Harris-Foulkes estimate   =     -95.10668496 Ry
     estimated scf accuracy    <       0.00000003 Ry

     iteration # 14     ecut=    40.00 Ry     beta=0.70
     Davidson diagonalization with overlap
     ethr =  3.89E-10,  avg # of iterations =  3.0

     total cpu time spent up to now is       58.2 secs

     total energy              =     -95.10668462 Ry
     Harris-Foulkes estimate   =     -95.10668544 Ry
     estimated scf accuracy    <       0.00000114 Ry

     iteration # 15     ecut=    40.00 Ry     beta=0.70
     Davidson diagonalization with overlap
     ethr =  3.89E-10,  avg # of iterations =  3.0

     total cpu time spent up to now is       60.1 secs

     total energy              =     -95.10668493 Ry
     Harris-Foulkes estimate   =     -95.10668499 Ry
     estimated scf accuracy    <       0.00000009 Ry

     iteration # 16     ecut=    40.00 Ry     beta=0.70
     Davidson diagonalization with overlap
     ethr =  3.89E-10,  avg # of iterations =  2.0

     total cpu time spent up to now is       61.8 secs

     total energy              =     -95.10668495 Ry
     Harris-Foulkes estimate   =     -95.10668495 Ry
     estimated scf accuracy    <          1.9E-10 Ry

     iteration # 17     ecut=    40.00 Ry     beta=0.70
     Davidson diagonalization with overlap
     ethr =  2.06E-12,  avg # of iterations =  1.0

     total cpu time spent up to now is       63.1 secs

     End of self-consistent calculation

     Number of k-points >= 100: set verbosity='high' to print the bands.

     the Fermi energy is     1.7509 ev

!    total energy              =     -95.10668495 Ry
     Harris-Foulkes estimate   =     -95.10668495 Ry
     estimated scf accuracy    <          5.5E-11 Ry

     The total energy is the sum of the following terms:

     one-electron contribution =     -87.39390370 Ry
     hartree contribution      =      44.11605485 Ry
     xc contribution           =     -14.27297945 Ry
     ewald contribution        =     -37.55576231 Ry
     smearing contrib. (-TS)   =      -0.00009434 Ry

     convergence has been achieved in  17 iterations

     Forces acting on atoms (cartesian axes, Ry/au):

     atom    1 type  1   force =     0.00000000    0.00000000    0.00000000

     Total force =     0.000000     Total SCF correction =     0.000000


     Computing stress (Cartesian axis) and pressure

          total   stress  (Ry/bohr**3)                   (kbar)     P=    0.81
   0.00000550   0.00000000  -0.00000000          0.81      0.00     -0.00
   0.00000000   0.00000550   0.00000000          0.00      0.81      0.00
  -0.00000000   0.00000000   0.00000550         -0.00      0.00      0.81


     number of scf cycles    =   3
     number of bfgs steps    =   2

     enthalpy old            =     -95.0385834361 Ry
     enthalpy new            =     -95.0409407494 Ry

     CASE: enthalpy_new < enthalpy_old

     new trust radius        =       0.0538188516 bohr
     new conv_thr            =            1.0E-10 Ry

     new unit-cell volume =    229.44586 a.u.^3 (    34.00037 Ang^3 )
     density =      1.12281 g/cm^3

CELL_PARAMETERS (alat=  8.00000000)
   0.482077385   0.482077385   0.482077385
  -0.482077385   0.482077385   0.482077385
  -0.482077385  -0.482077385   0.482077385

ATOMIC_POSITIONS (crystal)
Na       0.000000000   0.000000000   0.000000000



     Writing output data file na.bcc.save
     NEW-OLD atomic charge density approx. for the potential
     extrapolated charge    8.51643, renormalised to    9.00000

     total cpu time spent up to now is       64.5 secs

     per-process dynamical memory:    31.4 Mb

     Self-consistent Calculation

     iteration #  1     ecut=    40.00 Ry     beta=0.70
     Davidson diagonalization with overlap
     ethr =  1.00E-06,  avg # of iterations =  5.0

     total cpu time spent up to now is       67.2 secs

     total energy              =     -94.97615476 Ry
     Harris-Foulkes estimate   =     -98.75845545 Ry
     estimated scf accuracy    <       0.07414297 Ry

     iteration #  2     ecut=    40.00 Ry     beta=0.70
     Davidson diagonalization with overlap
     ethr =  8.24E-04,  avg # of iterations =  2.8

     total cpu time spent up to now is       69.2 secs

     total energy              =     -95.10646108 Ry
     Harris-Foulkes estimate   =     -95.16019829 Ry
     estimated scf accuracy    <       0.12166609 Ry

     iteration #  3     ecut=    40.00 Ry     beta=0.70
     Davidson diagonalization with overlap
     ethr =  8.24E-04,  avg # of iterations =  2.0

     total cpu time spent up to now is       70.7 secs

     total energy              =     -95.10648348 Ry
     Harris-Foulkes estimate   =     -95.11551898 Ry
     estimated scf accuracy    <       0.02063424 Ry

     iteration #  4     ecut=    40.00 Ry     beta=0.70
     Davidson diagonalization with overlap
     ethr =  2.29E-04,  avg # of iterations =  1.0

     total cpu time spent up to now is       72.1 secs

     total energy              =     -95.10761172 Ry
     Harris-Foulkes estimate   =     -95.10798565 Ry
     estimated scf accuracy    <       0.00377331 Ry

     iteration #  5     ecut=    40.00 Ry     beta=0.70
     Davidson diagonalization with overlap
     ethr =  4.19E-05,  avg # of iterations =  1.0

     total cpu time spent up to now is       73.4 secs

     total energy              =     -95.10680605 Ry
     Harris-Foulkes estimate   =     -95.10769774 Ry
     estimated scf accuracy    <       0.00297376 Ry

     iteration #  6     ecut=    40.00 Ry     beta=0.70
     Davidson diagonalization with overlap
     ethr =  3.30E-05,  avg # of iterations =  1.0

     total cpu time spent up to now is       74.8 secs

     total energy              =     -95.10639331 Ry
     Harris-Foulkes estimate   =     -95.10690450 Ry
     estimated scf accuracy    <       0.00116514 Ry

     iteration #  7     ecut=    40.00 Ry     beta=0.70
     Davidson diagonalization with overlap
     ethr =  1.29E-05,  avg # of iterations =  1.0

     total cpu time spent up to now is       76.1 secs

     total energy              =     -95.10634002 Ry
     Harris-Foulkes estimate   =     -95.10647935 Ry
     estimated scf accuracy    <       0.00021092 Ry

     iteration #  8     ecut=    40.00 Ry     beta=0.70
     Davidson diagonalization with overlap
     ethr =  2.34E-06,  avg # of iterations =  2.4

     total cpu time spent up to now is       77.8 secs

     total energy              =     -95.10638757 Ry
     Harris-Foulkes estimate   =     -95.10638754 Ry
     estimated scf accuracy    <       0.00000003 Ry

     iteration #  9     ecut=    40.00 Ry     beta=0.70
     Davidson diagonalization with overlap
     ethr =  3.77E-10,  avg # of iterations =  2.6

     total cpu time spent up to now is       79.5 secs

     total energy              =     -95.10638760 Ry
     Harris-Foulkes estimate   =     -95.10638761 Ry
     estimated scf accuracy    <       0.00000010 Ry

     iteration # 10     ecut=    40.00 Ry     beta=0.70
     Davidson diagonalization with overlap
     ethr =  3.77E-10,  avg # of iterations =  1.0

     total cpu time spent up to now is       80.8 secs

     total energy              =     -95.10638755 Ry
     Harris-Foulkes estimate   =     -95.10638760 Ry
     estimated scf accuracy    <       0.00000006 Ry

     iteration # 11     ecut=    40.00 Ry     beta=0.70
     Davidson diagonalization with overlap
     ethr =  3.77E-10,  avg # of iterations =  2.0

     total cpu time spent up to now is       82.4 secs

     total energy              =     -95.10638757 Ry
     Harris-Foulkes estimate   =     -95.10638757 Ry
     estimated scf accuracy    <          3.7E-10 Ry

     iteration # 12     ecut=    40.00 Ry     beta=0.70
     Davidson diagonalization with overlap
     ethr =  4.11E-12,  avg # of iterations =  2.0

     total cpu time spent up to now is       84.1 secs

     total energy              =     -95.10638757 Ry
     Harris-Foulkes estimate   =     -95.10638757 Ry
     estimated scf accuracy    <          2.1E-10 Ry

     iteration # 13     ecut=    40.00 Ry     beta=0.70
     Davidson diagonalization with overlap
     ethr =  2.39E-12,  avg # of iterations =  1.0

     total cpu time spent up to now is       85.4 secs

     total energy              =     -95.10638757 Ry
     Harris-Foulkes estimate   =     -95.10638757 Ry
     estimated scf accuracy    <          1.8E-10 Ry

     iteration # 14     ecut=    40.00 Ry     beta=0.70
     Davidson diagonalization with overlap
     ethr =  2.03E-12,  avg # of iterations =  1.0

     total cpu time spent up to now is       86.7 secs

     total energy              =     -95.10638757 Ry
     Harris-Foulkes estimate   =     -95.10638757 Ry
     estimated scf accuracy    <          2.7E-10 Ry

     iteration # 15     ecut=    40.00 Ry     beta=0.70
     Davidson diagonalization with overlap
     ethr =  2.03E-12,  avg # of iterations =  1.0

     total cpu time spent up to now is       88.1 secs

     total energy              =     -95.10638757 Ry
     Harris-Foulkes estimate   =     -95.10638757 Ry
     estimated scf accuracy    <          1.1E-10 Ry

     iteration # 16     ecut=    40.00 Ry     beta=0.70
     Davidson diagonalization with overlap
     ethr =  1.26E-12,  avg # of iterations =  2.0

     total cpu time spent up to now is       89.6 secs

     End of self-consistent calculation

     Number of k-points >= 100: set verbosity='high' to print the bands.

     the Fermi energy is     1.9834 ev

!    total energy              =     -95.10638757 Ry
     Harris-Foulkes estimate   =     -95.10638757 Ry
     estimated scf accuracy    <          1.4E-12 Ry

     The total energy is the sum of the following terms:

     one-electron contribution =     -86.23494530 Ry
     hartree contribution      =      43.62585122 Ry
     xc contribution           =     -14.28005569 Ry
     ewald contribution        =     -38.21714085 Ry
     smearing contrib. (-TS)   =      -0.00009695 Ry

     convergence has been achieved in  16 iterations

     Forces acting on atoms (cartesian axes, Ry/au):

     atom    1 type  1   force =     0.00000000    0.00000000    0.00000000

     Total force =     0.000000     Total SCF correction =     0.000000


     Computing stress (Cartesian axis) and pressure

          total   stress  (Ry/bohr**3)                   (kbar)     P=    6.54
   0.00004445  -0.00000000   0.00000000          6.54     -0.00      0.00
  -0.00000000   0.00004445  -0.00000000         -0.00      6.54     -0.00
   0.00000000  -0.00000000   0.00004445          0.00     -0.00      6.54


     number of scf cycles    =   4
     number of bfgs steps    =   3

     enthalpy old            =     -95.0409407494 Ry
     enthalpy new            =     -95.0439979061 Ry

     CASE: enthalpy_new < enthalpy_old

     new trust radius        =       0.0800266947 bohr
     new conv_thr            =            1.0E-10 Ry

     new unit-cell volume =    211.73892 a.u.^3 (    31.37647 Ang^3 )
     density =      1.21670 g/cm^3

CELL_PARAMETERS (alat=  8.00000000)
   0.469342896   0.469342896   0.469342896
  -0.469342896   0.469342896   0.469342896
  -0.469342896  -0.469342896   0.469342896

ATOMIC_POSITIONS (crystal)
Na       0.000000000   0.000000000   0.000000000



     Writing output data file na.bcc.save
     NEW-OLD atomic charge density approx. for the potential
     extrapolated charge    8.24789, renormalised to    9.00000

     total cpu time spent up to now is       91.0 secs

     per-process dynamical memory:    31.4 Mb

     Self-consistent Calculation

     iteration #  1     ecut=    40.00 Ry     beta=0.70
     Davidson diagonalization with overlap
     ethr =  1.00E-06,  avg # of iterations =  5.6

     total cpu time spent up to now is       94.0 secs

     total energy              =     -94.81607911 Ry
     Harris-Foulkes estimate   =    -100.61816793 Ry
     estimated scf accuracy    <       0.16745650 Ry

     iteration #  2     ecut=    40.00 Ry     beta=0.70
     Davidson diagonalization with overlap
     ethr =  1.86E-03,  avg # of iterations =  2.6

     total cpu time spent up to now is       95.9 secs

     total energy              =     -95.10226485 Ry
     Harris-Foulkes estimate   =     -95.22172425 Ry
     estimated scf accuracy    <       0.26880063 Ry

     iteration #  3     ecut=    40.00 Ry     beta=0.70
     Davidson diagonalization with overlap
     ethr =  1.86E-03,  avg # of iterations =  2.0

     total cpu time spent up to now is       97.4 secs

     total energy              =     -95.10609521 Ry
     Harris-Foulkes estimate   =     -95.12352512 Ry
     estimated scf accuracy    <       0.04232140 Ry

     iteration #  4     ecut=    40.00 Ry     beta=0.70
     Davidson diagonalization with overlap
     ethr =  4.70E-04,  avg # of iterations =  1.0

     total cpu time spent up to now is       98.8 secs

     total energy              =     -95.10630624 Ry
     Harris-Foulkes estimate   =     -95.10885353 Ry
     estimated scf accuracy    <       0.00902773 Ry

     iteration #  5     ecut=    40.00 Ry     beta=0.70
     Davidson diagonalization with overlap
     ethr =  1.00E-04,  avg # of iterations =  1.0

     total cpu time spent up to now is      100.1 secs

     total energy              =     -95.10585284 Ry
     Harris-Foulkes estimate   =     -95.10669106 Ry
     estimated scf accuracy    <       0.00367405 Ry

     iteration #  6     ecut=    40.00 Ry     beta=0.70
     Davidson diagonalization with overlap
     ethr =  4.08E-05,  avg # of iterations =  1.0

     total cpu time spent up to now is      101.5 secs

     total energy              =     -95.10450440 Ry
     Harris-Foulkes estimate   =     -95.10591277 Ry
     estimated scf accuracy    <       0.00199408 Ry

     iteration #  7     ecut=    40.00 Ry     beta=0.70
     Davidson diagonalization with overlap
     ethr =  2.22E-05,  avg # of iterations =  2.1

     total cpu time spent up to now is      103.1 secs

     total energy              =     -95.10503804 Ry
     Harris-Foulkes estimate   =     -95.10500686 Ry
     estimated scf accuracy    <       0.00001852 Ry

     iteration #  8     ecut=    40.00 Ry     beta=0.70
     Davidson diagonalization with overlap
     ethr =  2.06E-07,  avg # of iterations =  2.6

     total cpu time spent up to now is      104.8 secs

     total energy              =     -95.10498494 Ry
     Harris-Foulkes estimate   =     -95.10504552 Ry
     estimated scf accuracy    <       0.00010240 Ry

     iteration #  9     ecut=    40.00 Ry     beta=0.70
     Davidson diagonalization with overlap
     ethr =  2.06E-07,  avg # of iterations =  2.0

     total cpu time spent up to now is      106.4 secs

     total energy              =     -95.10499805 Ry
     Harris-Foulkes estimate   =     -95.10500001 Ry
     estimated scf accuracy    <       0.00000271 Ry

     iteration # 10     ecut=    40.00 Ry     beta=0.70
     Davidson diagonalization with overlap
     ethr =  3.01E-08,  avg # of iterations =  2.0

     total cpu time spent up to now is      108.0 secs

     total energy              =     -95.10499876 Ry
     Harris-Foulkes estimate   =     -95.10499879 Ry
     estimated scf accuracy    <       0.00000005 Ry

     iteration # 11     ecut=    40.00 Ry     beta=0.70
     Davidson diagonalization with overlap
     ethr =  5.43E-10,  avg # of iterations =  2.0

     total cpu time spent up to now is      109.6 secs

     total energy              =     -95.10499877 Ry
     Harris-Foulkes estimate   =     -95.10499877 Ry
     estimated scf accuracy    <          7.7E-09 Ry

     iteration # 12     ecut=    40.00 Ry     beta=0.70
     Davidson diagonalization with overlap
     ethr =  8.52E-11,  avg # of iterations =  1.0

     total cpu time spent up to now is      111.0 secs

     total energy              =     -95.10499877 Ry
     Harris-Foulkes estimate   =     -95.10499877 Ry
     estimated scf accuracy    <          2.5E-09 Ry

     iteration # 13     ecut=    40.00 Ry     beta=0.70
     Davidson diagonalization with overlap
     ethr =  2.83E-11,  avg # of iterations =  1.0

     total cpu time spent up to now is      112.3 secs

     total energy              =     -95.10499877 Ry
     Harris-Foulkes estimate   =     -95.10499877 Ry
     estimated scf accuracy    <          3.0E-09 Ry

     iteration # 14     ecut=    40.00 Ry     beta=0.70
     Davidson diagonalization with overlap
     ethr =  2.83E-11,  avg # of iterations =  2.0

     total cpu time spent up to now is      113.9 secs

     End of self-consistent calculation

     Number of k-points >= 100: set verbosity='high' to print the bands.

     the Fermi energy is     2.3664 ev

!    total energy              =     -95.10499877 Ry
     Harris-Foulkes estimate   =     -95.10499877 Ry
     estimated scf accuracy    <          4.5E-12 Ry

     The total energy is the sum of the following terms:

     one-electron contribution =     -84.42174813 Ry
     hartree contribution      =      42.86226140 Ry
     xc contribution           =     -14.29134056 Ry
     ewald contribution        =     -39.25407094 Ry
     smearing contrib. (-TS)   =      -0.00010055 Ry

     convergence has been achieved in  14 iterations

     Forces acting on atoms (cartesian axes, Ry/au):

     atom    1 type  1   force =     0.00000000    0.00000000    0.00000000

     Total force =     0.000000     Total SCF correction =     0.000000


     Computing stress (Cartesian axis) and pressure

          total   stress  (Ry/bohr**3)                   (kbar)     P=   17.01
   0.00011561   0.00000000  -0.00000000         17.01      0.00     -0.00
   0.00000000   0.00011561   0.00000000          0.00     17.01      0.00
  -0.00000000   0.00000000   0.00011561         -0.00      0.00     17.01


     number of scf cycles    =   5
     number of bfgs steps    =   4

     enthalpy old            =     -95.0439979061 Ry
     enthalpy new            =     -95.0474238840 Ry

     CASE: enthalpy_new < enthalpy_old

     new trust radius        =       0.1184439504 bohr
     new conv_thr            =            1.0E-10 Ry

     new unit-cell volume =    186.92421 a.u.^3 (    27.69931 Ang^3 )
     density =      1.37822 g/cm^3

CELL_PARAMETERS (alat=  8.00000000)
   0.450241162   0.450241162   0.450241162
  -0.450241162   0.450241162   0.450241162
  -0.450241162  -0.450241162   0.450241162

ATOMIC_POSITIONS (crystal)
Na       0.000000000   0.000000000   0.000000000



     Writing output data file na.bcc.save
     NEW-OLD atomic charge density approx. for the potential
     extrapolated charge    7.80606, renormalised to    9.00000

     total cpu time spent up to now is      115.4 secs

     per-process dynamical memory:    31.4 Mb

     Self-consistent Calculation

     iteration #  1     ecut=    40.00 Ry     beta=0.70
     Davidson diagonalization with overlap
     ethr =  1.00E-06,  avg # of iterations =  6.3

     total cpu time spent up to now is      118.4 secs

     total energy              =     -94.46144032 Ry
     Harris-Foulkes estimate   =    -103.42336228 Ry
     estimated scf accuracy    <       0.38569345 Ry

     iteration #  2     ecut=    40.00 Ry     beta=0.70
     Davidson diagonalization with overlap
     ethr =  4.29E-03,  avg # of iterations =  2.5

     total cpu time spent up to now is      120.4 secs

     total energy              =     -95.08397711 Ry
     Harris-Foulkes estimate   =     -95.34859345 Ry
     estimated scf accuracy    <       0.58685190 Ry

     iteration #  3     ecut=    40.00 Ry     beta=0.70
     Davidson diagonalization with overlap
     ethr =  4.29E-03,  avg # of iterations =  2.0

     total cpu time spent up to now is      121.9 secs

     total energy              =     -95.10241663 Ry
     Harris-Foulkes estimate   =     -95.13507779 Ry
     estimated scf accuracy    <       0.08100794 Ry

     iteration #  4     ecut=    40.00 Ry     beta=0.70
     Davidson diagonalization with overlap
     ethr =  9.00E-04,  avg # of iterations =  1.0

     total cpu time spent up to now is      123.3 secs

     total energy              =     -95.10124725 Ry
     Harris-Foulkes estimate   =     -95.10789233 Ry
     estimated scf accuracy    <       0.01737459 Ry

     iteration #  5     ecut=    40.00 Ry     beta=0.70
     Davidson diagonalization with overlap
     ethr =  1.93E-04,  avg # of iterations =  1.1

     total cpu time spent up to now is      124.6 secs

     total energy              =     -95.10086906 Ry
     Harris-Foulkes estimate   =     -95.10242178 Ry
     estimated scf accuracy    <       0.00425998 Ry

     iteration #  6     ecut=    40.00 Ry     beta=0.70
     Davidson diagonalization with overlap
     ethr =  4.73E-05,  avg # of iterations =  1.2

     total cpu time spent up to now is      126.0 secs

     total energy              =     -95.10020307 Ry
     Harris-Foulkes estimate   =     -95.10107609 Ry
     estimated scf accuracy    <       0.00127977 Ry

     iteration #  7     ecut=    40.00 Ry     beta=0.70
     Davidson diagonalization with overlap
     ethr =  1.42E-05,  avg # of iterations =  2.2

     total cpu time spent up to now is      127.6 secs

     total energy              =     -95.10049179 Ry
     Harris-Foulkes estimate   =     -95.10048670 Ry
     estimated scf accuracy    <       0.00000119 Ry

     iteration #  8     ecut=    40.00 Ry     beta=0.70
     Davidson diagonalization with overlap
     ethr =  1.32E-08,  avg # of iterations =  3.1

     total cpu time spent up to now is      129.5 secs

     total energy              =     -95.10048488 Ry
     Harris-Foulkes estimate   =     -95.10049381 Ry
     estimated scf accuracy    <       0.00001625 Ry

     iteration #  9     ecut=    40.00 Ry     beta=0.70
     Davidson diagonalization with overlap
     ethr =  1.32E-08,  avg # of iterations =  2.8

     total cpu time spent up to now is      131.2 secs

     total energy              =     -95.10048616 Ry
     Harris-Foulkes estimate   =     -95.10048683 Ry
     estimated scf accuracy    <       0.00000097 Ry

     iteration # 10     ecut=    40.00 Ry     beta=0.70
     Davidson diagonalization with overlap
     ethr =  1.08E-08,  avg # of iterations =  2.0

     total cpu time spent up to now is      132.9 secs

     total energy              =     -95.10048639 Ry
     Harris-Foulkes estimate   =     -95.10048639 Ry
     estimated scf accuracy    <          3.8E-09 Ry

     iteration # 11     ecut=    40.00 Ry     beta=0.70
     Davidson diagonalization with overlap
     ethr =  4.26E-11,  avg # of iterations =  1.6

     total cpu time spent up to now is      134.2 secs

     total energy              =     -95.10048639 Ry
     Harris-Foulkes estimate   =     -95.10048639 Ry
     estimated scf accuracy    <          8.2E-09 Ry

     iteration # 12     ecut=    40.00 Ry     beta=0.70
     Davidson diagonalization with overlap
     ethr =  4.26E-11,  avg # of iterations =  2.0

     total cpu time spent up to now is      135.9 secs

     End of self-consistent calculation

     Number of k-points >= 100: set verbosity='high' to print the bands.

     the Fermi energy is     3.0312 ev

!    total energy              =     -95.10048639 Ry
     Harris-Foulkes estimate   =     -95.10048639 Ry
     estimated scf accuracy    <          1.5E-12 Ry

     The total energy is the sum of the following terms:

     one-electron contribution =     -81.51937027 Ry
     hartree contribution      =      41.64834747 Ry
     xc contribution           =     -14.30991222 Ry
     ewald contribution        =     -40.91944693 Ry
     smearing contrib. (-TS)   =      -0.00010445 Ry

     convergence has been achieved in  12 iterations

     Forces acting on atoms (cartesian axes, Ry/au):

     atom    1 type  1   force =     0.00000000    0.00000000    0.00000000

     Total force =     0.000000     Total SCF correction =     0.000000


     Computing stress (Cartesian axis) and pressure

          total   stress  (Ry/bohr**3)                   (kbar)     P=   38.03
   0.00025855   0.00000000  -0.00000000         38.03      0.00     -0.00
   0.00000000   0.00025855   0.00000000          0.00     38.03      0.00
  -0.00000000   0.00000000   0.00025855         -0.00      0.00     38.03


     number of scf cycles    =   6
     number of bfgs steps    =   5

     enthalpy old            =     -95.0474238840 Ry
     enthalpy new            =     -95.0496589838 Ry

     CASE: enthalpy_new < enthalpy_old

     new trust radius        =       0.0099101603 bohr
     new conv_thr            =            1.0E-10 Ry

     new unit-cell volume =    184.89918 a.u.^3 (    27.39923 Ang^3 )
     density =      1.39332 g/cm^3

CELL_PARAMETERS (alat=  8.00000000)
   0.448609376   0.448609376   0.448609376
  -0.448609376   0.448609376   0.448609376
  -0.448609376  -0.448609376   0.448609376

ATOMIC_POSITIONS (crystal)
Na       0.000000000   0.000000000   0.000000000



     Writing output data file na.bcc.save
     NEW-OLD atomic charge density approx. for the potential
     extrapolated charge    8.90150, renormalised to    9.00000

     total cpu time spent up to now is      137.3 secs

     per-process dynamical memory:    31.4 Mb

     Self-consistent Calculation

     iteration #  1     ecut=    40.00 Ry     beta=0.70
     Davidson diagonalization with overlap
     ethr =  1.00E-06,  avg # of iterations =  3.1

     total cpu time spent up to now is      139.5 secs

     total energy              =     -95.09394257 Ry
     Harris-Foulkes estimate   =     -95.80450101 Ry
     estimated scf accuracy    <       0.00337424 Ry

     iteration #  2     ecut=    40.00 Ry     beta=0.70
     Davidson diagonalization with overlap
     ethr =  3.75E-05,  avg # of iterations =  2.9

     total cpu time spent up to now is      141.5 secs

     total energy              =     -95.10003703 Ry
     Harris-Foulkes estimate   =     -95.10251346 Ry
     estimated scf accuracy    <       0.00564343 Ry

     iteration #  3     ecut=    40.00 Ry     beta=0.70
     Davidson diagonalization with overlap
     ethr =  3.75E-05,  avg # of iterations =  1.6

     total cpu time spent up to now is      142.9 secs

     total energy              =     -95.10012152 Ry
     Harris-Foulkes estimate   =     -95.10041770 Ry
     estimated scf accuracy    <       0.00106980 Ry

     iteration #  4     ecut=    40.00 Ry     beta=0.70
     Davidson diagonalization with overlap
     ethr =  1.19E-05,  avg # of iterations =  1.0

     total cpu time spent up to now is      144.3 secs

     total energy              =     -95.10001259 Ry
     Harris-Foulkes estimate   =     -95.10015670 Ry
     estimated scf accuracy    <       0.00045336 Ry

     iteration #  5     ecut=    40.00 Ry     beta=0.70
     Davidson diagonalization with overlap
     ethr =  5.04E-06,  avg # of iterations =  1.0

     total cpu time spent up to now is      145.6 secs

     total energy              =     -95.09997700 Ry
     Harris-Foulkes estimate   =     -95.10002704 Ry
     estimated scf accuracy    <       0.00017228 Ry

     iteration #  6     ecut=    40.00 Ry     beta=0.70
     Davidson diagonalization with overlap
     ethr =  1.91E-06,  avg # of iterations =  1.0

     total cpu time spent up to now is      146.9 secs

     total energy              =     -95.09994895 Ry
     Harris-Foulkes estimate   =     -95.09998174 Ry
     estimated scf accuracy    <       0.00007297 Ry

     iteration #  7     ecut=    40.00 Ry     beta=0.70
     Davidson diagonalization with overlap
     ethr =  8.11E-07,  avg # of iterations =  1.0

     total cpu time spent up to now is      148.3 secs

     total energy              =     -95.09994522 Ry
     Harris-Foulkes estimate   =     -95.09995386 Ry
     estimated scf accuracy    <       0.00001338 Ry

     iteration #  8     ecut=    40.00 Ry     beta=0.70
     Davidson diagonalization with overlap
     ethr =  1.49E-07,  avg # of iterations =  2.0

     total cpu time spent up to now is      149.9 secs

     total energy              =     -95.09994801 Ry
     Harris-Foulkes estimate   =     -95.09994802 Ry
     estimated scf accuracy    <       0.00000004 Ry

     iteration #  9     ecut=    40.00 Ry     beta=0.70
     Davidson diagonalization with overlap
     ethr =  4.90E-10,  avg # of iterations =  1.8

     total cpu time spent up to now is      151.3 secs

     total energy              =     -95.09994801 Ry
     Harris-Foulkes estimate   =     -95.09994802 Ry
     estimated scf accuracy    <       0.00000002 Ry

     iteration # 10     ecut=    40.00 Ry     beta=0.70
     Davidson diagonalization with overlap
     ethr =  2.24E-10,  avg # of iterations =  1.0

     total cpu time spent up to now is      152.7 secs

     total energy              =     -95.09994801 Ry
     Harris-Foulkes estimate   =     -95.09994801 Ry
     estimated scf accuracy    <       0.00000001 Ry

     iteration # 11     ecut=    40.00 Ry     beta=0.70
     Davidson diagonalization with overlap
     ethr =  1.26E-10,  avg # of iterations =  2.0

     total cpu time spent up to now is      154.2 secs

     End of self-consistent calculation

     Number of k-points >= 100: set verbosity='high' to print the bands.

     the Fermi energy is     3.0937 ev

!    total energy              =     -95.09994801 Ry
     Harris-Foulkes estimate   =     -95.09994801 Ry
     estimated scf accuracy    <          7.4E-11 Ry

     The total energy is the sum of the following terms:

     one-electron contribution =     -81.26052728 Ry
     hartree contribution      =      41.54056451 Ry
     xc contribution           =     -14.31159198 Ry
     ewald contribution        =     -41.06828859 Ry
     smearing contrib. (-TS)   =      -0.00010466 Ry

     convergence has been achieved in  11 iterations

     Forces acting on atoms (cartesian axes, Ry/au):

     atom    1 type  1   force =     0.00000000    0.00000000    0.00000000

     Total force =     0.000000     Total SCF correction =     0.000000


     Computing stress (Cartesian axis) and pressure

          total   stress  (Ry/bohr**3)                   (kbar)     P=   40.14
   0.00027284  -0.00000000   0.00000000         40.14     -0.00      0.00
  -0.00000000   0.00027284  -0.00000000         -0.00     40.14     -0.00
   0.00000000  -0.00000000   0.00027284          0.00     -0.00     40.14


     bfgs converged in   7 scf cycles and   6 bfgs steps
     (criteria: energy <  1.0E-04 Ry, force <  1.0E-03Ry/Bohr, cell <  5.0E-01kbar)

     End of BFGS Geometry Optimization

     Final enthalpy =     -95.0496712358 Ry
Begin final coordinates
     new unit-cell volume =    184.89918 a.u.^3 (    27.39923 Ang^3 )
     density =      1.39332 g/cm^3

CELL_PARAMETERS (alat=  8.00000000)
   0.448609376   0.448609376   0.448609376
  -0.448609376   0.448609376   0.448609376
  -0.448609376  -0.448609376   0.448609376

ATOMIC_POSITIONS (crystal)
Na       0.000000000   0.000000000   0.000000000
End final coordinates



     A final scf calculation at the relaxed structure.
     The G-vectors are recalculated for the final unit cell
     Results may differ from those at the preceding step.

     Parallelization info
     --------------------
     sticks:   dense  smooth     PW     G-vecs:    dense   smooth      PW
     Min         230     116     37                 4464     1590     289
     Max         231     117     38                 4466     1592     290
     Sum         921     467    151                17861     6363    1157



     bravais-lattice index     =            3
     lattice parameter (alat)  =       8.0000  a.u.
     unit-cell volume          =     184.8992 (a.u.)^3
     number of atoms/cell      =            1
     number of atomic types    =            1
     number of electrons       =         9.00
     number of Kohn-Sham states=            9
     kinetic-energy cutoff     =      40.0000  Ry
     charge density cutoff     =     320.0000  Ry
     convergence threshold     =      1.0E-10
     mixing beta               =       0.7000
     number of iterations used =            8  plain     mixing
     Exchange-correlation      = SLA  PW   PBE  PBE ( 1  4  3  4 0 0)

     celldm(1)=   8.000000  celldm(2)=   0.000000  celldm(3)=   0.000000
     celldm(4)=   0.000000  celldm(5)=   0.000000  celldm(6)=   0.000000

     crystal axes: (cart. coord. in units of alat)
               a(1) = (   0.448609   0.448609   0.448609 )  
               a(2) = (  -0.448609   0.448609   0.448609 )  
               a(3) = (  -0.448609  -0.448609   0.448609 )  

     reciprocal axes: (cart. coord. in units 2 pi/alat)
               b(1) = (  1.114555  0.000000  1.114555 )  
               b(2) = ( -1.114555  1.114555  0.000000 )  
               b(3) = ( -0.000000 -1.114555  1.114555 )  


     PseudoPot. # 1 for Na read from file:
     /home/s1333534/quantum_espresso/qe-6.1/pseudo/Na_pbe_v1.uspp.F.UPF
     MD5 check sum: 76a99c7e9422403d3e93cbc85ab7bccb
     Pseudo is Ultrasoft, Zval =  9.0
     Generated by new atomic code, or converted to UPF format
     Using radial grid of  819 points,  5 beta functions with: 
                l(1) =   0
                l(2) =   0
                l(3) =   1
                l(4) =   1
                l(5) =   2
     Q(r) pseudized with  8 coefficients,  rinner =    1.250   1.250   1.250
                                                       1.250   1.250

     atomic species   valence    mass     pseudopotential
        Na             9.00    22.99000     Na( 1.00)

     48 Sym. Ops., with inversion, found



   Cartesian axes

     site n.     atom                  positions (alat units)
         1           Na  tau(   1) = (   0.0000000   0.0000000   0.0000000  )

     number of k points=   250  Marzari-Vanderbilt smearing, width (Ry)=  0.0200

     Number of k-points >= 100: set verbosity='high' to print them.

     Dense  grid:    17861 G-vectors     FFT dimensions: (  36,  36,  36)

     Smooth grid:     6363 G-vectors     FFT dimensions: (  25,  25,  25)

     Estimated max dynamical RAM per process >       9.65MB

     Estimated total allocated dynamical RAM >      38.62MB

     Initial potential from superposition of free atoms

     starting charge    8.99371, renormalised to    9.00000
     Starting wfc are    5 randomized atomic wfcs +    4 random wfc

     Writing output data file na.bcc.save

     total cpu time spent up to now is      156.0 secs

     per-process dynamical memory:    21.3 Mb

     Self-consistent Calculation

     iteration #  1     ecut=    40.00 Ry     beta=0.70
     Davidson diagonalization with overlap
     c_bands:  1 eigenvalues not converged
     ethr =  1.00E-06,  avg # of iterations = 11.1

     total cpu time spent up to now is      159.0 secs

     total energy              =     -95.09932602 Ry
     Harris-Foulkes estimate   =     -95.09973276 Ry
     estimated scf accuracy    <       0.00114352 Ry

     iteration #  2     ecut=    40.00 Ry     beta=0.70
     Davidson diagonalization with overlap
     ethr =  1.27E-05,  avg # of iterations =  2.0

     total cpu time spent up to now is      160.0 secs

     total energy              =     -95.09947740 Ry
     Harris-Foulkes estimate   =     -95.09951273 Ry
     estimated scf accuracy    <       0.00013241 Ry

     iteration #  3     ecut=    40.00 Ry     beta=0.70
     Davidson diagonalization with overlap
     ethr =  1.47E-06,  avg # of iterations =  2.0

     total cpu time spent up to now is      161.1 secs

     total energy              =     -95.09949253 Ry
     Harris-Foulkes estimate   =     -95.09949390 Ry
     estimated scf accuracy    <       0.00000803 Ry

     iteration #  4     ecut=    40.00 Ry     beta=0.70
     Davidson diagonalization with overlap
     ethr =  8.92E-08,  avg # of iterations =  1.0

     total cpu time spent up to now is      161.9 secs

     total energy              =     -95.09949322 Ry
     Harris-Foulkes estimate   =     -95.09949317 Ry
     estimated scf accuracy    <       0.00000001 Ry

     iteration #  5     ecut=    40.00 Ry     beta=0.70
     Davidson diagonalization with overlap
     ethr =  1.12E-10,  avg # of iterations =  3.0

     total cpu time spent up to now is      163.1 secs

     total energy              =     -95.09949325 Ry
     Harris-Foulkes estimate   =     -95.09949325 Ry
     estimated scf accuracy    <          1.0E-09 Ry

     iteration #  6     ecut=    40.00 Ry     beta=0.70
     Davidson diagonalization with overlap
     ethr =  1.16E-11,  avg # of iterations =  1.5

     total cpu time spent up to now is      164.1 secs

     End of self-consistent calculation

     Number of k-points >= 100: set verbosity='high' to print the bands.

     the Fermi energy is     3.0926 ev

!    total energy              =     -95.09949325 Ry
     Harris-Foulkes estimate   =     -95.09949325 Ry
     estimated scf accuracy    <          2.2E-11 Ry

     The total energy is the sum of the following terms:

     one-electron contribution =     -81.25961830 Ry
     hartree contribution      =      41.53987714 Ry
     xc contribution           =     -14.31135884 Ry
     ewald contribution        =     -41.06828859 Ry
     smearing contrib. (-TS)   =      -0.00010465 Ry

     convergence has been achieved in   6 iterations

     Forces acting on atoms (cartesian axes, Ry/au):

     atom    1 type  1   force =     0.00000000    0.00000000    0.00000000

     Total force =     0.000000     Total SCF correction =     0.000000


     Computing stress (Cartesian axis) and pressure

          total   stress  (Ry/bohr**3)                   (kbar)     P=   36.97
   0.00025131   0.00000000  -0.00000000         36.97      0.00     -0.00
   0.00000000   0.00025131   0.00000000          0.00     36.97      0.00
  -0.00000000   0.00000000   0.00025131         -0.00      0.00     36.97


     Writing output data file na.bcc.save

     init_run     :      1.51s CPU      1.57s WALL (       2 calls)
     electrons    :    144.93s CPU    152.87s WALL (       8 calls)
     update_pot   :      1.38s CPU      1.39s WALL (       6 calls)
     forces       :      1.16s CPU      1.18s WALL (       8 calls)
     stress       :      5.65s CPU      5.69s WALL (       8 calls)

     Called by init_run:
     wfcinit      :      0.82s CPU      0.87s WALL (       2 calls)
     potinit      :      0.10s CPU      0.10s WALL (       2 calls)

     Called by electrons:
     c_bands      :    117.68s CPU    124.33s WALL (      96 calls)
     sum_band     :     24.65s CPU     25.89s WALL (      96 calls)
     v_of_rho     :      1.16s CPU      1.18s WALL (     103 calls)
     newd         :      1.42s CPU      1.44s WALL (     103 calls)
     mix_rho      :      0.11s CPU      0.12s WALL (      96 calls)

     Called by c_bands:
     init_us_2    :      6.34s CPU      6.34s WALL (   52500 calls)
     cegterg      :    111.46s CPU    118.02s WALL (   24000 calls)

     Called by sum_band:
     sum_band:bec :      0.07s CPU      0.08s WALL (   24000 calls)
     addusdens    :      1.80s CPU      1.81s WALL (      96 calls)

     Called by *egterg:
     h_psi        :     92.36s CPU     97.98s WALL (   73588 calls)
     s_psi        :      1.42s CPU      1.13s WALL (   73588 calls)
     g_psi        :      0.72s CPU      0.71s WALL (   49088 calls)
     cdiaghg      :      9.39s CPU      9.83s WALL (   71338 calls)

     Called by h_psi:
     h_psi:pot    :     92.05s CPU     97.47s WALL (   73588 calls)
     h_psi:calbec :      2.30s CPU      1.83s WALL (   73588 calls)
     vloc_psi     :     88.90s CPU     94.24s WALL (   73588 calls)
     add_vuspsi   :      0.75s CPU      1.22s WALL (   73588 calls)

     General routines
     calbec       :      3.09s CPU      2.71s WALL (  107588 calls)
     fft          :      0.53s CPU      0.55s WALL (    1690 calls)
     ffts         :      0.02s CPU      0.03s WALL (     199 calls)
     fftw         :     99.55s CPU    100.20s WALL ( 1294192 calls)
     interpolate  :      0.10s CPU      0.11s WALL (     199 calls)
     davcio       :      0.00s CPU      0.01s WALL (     500 calls)

     Parallel routines
     fft_scatter  :     14.63s CPU     18.32s WALL ( 1296081 calls)

     PWSCF        :  2m36.66s CPU     2m44.83s WALL


   This run was terminated on:  15:48:19  20Dec2017            

=------------------------------------------------------------------------------=
   JOB DONE.
=------------------------------------------------------------------------------=
