
     Program PWSCF v.6.1 (svn rev. 13369) starts on 20Dec2017 at 16: 0:17 

     This program is part of the open-source Quantum ESPRESSO suite
     for quantum simulation of materials; please cite
         "P. Giannozzi et al., J. Phys.:Condens. Matter 21 395502 (2009);
          URL http://www.quantum-espresso.org", 
     in publications or presentations arising from this work. More details at
     http://www.quantum-espresso.org/quote

     Parallel version (MPI), running on     4 processors
     R & G space division:  proc/nbgrp/npool/nimage =       4
     Waiting for input...
     Reading input from standard input

     Current dimensions of program PWSCF are:
     Max number of different atomic species (ntypx) = 10
     Max number of k-points (npk) =  40000
     Max angular momentum in pseudopotentials (lmaxx) =  3

     Subspace diagonalization in iterative solution of the eigenvalue problem:
     a serial algorithm will be used


     Parallelization info
     --------------------
     sticks:   dense  smooth     PW     G-vecs:    dense   smooth      PW
     Min         287     142     43                 6207     2171     375
     Max         288     144     44                 6210     2172     378
     Sum        1151     571    173                24835     8685    1505



     bravais-lattice index     =            3
     lattice parameter (alat)  =       8.0000  a.u.
     unit-cell volume          =     256.0000 (a.u.)^3
     number of atoms/cell      =            1
     number of atomic types    =            1
     number of electrons       =         9.00
     number of Kohn-Sham states=            9
     kinetic-energy cutoff     =      40.0000  Ry
     charge density cutoff     =     320.0000  Ry
     convergence threshold     =      1.0E-08
     mixing beta               =       0.7000
     number of iterations used =            8  plain     mixing
     Exchange-correlation      = SLA  PW   PBE  PBE ( 1  4  3  4 0 0)
     nstep                     =           50


     celldm(1)=   8.000000  celldm(2)=   0.000000  celldm(3)=   0.000000
     celldm(4)=   0.000000  celldm(5)=   0.000000  celldm(6)=   0.000000

     crystal axes: (cart. coord. in units of alat)
               a(1) = (   0.500000   0.500000   0.500000 )  
               a(2) = (  -0.500000   0.500000   0.500000 )  
               a(3) = (  -0.500000  -0.500000   0.500000 )  

     reciprocal axes: (cart. coord. in units 2 pi/alat)
               b(1) = (  1.000000  0.000000  1.000000 )  
               b(2) = ( -1.000000  1.000000  0.000000 )  
               b(3) = (  0.000000 -1.000000  1.000000 )  


     PseudoPot. # 1 for Na read from file:
     /home/s1333534/quantum_espresso/qe-6.1/pseudo/Na_pbe_v1.uspp.F.UPF
     MD5 check sum: 76a99c7e9422403d3e93cbc85ab7bccb
     Pseudo is Ultrasoft, Zval =  9.0
     Generated by new atomic code, or converted to UPF format
     Using radial grid of  819 points,  5 beta functions with: 
                l(1) =   0
                l(2) =   0
                l(3) =   1
                l(4) =   1
                l(5) =   2
     Q(r) pseudized with  8 coefficients,  rinner =    1.250   1.250   1.250
                                                       1.250   1.250

     atomic species   valence    mass     pseudopotential
        Na             9.00    22.99000     Na( 1.00)

     48 Sym. Ops., with inversion, found



   Cartesian axes

     site n.     atom                  positions (alat units)
         1           Na  tau(   1) = (   0.0000000   0.0000000   0.0000000  )

     number of k points=   250  Marzari-Vanderbilt smearing, width (Ry)=  0.0200

     Number of k-points >= 100: set verbosity='high' to print them.

     Dense  grid:    24835 G-vectors     FFT dimensions: (  40,  40,  40)

     Smooth grid:     8685 G-vectors     FFT dimensions: (  27,  27,  27)

     Estimated max dynamical RAM per process >      13.36MB

     Estimated total allocated dynamical RAM >      53.44MB

     Initial potential from superposition of free atoms

     starting charge    8.99371, renormalised to    9.00000
     Starting wfc are    5 randomized atomic wfcs +    4 random wfc

     total cpu time spent up to now is        1.0 secs

     per-process dynamical memory:    19.6 Mb

     Self-consistent Calculation

     iteration #  1     ecut=    40.00 Ry     beta=0.70
     Davidson diagonalization with overlap
     ethr =  1.00E-02,  avg # of iterations =  5.8

     Threshold (ethr) on eigenvalues was too large:
     Diagonalizing with lowered threshold

     Davidson diagonalization with overlap
     ethr =  9.84E-06,  avg # of iterations =  4.8

     total cpu time spent up to now is        5.5 secs

     total energy              =     -95.10637787 Ry
     Harris-Foulkes estimate   =     -95.10656725 Ry
     estimated scf accuracy    <       0.00088332 Ry

     iteration #  2     ecut=    40.00 Ry     beta=0.70
     Davidson diagonalization with overlap
     ethr =  9.81E-06,  avg # of iterations =  2.0

     total cpu time spent up to now is        7.0 secs

     total energy              =     -95.10647616 Ry
     Harris-Foulkes estimate   =     -95.10649624 Ry
     estimated scf accuracy    <       0.00009724 Ry

     iteration #  3     ecut=    40.00 Ry     beta=0.70
     Davidson diagonalization with overlap
     ethr =  1.08E-06,  avg # of iterations =  2.1

     total cpu time spent up to now is        8.6 secs

     total energy              =     -95.10648758 Ry
     Harris-Foulkes estimate   =     -95.10648858 Ry
     estimated scf accuracy    <       0.00000602 Ry

     iteration #  4     ecut=    40.00 Ry     beta=0.70
     Davidson diagonalization with overlap
     ethr =  6.69E-08,  avg # of iterations =  1.0

     total cpu time spent up to now is       10.0 secs

     total energy              =     -95.10648815 Ry
     Harris-Foulkes estimate   =     -95.10648811 Ry
     estimated scf accuracy    <       0.00000001 Ry

     iteration #  5     ecut=    40.00 Ry     beta=0.70
     Davidson diagonalization with overlap
     ethr =  1.40E-10,  avg # of iterations =  3.0

     total cpu time spent up to now is       11.8 secs

     End of self-consistent calculation

     Number of k-points >= 100: set verbosity='high' to print the bands.

     the Fermi energy is     1.5119 ev

!    total energy              =     -95.10648818 Ry
     Harris-Foulkes estimate   =     -95.10648818 Ry
     estimated scf accuracy    <          1.7E-09 Ry

     The total energy is the sum of the following terms:

     one-electron contribution =     -88.63767028 Ry
     hartree contribution      =      44.64403185 Ry
     xc contribution           =     -14.26551967 Ry
     ewald contribution        =     -36.84723868 Ry
     smearing contrib. (-TS)   =      -0.00009141 Ry

     convergence has been achieved in   5 iterations

     Forces acting on atoms (cartesian axes, Ry/au):

     atom    1 type  1   force =     0.00000000    0.00000000    0.00000000

     Total force =     0.000000     Total SCF correction =     0.000000


     Computing stress (Cartesian axis) and pressure

          total   stress  (Ry/bohr**3)                   (kbar)     P=   -4.40
  -0.00002994  -0.00000000   0.00000000         -4.40     -0.00      0.00
  -0.00000000  -0.00002994   0.00000000         -0.00     -4.40      0.00
   0.00000000   0.00000000  -0.00002994          0.00      0.00     -4.40


     BFGS Geometry Optimization

     number of scf cycles    =   1
     number of bfgs steps    =   0

     enthalpy new            =     -94.9498654217 Ry

     new trust radius        =       0.0513398169 bohr
     new conv_thr            =       0.0000000100 Ry

     new unit-cell volume =    243.87507 a.u.^3 (    36.13856 Ang^3 )
     density =      1.05637 g/cm^3

CELL_PARAMETERS (alat=  8.00000000)
   0.491978154   0.491978154   0.491978154
  -0.491978154   0.491978154   0.491978154
  -0.491978154  -0.491978154   0.491978154

ATOMIC_POSITIONS (crystal)
Na       0.000000000   0.000000000   0.000000000



     Writing output data file na.bcc.save
     NEW-OLD atomic charge density approx. for the potential
     extrapolated charge    8.55285, renormalised to    9.00000

     total cpu time spent up to now is       13.2 secs

     per-process dynamical memory:    31.4 Mb

     Self-consistent Calculation

     iteration #  1     ecut=    40.00 Ry     beta=0.70
     Davidson diagonalization with overlap
     c_bands:  1 eigenvalues not converged
     ethr =  1.00E-06,  avg # of iterations =  5.2

     total cpu time spent up to now is       16.0 secs

     total energy              =     -94.99341829 Ry
     Harris-Foulkes estimate   =     -98.54321645 Ry
     estimated scf accuracy    <       0.06429096 Ry

     iteration #  2     ecut=    40.00 Ry     beta=0.70
     Davidson diagonalization with overlap
     ethr =  7.14E-04,  avg # of iterations =  2.8

     total cpu time spent up to now is       18.0 secs

     total energy              =     -95.10691174 Ry
     Harris-Foulkes estimate   =     -95.15360689 Ry
     estimated scf accuracy    <       0.10577419 Ry

     iteration #  3     ecut=    40.00 Ry     beta=0.70
     Davidson diagonalization with overlap
     ethr =  7.14E-04,  avg # of iterations =  2.0

     total cpu time spent up to now is       19.5 secs

     total energy              =     -95.10691757 Ry
     Harris-Foulkes estimate   =     -95.11473352 Ry
     estimated scf accuracy    <       0.01807730 Ry

     iteration #  4     ecut=    40.00 Ry     beta=0.70
     Davidson diagonalization with overlap
     ethr =  2.01E-04,  avg # of iterations =  1.0

     total cpu time spent up to now is       20.9 secs

     total energy              =     -95.10788147 Ry
     Harris-Foulkes estimate   =     -95.10817037 Ry
     estimated scf accuracy    <       0.00348374 Ry

     iteration #  5     ecut=    40.00 Ry     beta=0.70
     Davidson diagonalization with overlap
     ethr =  3.87E-05,  avg # of iterations =  1.1

     total cpu time spent up to now is       22.2 secs

     total energy              =     -95.10704007 Ry
     Harris-Foulkes estimate   =     -95.10795039 Ry
     estimated scf accuracy    <       0.00286223 Ry

     iteration #  6     ecut=    40.00 Ry     beta=0.70
     Davidson diagonalization with overlap
     ethr =  3.18E-05,  avg # of iterations =  1.0

     total cpu time spent up to now is       23.6 secs

     total energy              =     -95.10671756 Ry
     Harris-Foulkes estimate   =     -95.10714716 Ry
     estimated scf accuracy    <       0.00103332 Ry

     iteration #  7     ecut=    40.00 Ry     beta=0.70
     Davidson diagonalization with overlap
     ethr =  1.15E-05,  avg # of iterations =  1.0

     total cpu time spent up to now is       24.9 secs

     total energy              =     -95.10664883 Ry
     Harris-Foulkes estimate   =     -95.10678578 Ry
     estimated scf accuracy    <       0.00021924 Ry

     iteration #  8     ecut=    40.00 Ry     beta=0.70
     Davidson diagonalization with overlap
     ethr =  2.44E-06,  avg # of iterations =  2.4

     total cpu time spent up to now is       26.6 secs

     total energy              =     -95.10668890 Ry
     Harris-Foulkes estimate   =     -95.10669020 Ry
     estimated scf accuracy    <       0.00000198 Ry

     iteration #  9     ecut=    40.00 Ry     beta=0.70
     Davidson diagonalization with overlap
     ethr =  2.20E-08,  avg # of iterations =  2.0

     total cpu time spent up to now is       28.2 secs

     End of self-consistent calculation

     Number of k-points >= 100: set verbosity='high' to print the bands.

     the Fermi energy is     1.7139 ev

!    total energy              =     -95.10668936 Ry
     Harris-Foulkes estimate   =     -95.10668937 Ry
     estimated scf accuracy    <          2.8E-09 Ry

     The total energy is the sum of the following terms:

     one-electron contribution =     -87.58260916 Ry
     hartree contribution      =      44.19584154 Ry
     xc contribution           =     -14.27178426 Ry
     ewald contribution        =     -37.44804359 Ry
     smearing contrib. (-TS)   =      -0.00009390 Ry

     convergence has been achieved in   9 iterations

     Forces acting on atoms (cartesian axes, Ry/au):

     atom    1 type  1   force =     0.00000000    0.00000000    0.00000000

     Total force =     0.000000     Total SCF correction =     0.000000


     Computing stress (Cartesian axis) and pressure

          total   stress  (Ry/bohr**3)                   (kbar)     P=   -0.47
  -0.00000317  -0.00000000   0.00000000         -0.47     -0.00      0.00
  -0.00000000  -0.00000317  -0.00000000         -0.00     -0.47     -0.00
   0.00000000  -0.00000000  -0.00000317          0.00     -0.00     -0.47


     number of scf cycles    =   2
     number of bfgs steps    =   1

     enthalpy old            =     -94.9498654217 Ry
     enthalpy new            =     -94.9574847273 Ry

     CASE: enthalpy_new < enthalpy_old


     WARNING: bfgs curvature condition failed, Theta= 0.862
     new trust radius        =       0.0763894672 bohr
     new conv_thr            =            1.0E-10 Ry

     new unit-cell volume =    226.41511 a.u.^3 (    33.55126 Ang^3 )
     density =      1.13783 g/cm^3

CELL_PARAMETERS (alat=  8.00000000)
   0.479945384   0.479945384   0.479945384
  -0.479945384   0.479945384   0.479945384
  -0.479945384  -0.479945384   0.479945384

ATOMIC_POSITIONS (crystal)
Na       0.000000000   0.000000000   0.000000000



     Writing output data file na.bcc.save
     NEW-OLD atomic charge density approx. for the potential
     extrapolated charge    8.30645, renormalised to    9.00000

     total cpu time spent up to now is       29.6 secs

     per-process dynamical memory:    31.4 Mb

     Self-consistent Calculation

     iteration #  1     ecut=    40.00 Ry     beta=0.70
     Davidson diagonalization with overlap
     ethr =  1.00E-06,  avg # of iterations =  5.7

     total cpu time spent up to now is       32.5 secs

     total energy              =     -94.85474119 Ry
     Harris-Foulkes estimate   =    -100.29546118 Ry
     estimated scf accuracy    <       0.14500401 Ry

     iteration #  2     ecut=    40.00 Ry     beta=0.70
     Davidson diagonalization with overlap
     ethr =  1.61E-03,  avg # of iterations =  2.7

     total cpu time spent up to now is       34.5 secs

     total energy              =     -95.10440925 Ry
     Harris-Foulkes estimate   =     -95.20828732 Ry
     estimated scf accuracy    <       0.23403361 Ry

     iteration #  3     ecut=    40.00 Ry     beta=0.70
     Davidson diagonalization with overlap
     ethr =  1.61E-03,  avg # of iterations =  2.0

     total cpu time spent up to now is       36.1 secs

     total energy              =     -95.10745209 Ry
     Harris-Foulkes estimate   =     -95.12271098 Ry
     estimated scf accuracy    <       0.03737279 Ry

     iteration #  4     ecut=    40.00 Ry     beta=0.70
     Davidson diagonalization with overlap
     ethr =  4.15E-04,  avg # of iterations =  1.0

     total cpu time spent up to now is       37.4 secs

     total energy              =     -95.10772712 Ry
     Harris-Foulkes estimate   =     -95.10977895 Ry
     estimated scf accuracy    <       0.00828425 Ry

     iteration #  5     ecut=    40.00 Ry     beta=0.70
     Davidson diagonalization with overlap
     ethr =  9.20E-05,  avg # of iterations =  1.0

     total cpu time spent up to now is       38.8 secs

     total energy              =     -95.10705896 Ry
     Harris-Foulkes estimate   =     -95.10801769 Ry
     estimated scf accuracy    <       0.00386324 Ry

     iteration #  6     ecut=    40.00 Ry     beta=0.70
     Davidson diagonalization with overlap
     ethr =  4.29E-05,  avg # of iterations =  1.0

     total cpu time spent up to now is       40.1 secs

     total energy              =     -95.10567721 Ry
     Harris-Foulkes estimate   =     -95.10712786 Ry
     estimated scf accuracy    <       0.00195381 Ry

     iteration #  7     ecut=    40.00 Ry     beta=0.70
     Davidson diagonalization with overlap
     ethr =  2.17E-05,  avg # of iterations =  2.1

     total cpu time spent up to now is       41.7 secs

     total energy              =     -95.10629729 Ry
     Harris-Foulkes estimate   =     -95.10627179 Ry
     estimated scf accuracy    <       0.00007769 Ry

     iteration #  8     ecut=    40.00 Ry     beta=0.70
     Davidson diagonalization with overlap
     ethr =  8.63E-07,  avg # of iterations =  2.2

     total cpu time spent up to now is       43.2 secs

     total energy              =     -95.10621603 Ry
     Harris-Foulkes estimate   =     -95.10629939 Ry
     estimated scf accuracy    <       0.00013699 Ry

     iteration #  9     ecut=    40.00 Ry     beta=0.70
     Davidson diagonalization with overlap
     ethr =  8.63E-07,  avg # of iterations =  2.0

     total cpu time spent up to now is       44.9 secs

     total energy              =     -95.10623595 Ry
     Harris-Foulkes estimate   =     -95.10623775 Ry
     estimated scf accuracy    <       0.00000238 Ry

     iteration # 10     ecut=    40.00 Ry     beta=0.70
     Davidson diagonalization with overlap
     ethr =  2.64E-08,  avg # of iterations =  2.0

     total cpu time spent up to now is       46.5 secs

     total energy              =     -95.10623662 Ry
     Harris-Foulkes estimate   =     -95.10623672 Ry
     estimated scf accuracy    <       0.00000013 Ry

     iteration # 11     ecut=    40.00 Ry     beta=0.70
     Davidson diagonalization with overlap
     ethr =  1.48E-09,  avg # of iterations =  2.0

     total cpu time spent up to now is       48.1 secs

     total energy              =     -95.10623666 Ry
     Harris-Foulkes estimate   =     -95.10623668 Ry
     estimated scf accuracy    <       0.00000003 Ry

     iteration # 12     ecut=    40.00 Ry     beta=0.70
     Davidson diagonalization with overlap
     ethr =  3.24E-10,  avg # of iterations =  1.0

     total cpu time spent up to now is       49.4 secs

     total energy              =     -95.10623667 Ry
     Harris-Foulkes estimate   =     -95.10623667 Ry
     estimated scf accuracy    <          8.7E-09 Ry

     iteration # 13     ecut=    40.00 Ry     beta=0.70
     Davidson diagonalization with overlap
     ethr =  9.67E-11,  avg # of iterations =  1.0

     total cpu time spent up to now is       50.8 secs

     total energy              =     -95.10623666 Ry
     Harris-Foulkes estimate   =     -95.10623667 Ry
     estimated scf accuracy    <       0.00000002 Ry

     iteration # 14     ecut=    40.00 Ry     beta=0.70
     Davidson diagonalization with overlap
     ethr =  9.67E-11,  avg # of iterations =  2.0

     total cpu time spent up to now is       52.4 secs

     total energy              =     -95.10623666 Ry
     Harris-Foulkes estimate   =     -95.10623666 Ry
     estimated scf accuracy    <          3.5E-10 Ry

     iteration # 15     ecut=    40.00 Ry     beta=0.70
     Davidson diagonalization with overlap
     ethr =  3.91E-12,  avg # of iterations =  1.0

     total cpu time spent up to now is       53.8 secs

     End of self-consistent calculation

     Number of k-points >= 100: set verbosity='high' to print the bands.

     the Fermi energy is     2.0445 ev

!    total energy              =     -95.10623666 Ry
     Harris-Foulkes estimate   =     -95.10623666 Ry
     estimated scf accuracy    <          1.8E-11 Ry

     The total energy is the sum of the following terms:

     one-electron contribution =     -85.93774909 Ry
     hartree contribution      =      43.50040217 Ry
     xc contribution           =     -14.28188406 Ry
     ewald contribution        =     -38.38690809 Ry
     smearing contrib. (-TS)   =      -0.00009759 Ry

     convergence has been achieved in  15 iterations

     Forces acting on atoms (cartesian axes, Ry/au):

     atom    1 type  1   force =     0.00000000    0.00000000    0.00000000

     Total force =     0.000000     Total SCF correction =     0.000000


     Computing stress (Cartesian axis) and pressure

          total   stress  (Ry/bohr**3)                   (kbar)     P=    8.09
   0.00005501   0.00000000  -0.00000000          8.09      0.00     -0.00
   0.00000000   0.00005501   0.00000000          0.00      8.09      0.00
   0.00000000   0.00000000   0.00005501          0.00      0.00      8.09


     number of scf cycles    =   3
     number of bfgs steps    =   2

     enthalpy old            =     -94.9574847273 Ry
     enthalpy new            =     -94.9677141613 Ry

     CASE: enthalpy_new < enthalpy_old

     new trust radius        =       0.1131742801 bohr
     new conv_thr            =            1.0E-10 Ry

     new unit-cell volume =    201.81954 a.u.^3 (    29.90657 Ang^3 )
     density =      1.27650 g/cm^3

CELL_PARAMETERS (alat=  8.00000000)
   0.461896229   0.461896229   0.461896229
  -0.461896229   0.461896229   0.461896229
  -0.461896229  -0.461896229   0.461896229

ATOMIC_POSITIONS (crystal)
Na       0.000000000   0.000000000   0.000000000



     Writing output data file na.bcc.save
     NEW-OLD atomic charge density approx. for the potential
     extrapolated charge    7.90394, renormalised to    9.00000

     total cpu time spent up to now is       55.2 secs

     per-process dynamical memory:    31.4 Mb

     Self-consistent Calculation

     iteration #  1     ecut=    40.00 Ry     beta=0.70
     Davidson diagonalization with overlap
     ethr =  1.00E-06,  avg # of iterations =  6.4

     total cpu time spent up to now is       58.3 secs

     total energy              =     -94.54682824 Ry
     Harris-Foulkes estimate   =    -102.94542880 Ry
     estimated scf accuracy    <       0.33219695 Ry

     iteration #  2     ecut=    40.00 Ry     beta=0.70
     Davidson diagonalization with overlap
     ethr =  3.69E-03,  avg # of iterations =  2.5

     total cpu time spent up to now is       60.2 secs

     total energy              =     -95.09124483 Ry
     Harris-Foulkes estimate   =     -95.32162809 Ry
     estimated scf accuracy    <       0.51269240 Ry

     iteration #  3     ecut=    40.00 Ry     beta=0.70
     Davidson diagonalization with overlap
     ethr =  3.69E-03,  avg # of iterations =  2.0

     total cpu time spent up to now is       61.7 secs

     total energy              =     -95.10629141 Ry
     Harris-Foulkes estimate   =     -95.13506269 Ry
     estimated scf accuracy    <       0.07268516 Ry

     iteration #  4     ecut=    40.00 Ry     beta=0.70
     Davidson diagonalization with overlap
     ethr =  8.08E-04,  avg # of iterations =  1.0

     total cpu time spent up to now is       63.1 secs

     total energy              =     -95.10466871 Ry
     Harris-Foulkes estimate   =     -95.11077142 Ry
     estimated scf accuracy    <       0.01677903 Ry

     iteration #  5     ecut=    40.00 Ry     beta=0.70
     Davidson diagonalization with overlap
     ethr =  1.86E-04,  avg # of iterations =  1.0

     total cpu time spent up to now is       64.4 secs

     total energy              =     -95.10412452 Ry
     Harris-Foulkes estimate   =     -95.10568184 Ry
     estimated scf accuracy    <       0.00456067 Ry

     iteration #  6     ecut=    40.00 Ry     beta=0.70
     Davidson diagonalization with overlap
     ethr =  5.07E-05,  avg # of iterations =  1.2

     total cpu time spent up to now is       65.8 secs

     total energy              =     -95.10327432 Ry
     Harris-Foulkes estimate   =     -95.10431734 Ry
     estimated scf accuracy    <       0.00153223 Ry

     iteration #  7     ecut=    40.00 Ry     beta=0.70
     Davidson diagonalization with overlap
     ethr =  1.70E-05,  avg # of iterations =  2.1

     total cpu time spent up to now is       67.4 secs

     total energy              =     -95.10361818 Ry
     Harris-Foulkes estimate   =     -95.10361151 Ry
     estimated scf accuracy    <       0.00000100 Ry

     iteration #  8     ecut=    40.00 Ry     beta=0.70
     Davidson diagonalization with overlap
     ethr =  1.11E-08,  avg # of iterations =  3.2

     total cpu time spent up to now is       69.4 secs

     total energy              =     -95.10360986 Ry
     Harris-Foulkes estimate   =     -95.10362123 Ry
     estimated scf accuracy    <       0.00002165 Ry

     iteration #  9     ecut=    40.00 Ry     beta=0.70
     Davidson diagonalization with overlap
     ethr =  1.11E-08,  avg # of iterations =  3.0

     total cpu time spent up to now is       71.2 secs

     total energy              =     -95.10361103 Ry
     Harris-Foulkes estimate   =     -95.10361217 Ry
     estimated scf accuracy    <       0.00000180 Ry

     iteration # 10     ecut=    40.00 Ry     beta=0.70
     Davidson diagonalization with overlap
     ethr =  1.11E-08,  avg # of iterations =  2.0

     total cpu time spent up to now is       72.8 secs

     total energy              =     -95.10361134 Ry
     Harris-Foulkes estimate   =     -95.10361135 Ry
     estimated scf accuracy    <       0.00000001 Ry

     iteration # 11     ecut=    40.00 Ry     beta=0.70
     Davidson diagonalization with overlap
     ethr =  1.42E-10,  avg # of iterations =  2.5

     total cpu time spent up to now is       74.5 secs

     total energy              =     -95.10361134 Ry
     Harris-Foulkes estimate   =     -95.10361136 Ry
     estimated scf accuracy    <       0.00000003 Ry

     iteration # 12     ecut=    40.00 Ry     beta=0.70
     Davidson diagonalization with overlap
     ethr =  1.42E-10,  avg # of iterations =  2.0

     total cpu time spent up to now is       76.2 secs

     End of self-consistent calculation

     Number of k-points >= 100: set verbosity='high' to print the bands.

     the Fermi energy is     2.6116 ev

!    total energy              =     -95.10361134 Ry
     Harris-Foulkes estimate   =     -95.10361134 Ry
     estimated scf accuracy    <          8.9E-11 Ry

     The total energy is the sum of the following terms:

     one-electron contribution =     -83.31745387 Ry
     hartree contribution      =      42.39921007 Ry
     xc contribution           =     -14.29834218 Ry
     ewald contribution        =     -39.88692302 Ry
     smearing contrib. (-TS)   =      -0.00010234 Ry

     convergence has been achieved in  12 iterations

     Forces acting on atoms (cartesian axes, Ry/au):

     atom    1 type  1   force =     0.00000000    0.00000000    0.00000000

     Total force =     0.000000     Total SCF correction =     0.000000


     Computing stress (Cartesian axis) and pressure

          total   stress  (Ry/bohr**3)                   (kbar)     P=   24.42
   0.00016603  -0.00000000   0.00000000         24.42     -0.00      0.00
  -0.00000000   0.00016603   0.00000000         -0.00     24.42      0.00
   0.00000000  -0.00000000   0.00016603          0.00     -0.00     24.42


     number of scf cycles    =   4
     number of bfgs steps    =   3

     enthalpy old            =     -94.9677141613 Ry
     enthalpy new            =     -94.9801366036 Ry

     CASE: enthalpy_new < enthalpy_old

     new trust radius        =       0.1665387492 bohr
     new conv_thr            =            1.0E-10 Ry

     new unit-cell volume =    168.37049 a.u.^3 (    24.94993 Ang^3 )
     density =      1.53010 g/cm^3

CELL_PARAMETERS (alat=  8.00000000)
   0.434822497   0.434822497   0.434822497
  -0.434822497   0.434822497   0.434822497
  -0.434822497  -0.434822497   0.434822497

ATOMIC_POSITIONS (crystal)
Na       0.000000000   0.000000000   0.000000000



     Writing output data file na.bcc.save
     NEW-OLD atomic charge density approx. for the potential
     extrapolated charge    7.21328, renormalised to    9.00000

     total cpu time spent up to now is       77.6 secs

     per-process dynamical memory:    31.4 Mb

     Self-consistent Calculation

     iteration #  1     ecut=    40.00 Ry     beta=0.70
     Davidson diagonalization with overlap
     ethr =  1.00E-06,  avg # of iterations =  6.8

     total cpu time spent up to now is       80.8 secs

     total energy              =     -93.86005341 Ry
     Harris-Foulkes estimate   =    -106.88905368 Ry
     estimated scf accuracy    <       0.80050650 Ry

     iteration #  2     ecut=    40.00 Ry     beta=0.70
     Davidson diagonalization with overlap
     ethr =  8.89E-03,  avg # of iterations =  2.4

     total cpu time spent up to now is       82.7 secs

     total energy              =     -95.03594908 Ry
     Harris-Foulkes estimate   =     -95.54326067 Ry
     estimated scf accuracy    <       1.09573830 Ry

     iteration #  3     ecut=    40.00 Ry     beta=0.70
     Davidson diagonalization with overlap
     ethr =  8.89E-03,  avg # of iterations =  2.0

     total cpu time spent up to now is       84.2 secs

     total energy              =     -95.09523928 Ry
     Harris-Foulkes estimate   =     -95.14478784 Ry
     estimated scf accuracy    <       0.12228797 Ry

     iteration #  4     ecut=    40.00 Ry     beta=0.70
     Davidson diagonalization with overlap
     ethr =  1.36E-03,  avg # of iterations =  1.4

     total cpu time spent up to now is       85.6 secs

     total energy              =     -95.09439869 Ry
     Harris-Foulkes estimate   =     -95.10469915 Ry
     estimated scf accuracy    <       0.02464035 Ry

     iteration #  5     ecut=    40.00 Ry     beta=0.70
     Davidson diagonalization with overlap
     ethr =  2.74E-04,  avg # of iterations =  1.5

     total cpu time spent up to now is       87.0 secs

     total energy              =     -95.09308749 Ry
     Harris-Foulkes estimate   =     -95.09637344 Ry
     estimated scf accuracy    <       0.00474211 Ry

     iteration #  6     ecut=    40.00 Ry     beta=0.70
     Davidson diagonalization with overlap
     ethr =  5.27E-05,  avg # of iterations =  2.3

     total cpu time spent up to now is       88.7 secs

     total energy              =     -95.09427619 Ry
     Harris-Foulkes estimate   =     -95.09429241 Ry
     estimated scf accuracy    <       0.00003056 Ry

     iteration #  7     ecut=    40.00 Ry     beta=0.70
     Davidson diagonalization with overlap
     ethr =  3.40E-07,  avg # of iterations =  2.8

     total cpu time spent up to now is       90.4 secs

     total energy              =     -95.09428032 Ry
     Harris-Foulkes estimate   =     -95.09428087 Ry
     estimated scf accuracy    <       0.00000138 Ry

     iteration #  8     ecut=    40.00 Ry     beta=0.70
     Davidson diagonalization with overlap
     ethr =  1.53E-08,  avg # of iterations =  1.1

     total cpu time spent up to now is       91.7 secs

     total energy              =     -95.09428033 Ry
     Harris-Foulkes estimate   =     -95.09428042 Ry
     estimated scf accuracy    <       0.00000030 Ry

     iteration #  9     ecut=    40.00 Ry     beta=0.70
     Davidson diagonalization with overlap
     ethr =  3.33E-09,  avg # of iterations =  1.0

     total cpu time spent up to now is       93.1 secs

     total energy              =     -95.09428028 Ry
     Harris-Foulkes estimate   =     -95.09428035 Ry
     estimated scf accuracy    <       0.00000009 Ry

     iteration # 10     ecut=    40.00 Ry     beta=0.70
     Davidson diagonalization with overlap
     ethr =  9.77E-10,  avg # of iterations =  2.0

     total cpu time spent up to now is       94.7 secs

     total energy              =     -95.09428031 Ry
     Harris-Foulkes estimate   =     -95.09428031 Ry
     estimated scf accuracy    <          2.7E-09 Ry

     iteration # 11     ecut=    40.00 Ry     beta=0.70
     Davidson diagonalization with overlap
     ethr =  3.01E-11,  avg # of iterations =  2.0

     total cpu time spent up to now is       96.2 secs

     End of self-consistent calculation

     Number of k-points >= 100: set verbosity='high' to print the bands.

     the Fermi energy is     3.6629 ev

!    total energy              =     -95.09428031 Ry
     Harris-Foulkes estimate   =     -95.09428031 Ry
     estimated scf accuracy    <          8.4E-11 Ry

     The total energy is the sum of the following terms:

     one-electron contribution =     -79.00053356 Ry
     hartree contribution      =      40.60337793 Ry
     xc contribution           =     -14.32658181 Ry
     ewald contribution        =     -42.37043724 Ry
     smearing contrib. (-TS)   =      -0.00010562 Ry

     convergence has been achieved in  11 iterations

     Forces acting on atoms (cartesian axes, Ry/au):

     atom    1 type  1   force =     0.00000000    0.00000000    0.00000000

     Total force =     0.000000     Total SCF correction =     0.000000


     Computing stress (Cartesian axis) and pressure

          total   stress  (Ry/bohr**3)                   (kbar)     P=   61.86
   0.00042054   0.00000000  -0.00000000         61.86      0.00     -0.00
   0.00000000   0.00042054   0.00000000          0.00     61.86      0.00
  -0.00000000   0.00000000   0.00042054         -0.00      0.00     61.86


     number of scf cycles    =   5
     number of bfgs steps    =   4

     enthalpy old            =     -94.9801366036 Ry
     enthalpy new            =     -94.9912699531 Ry

     CASE: enthalpy_new < enthalpy_old

     new trust radius        =       0.0991327700 bohr
     new conv_thr            =            1.0E-10 Ry

     new unit-cell volume =    149.80330 a.u.^3 (    22.19856 Ang^3 )
     density =      1.71974 g/cm^3

CELL_PARAMETERS (alat=  8.00000000)
   0.418212626   0.418212626   0.418212626
  -0.418212626   0.418212626   0.418212626
  -0.418212626  -0.418212626   0.418212626

ATOMIC_POSITIONS (crystal)
Na       0.000000000   0.000000000   0.000000000



     Writing output data file na.bcc.save
     NEW-OLD atomic charge density approx. for the potential
     extrapolated charge    7.88529, renormalised to    9.00000

     total cpu time spent up to now is       97.7 secs

     per-process dynamical memory:    31.4 Mb

     Self-consistent Calculation

     iteration #  1     ecut=    40.00 Ry     beta=0.70
     Davidson diagonalization with overlap
     ethr =  1.00E-06,  avg # of iterations =  5.5

     total cpu time spent up to now is      100.6 secs

     total energy              =     -94.52997001 Ry
     Harris-Foulkes estimate   =    -102.33783690 Ry
     estimated scf accuracy    <       0.33409388 Ry

     iteration #  2     ecut=    40.00 Ry     beta=0.70
     Davidson diagonalization with overlap
     ethr =  3.71E-03,  avg # of iterations =  2.3

     total cpu time spent up to now is      102.5 secs

     total energy              =     -95.07156203 Ry
     Harris-Foulkes estimate   =     -95.30176776 Ry
     estimated scf accuracy    <       0.51219943 Ry

     iteration #  3     ecut=    40.00 Ry     beta=0.70
     Davidson diagonalization with overlap
     ethr =  3.71E-03,  avg # of iterations =  1.9

     total cpu time spent up to now is      104.0 secs

     total energy              =     -95.08481841 Ry
     Harris-Foulkes estimate   =     -95.11520476 Ry
     estimated scf accuracy    <       0.07292525 Ry

     iteration #  4     ecut=    40.00 Ry     beta=0.70
     Davidson diagonalization with overlap
     ethr =  8.10E-04,  avg # of iterations =  1.1

     total cpu time spent up to now is      105.3 secs

     total energy              =     -95.08470901 Ry
     Harris-Foulkes estimate   =     -95.09029954 Ry
     estimated scf accuracy    <       0.01397335 Ry

     iteration #  5     ecut=    40.00 Ry     beta=0.70
     Davidson diagonalization with overlap
     ethr =  1.55E-04,  avg # of iterations =  1.1

     total cpu time spent up to now is      106.7 secs

     total energy              =     -95.08481574 Ry
     Harris-Foulkes estimate   =     -95.08573209 Ry
     estimated scf accuracy    <       0.00314039 Ry

     iteration #  6     ecut=    40.00 Ry     beta=0.70
     Davidson diagonalization with overlap
     ethr =  3.49E-05,  avg # of iterations =  1.2

     total cpu time spent up to now is      108.0 secs

     total energy              =     -95.08402453 Ry
     Harris-Foulkes estimate   =     -95.08491970 Ry
     estimated scf accuracy    <       0.00136312 Ry

     iteration #  7     ecut=    40.00 Ry     beta=0.70
     Davidson diagonalization with overlap
     ethr =  1.51E-05,  avg # of iterations =  2.0

     total cpu time spent up to now is      109.7 secs

     total energy              =     -95.08430529 Ry
     Harris-Foulkes estimate   =     -95.08430023 Ry
     estimated scf accuracy    <       0.00000044 Ry

     iteration #  8     ecut=    40.00 Ry     beta=0.70
     Davidson diagonalization with overlap
     ethr =  4.94E-09,  avg # of iterations =  3.1

     total cpu time spent up to now is      111.6 secs

     total energy              =     -95.08429616 Ry
     Harris-Foulkes estimate   =     -95.08431239 Ry
     estimated scf accuracy    <       0.00002690 Ry

     iteration #  9     ecut=    40.00 Ry     beta=0.70
     Davidson diagonalization with overlap
     ethr =  4.94E-09,  avg # of iterations =  3.0

     total cpu time spent up to now is      113.5 secs

     total energy              =     -95.08430019 Ry
     Harris-Foulkes estimate   =     -95.08430044 Ry
     estimated scf accuracy    <       0.00000043 Ry

     iteration # 10     ecut=    40.00 Ry     beta=0.70
     Davidson diagonalization with overlap
     ethr =  4.77E-09,  avg # of iterations =  2.0

     total cpu time spent up to now is      115.0 secs

     total energy              =     -95.08430024 Ry
     Harris-Foulkes estimate   =     -95.08430025 Ry
     estimated scf accuracy    <       0.00000002 Ry

     iteration # 11     ecut=    40.00 Ry     beta=0.70
     Davidson diagonalization with overlap
     ethr =  1.68E-10,  avg # of iterations =  2.0

     total cpu time spent up to now is      116.6 secs

     total energy              =     -95.08430025 Ry
     Harris-Foulkes estimate   =     -95.08430025 Ry
     estimated scf accuracy    <          3.0E-09 Ry

     iteration # 12     ecut=    40.00 Ry     beta=0.70
     Davidson diagonalization with overlap
     ethr =  3.36E-11,  avg # of iterations =  1.0

     total cpu time spent up to now is      117.9 secs

     total energy              =     -95.08430025 Ry
     Harris-Foulkes estimate   =     -95.08430025 Ry
     estimated scf accuracy    <          5.3E-10 Ry

     iteration # 13     ecut=    40.00 Ry     beta=0.70
     Davidson diagonalization with overlap
     ethr =  5.88E-12,  avg # of iterations =  1.8

     total cpu time spent up to now is      119.4 secs

     End of self-consistent calculation

     Number of k-points >= 100: set verbosity='high' to print the bands.

     the Fermi energy is     4.4605 ev

!    total energy              =     -95.08430025 Ry
     Harris-Foulkes estimate   =     -95.08430025 Ry
     estimated scf accuracy    <          9.9E-13 Ry

     The total energy is the sum of the following terms:

     one-electron contribution =     -76.09140984 Ry
     hartree contribution      =      39.40712638 Ry
     xc contribution           =     -14.34667667 Ry
     ewald contribution        =     -44.05323559 Ry
     smearing contrib. (-TS)   =      -0.00010451 Ry

     convergence has been achieved in  13 iterations

     Forces acting on atoms (cartesian axes, Ry/au):

     atom    1 type  1   force =     0.00000000    0.00000000    0.00000000

     Total force =     0.000000     Total SCF correction =     0.000000


     Computing stress (Cartesian axis) and pressure

          total   stress  (Ry/bohr**3)                   (kbar)     P=   99.13
   0.00067386   0.00000000  -0.00000000         99.13      0.00     -0.00
   0.00000000   0.00067386   0.00000000          0.00     99.13      0.00
  -0.00000000   0.00000000   0.00067386         -0.00      0.00     99.13


     number of scf cycles    =   6
     number of bfgs steps    =   5

     enthalpy old            =     -94.9912699531 Ry
     enthalpy new            =     -94.9926494396 Ry

     CASE: enthalpy_new < enthalpy_old

     new trust radius        =       0.0224412777 bohr
     new conv_thr            =            1.0E-10 Ry

     new unit-cell volume =    153.96121 a.u.^3 (    22.81470 Ang^3 )
     density =      1.67330 g/cm^3

CELL_PARAMETERS (alat=  8.00000000)
   0.422046643   0.422046643   0.422046643
  -0.422046643   0.422046643   0.422046643
  -0.422046643  -0.422046643   0.422046643

ATOMIC_POSITIONS (crystal)
Na       0.000000000   0.000000000   0.000000000



     Writing output data file na.bcc.save
     NEW-OLD atomic charge density approx. for the potential
     extrapolated charge    9.24289, renormalised to    9.00000

     total cpu time spent up to now is      120.8 secs

     per-process dynamical memory:    31.4 Mb

     Self-consistent Calculation

     iteration #  1     ecut=    40.00 Ry     beta=0.70
     Davidson diagonalization with overlap
     ethr =  1.00E-06,  avg # of iterations =  3.7

     total cpu time spent up to now is      123.3 secs

     total energy              =     -95.04624086 Ry
     Harris-Foulkes estimate   =     -93.44196351 Ry
     estimated scf accuracy    <       0.02275959 Ry

     iteration #  2     ecut=    40.00 Ry     beta=0.70
     Davidson diagonalization with overlap
     ethr =  2.53E-04,  avg # of iterations =  3.0

     total cpu time spent up to now is      125.3 secs

     total energy              =     -95.08807528 Ry
     Harris-Foulkes estimate   =     -95.10480936 Ry
     estimated scf accuracy    <       0.03820716 Ry

     iteration #  3     ecut=    40.00 Ry     beta=0.70
     Davidson diagonalization with overlap
     ethr =  2.53E-04,  avg # of iterations =  1.2

     total cpu time spent up to now is      126.7 secs

     total energy              =     -95.08807025 Ry
     Harris-Foulkes estimate   =     -95.09045180 Ry
     estimated scf accuracy    <       0.00785164 Ry

     iteration #  4     ecut=    40.00 Ry     beta=0.70
     Davidson diagonalization with overlap
     ethr =  8.72E-05,  avg # of iterations =  1.0

     total cpu time spent up to now is      128.0 secs

     total energy              =     -95.08768633 Ry
     Harris-Foulkes estimate   =     -95.08836598 Ry
     estimated scf accuracy    <       0.00301166 Ry

     iteration #  5     ecut=    40.00 Ry     beta=0.70
     Davidson diagonalization with overlap
     ethr =  3.35E-05,  avg # of iterations =  1.0

     total cpu time spent up to now is      129.3 secs

     total energy              =     -95.08727408 Ry
     Harris-Foulkes estimate   =     -95.08773675 Ry
     estimated scf accuracy    <       0.00165731 Ry

     iteration #  6     ecut=    40.00 Ry     beta=0.70
     Davidson diagonalization with overlap
     ethr =  1.84E-05,  avg # of iterations =  1.0

     total cpu time spent up to now is      130.7 secs

     total energy              =     -95.08690245 Ry
     Harris-Foulkes estimate   =     -95.08730851 Ry
     estimated scf accuracy    <       0.00076319 Ry

     iteration #  7     ecut=    40.00 Ry     beta=0.70
     Davidson diagonalization with overlap
     ethr =  8.48E-06,  avg # of iterations =  1.5

     total cpu time spent up to now is      132.1 secs

     total energy              =     -95.08696040 Ry
     Harris-Foulkes estimate   =     -95.08698506 Ry
     estimated scf accuracy    <       0.00006335 Ry

     iteration #  8     ecut=    40.00 Ry     beta=0.70
     Davidson diagonalization with overlap
     ethr =  7.04E-07,  avg # of iterations =  1.7

     total cpu time spent up to now is      133.5 secs

     total energy              =     -95.08695603 Ry
     Harris-Foulkes estimate   =     -95.08696576 Ry
     estimated scf accuracy    <       0.00001615 Ry

     iteration #  9     ecut=    40.00 Ry     beta=0.70
     Davidson diagonalization with overlap
     ethr =  1.79E-07,  avg # of iterations =  2.0

     total cpu time spent up to now is      135.0 secs

     total energy              =     -95.08695846 Ry
     Harris-Foulkes estimate   =     -95.08695854 Ry
     estimated scf accuracy    <       0.00000038 Ry

     iteration # 10     ecut=    40.00 Ry     beta=0.70
     Davidson diagonalization with overlap
     ethr =  4.26E-09,  avg # of iterations =  1.8

     total cpu time spent up to now is      136.5 secs

     total energy              =     -95.08695834 Ry
     Harris-Foulkes estimate   =     -95.08695850 Ry
     estimated scf accuracy    <       0.00000022 Ry

     iteration # 11     ecut=    40.00 Ry     beta=0.70
     Davidson diagonalization with overlap
     ethr =  2.42E-09,  avg # of iterations =  2.0

     total cpu time spent up to now is      138.1 secs

     total energy              =     -95.08695841 Ry
     Harris-Foulkes estimate   =     -95.08695841 Ry
     estimated scf accuracy    <       0.00000002 Ry

     iteration # 12     ecut=    40.00 Ry     beta=0.70
     Davidson diagonalization with overlap
     ethr =  1.95E-10,  avg # of iterations =  1.0

     total cpu time spent up to now is      139.4 secs

     total energy              =     -95.08695841 Ry
     Harris-Foulkes estimate   =     -95.08695841 Ry
     estimated scf accuracy    <          3.5E-09 Ry

     iteration # 13     ecut=    40.00 Ry     beta=0.70
     Davidson diagonalization with overlap
     ethr =  3.89E-11,  avg # of iterations =  1.3

     total cpu time spent up to now is      140.8 secs

     total energy              =     -95.08695841 Ry
     Harris-Foulkes estimate   =     -95.08695841 Ry
     estimated scf accuracy    <          5.0E-10 Ry

     iteration # 14     ecut=    40.00 Ry     beta=0.70
     Davidson diagonalization with overlap
     ethr =  5.52E-12,  avg # of iterations =  2.0

     total cpu time spent up to now is      142.4 secs

     total energy              =     -95.08695841 Ry
     Harris-Foulkes estimate   =     -95.08695841 Ry
     estimated scf accuracy    <          1.3E-10 Ry

     iteration # 15     ecut=    40.00 Ry     beta=0.70
     Davidson diagonalization with overlap
     ethr =  1.46E-12,  avg # of iterations =  2.0

     total cpu time spent up to now is      144.0 secs

     End of self-consistent calculation

     Number of k-points >= 100: set verbosity='high' to print the bands.

     the Fermi energy is     4.2643 ev

!    total energy              =     -95.08695841 Ry
     Harris-Foulkes estimate   =     -95.08695841 Ry
     estimated scf accuracy    <          1.3E-11 Ry

     The total energy is the sum of the following terms:

     one-electron contribution =     -76.78204645 Ry
     hartree contribution      =      39.69004804 Ry
     xc contribution           =     -14.34181419 Ry
     ewald contribution        =     -43.65304083 Ry
     smearing contrib. (-TS)   =      -0.00010499 Ry

     convergence has been achieved in  15 iterations

     Forces acting on atoms (cartesian axes, Ry/au):

     atom    1 type  1   force =     0.00000000    0.00000000    0.00000000

     Total force =     0.000000     Total SCF correction =     0.000000


     Computing stress (Cartesian axis) and pressure

          total   stress  (Ry/bohr**3)                   (kbar)     P=   89.12
   0.00060586   0.00000000  -0.00000000         89.12      0.00     -0.00
   0.00000000   0.00060586   0.00000000          0.00     89.12      0.00
  -0.00000000   0.00000000   0.00060586         -0.00      0.00     89.12


     number of scf cycles    =   7
     number of bfgs steps    =   6

     enthalpy old            =     -94.9926494396 Ry
     enthalpy new            =     -94.9927637592 Ry

     CASE: enthalpy_new < enthalpy_old

     new trust radius        =       0.0020053468 bohr
     new conv_thr            =            1.0E-10 Ry

     new unit-cell volume =    153.58827 a.u.^3 (    22.75943 Ang^3 )
     density =      1.67736 g/cm^3

CELL_PARAMETERS (alat=  8.00000000)
   0.421705596   0.421705596   0.421705596
  -0.421705596   0.421705596   0.421705596
  -0.421705596  -0.421705596   0.421705596

ATOMIC_POSITIONS (crystal)
Na       0.000000000   0.000000000   0.000000000



     Writing output data file na.bcc.save
     NEW-OLD atomic charge density approx. for the potential
     extrapolated charge    8.97816, renormalised to    9.00000

     total cpu time spent up to now is      145.4 secs

     per-process dynamical memory:    31.4 Mb

     Self-consistent Calculation

     iteration #  1     ecut=    40.00 Ry     beta=0.70
     Davidson diagonalization with overlap
     ethr =  1.00E-06,  avg # of iterations =  2.0

     total cpu time spent up to now is      147.3 secs

     total energy              =     -95.08643415 Ry
     Harris-Foulkes estimate   =     -95.23395575 Ry
     estimated scf accuracy    <       0.00016694 Ry

     iteration #  2     ecut=    40.00 Ry     beta=0.70
     Davidson diagonalization with overlap
     ethr =  1.85E-06,  avg # of iterations =  2.9

     total cpu time spent up to now is      149.3 secs

     total energy              =     -95.08673648 Ry
     Harris-Foulkes estimate   =     -95.08685900 Ry
     estimated scf accuracy    <       0.00027967 Ry

     iteration #  3     ecut=    40.00 Ry     beta=0.70
     Davidson diagonalization with overlap
     ethr =  1.85E-06,  avg # of iterations =  1.4

     total cpu time spent up to now is      150.7 secs

     total energy              =     -95.08674142 Ry
     Harris-Foulkes estimate   =     -95.08675499 Ry
     estimated scf accuracy    <       0.00005407 Ry

     iteration #  4     ecut=    40.00 Ry     beta=0.70
     Davidson diagonalization with overlap
     ethr =  6.01E-07,  avg # of iterations =  1.0

     total cpu time spent up to now is      152.0 secs

     total energy              =     -95.08673611 Ry
     Harris-Foulkes estimate   =     -95.08674299 Ry
     estimated scf accuracy    <       0.00002522 Ry

     iteration #  5     ecut=    40.00 Ry     beta=0.70
     Davidson diagonalization with overlap
     ethr =  2.80E-07,  avg # of iterations =  1.0

     total cpu time spent up to now is      153.4 secs

     total energy              =     -95.08673330 Ry
     Harris-Foulkes estimate   =     -95.08673665 Ry
     estimated scf accuracy    <       0.00001165 Ry

     iteration #  6     ecut=    40.00 Ry     beta=0.70
     Davidson diagonalization with overlap
     ethr =  1.29E-07,  avg # of iterations =  1.0

     total cpu time spent up to now is      154.7 secs

     total energy              =     -95.08673134 Ry
     Harris-Foulkes estimate   =     -95.08673360 Ry
     estimated scf accuracy    <       0.00000503 Ry

     iteration #  7     ecut=    40.00 Ry     beta=0.70
     Davidson diagonalization with overlap
     ethr =  5.59E-08,  avg # of iterations =  1.0

     total cpu time spent up to now is      156.1 secs

     total energy              =     -95.08673109 Ry
     Harris-Foulkes estimate   =     -95.08673168 Ry
     estimated scf accuracy    <       0.00000091 Ry

     iteration #  8     ecut=    40.00 Ry     beta=0.70
     Davidson diagonalization with overlap
     ethr =  1.01E-08,  avg # of iterations =  2.0

     total cpu time spent up to now is      157.6 secs

     total energy              =     -95.08673129 Ry
     Harris-Foulkes estimate   =     -95.08673129 Ry
     estimated scf accuracy    <          1.5E-09 Ry

     iteration #  9     ecut=    40.00 Ry     beta=0.70
     Davidson diagonalization with overlap
     ethr =  1.67E-11,  avg # of iterations =  2.0

     total cpu time spent up to now is      159.2 secs

     total energy              =     -95.08673129 Ry
     Harris-Foulkes estimate   =     -95.08673129 Ry
     estimated scf accuracy    <          1.2E-09 Ry

     iteration # 10     ecut=    40.00 Ry     beta=0.70
     Davidson diagonalization with overlap
     ethr =  1.35E-11,  avg # of iterations =  2.0

     total cpu time spent up to now is      160.8 secs

     End of self-consistent calculation

     Number of k-points >= 100: set verbosity='high' to print the bands.

     the Fermi energy is     4.2815 ev

!    total energy              =     -95.08673129 Ry
     Harris-Foulkes estimate   =     -95.08673129 Ry
     estimated scf accuracy    <          5.5E-11 Ry

     The total energy is the sum of the following terms:

     one-electron contribution =     -76.72110725 Ry
     hartree contribution      =      39.66506989 Ry
     xc contribution           =     -14.34224451 Ry
     ewald contribution        =     -43.68834446 Ry
     smearing contrib. (-TS)   =      -0.00010495 Ry

     convergence has been achieved in  10 iterations

     Forces acting on atoms (cartesian axes, Ry/au):

     atom    1 type  1   force =     0.00000000    0.00000000    0.00000000

     Total force =     0.000000     Total SCF correction =     0.000000


     Computing stress (Cartesian axis) and pressure

          total   stress  (Ry/bohr**3)                   (kbar)     P=   90.04
   0.00061210   0.00000000  -0.00000000         90.04      0.00     -0.00
   0.00000000   0.00061210   0.00000000          0.00     90.04      0.00
  -0.00000000   0.00000000   0.00061210         -0.00      0.00     90.04


     bfgs converged in   8 scf cycles and   7 bfgs steps
     (criteria: energy <  1.0E-04 Ry, force <  1.0E-03Ry/Bohr, cell <  5.0E-01kbar)

     End of BFGS Geometry Optimization

     Final enthalpy =     -94.9927648055 Ry
Begin final coordinates
     new unit-cell volume =    153.58827 a.u.^3 (    22.75943 Ang^3 )
     density =      1.67736 g/cm^3

CELL_PARAMETERS (alat=  8.00000000)
   0.421705596   0.421705596   0.421705596
  -0.421705596   0.421705596   0.421705596
  -0.421705596  -0.421705596   0.421705596

ATOMIC_POSITIONS (crystal)
Na       0.000000000   0.000000000   0.000000000
End final coordinates



     A final scf calculation at the relaxed structure.
     The G-vectors are recalculated for the final unit cell
     Results may differ from those at the preceding step.

     Parallelization info
     --------------------
     sticks:   dense  smooth     PW     G-vecs:    dense   smooth      PW
     Min         204     102     32                 3692     1319     239
     Max         205     103     33                 3694     1321     242
     Sum         817     411    129                14771     5281     959



     bravais-lattice index     =            3
     lattice parameter (alat)  =       8.0000  a.u.
     unit-cell volume          =     153.5883 (a.u.)^3
     number of atoms/cell      =            1
     number of atomic types    =            1
     number of electrons       =         9.00
     number of Kohn-Sham states=            9
     kinetic-energy cutoff     =      40.0000  Ry
     charge density cutoff     =     320.0000  Ry
     convergence threshold     =      1.0E-10
     mixing beta               =       0.7000
     number of iterations used =            8  plain     mixing
     Exchange-correlation      = SLA  PW   PBE  PBE ( 1  4  3  4 0 0)

     celldm(1)=   8.000000  celldm(2)=   0.000000  celldm(3)=   0.000000
     celldm(4)=   0.000000  celldm(5)=   0.000000  celldm(6)=   0.000000

     crystal axes: (cart. coord. in units of alat)
               a(1) = (   0.421706   0.421706   0.421706 )  
               a(2) = (  -0.421706   0.421706   0.421706 )  
               a(3) = (  -0.421706  -0.421706   0.421706 )  

     reciprocal axes: (cart. coord. in units 2 pi/alat)
               b(1) = (  1.185661  0.000000  1.185661 )  
               b(2) = ( -1.185661  1.185661  0.000000 )  
               b(3) = ( -0.000000 -1.185661  1.185661 )  


     PseudoPot. # 1 for Na read from file:
     /home/s1333534/quantum_espresso/qe-6.1/pseudo/Na_pbe_v1.uspp.F.UPF
     MD5 check sum: 76a99c7e9422403d3e93cbc85ab7bccb
     Pseudo is Ultrasoft, Zval =  9.0
     Generated by new atomic code, or converted to UPF format
     Using radial grid of  819 points,  5 beta functions with: 
                l(1) =   0
                l(2) =   0
                l(3) =   1
                l(4) =   1
                l(5) =   2
     Q(r) pseudized with  8 coefficients,  rinner =    1.250   1.250   1.250
                                                       1.250   1.250

     atomic species   valence    mass     pseudopotential
        Na             9.00    22.99000     Na( 1.00)

     48 Sym. Ops., with inversion, found



   Cartesian axes

     site n.     atom                  positions (alat units)
         1           Na  tau(   1) = (   0.0000000   0.0000000   0.0000000  )

     number of k points=   250  Marzari-Vanderbilt smearing, width (Ry)=  0.0200

     Number of k-points >= 100: set verbosity='high' to print them.

     Dense  grid:    14771 G-vectors     FFT dimensions: (  36,  36,  36)

     Smooth grid:     5281 G-vectors     FFT dimensions: (  24,  24,  24)

     Estimated max dynamical RAM per process >       8.17MB

     Estimated total allocated dynamical RAM >      32.68MB

     Initial potential from superposition of free atoms

     starting charge    8.99371, renormalised to    9.00000
     Starting wfc are    5 randomized atomic wfcs +    4 random wfc

     Writing output data file na.bcc.save

     total cpu time spent up to now is      162.6 secs

     per-process dynamical memory:    20.0 Mb

     Self-consistent Calculation

     iteration #  1     ecut=    40.00 Ry     beta=0.70
     Davidson diagonalization with overlap
     ethr =  1.00E-06,  avg # of iterations = 10.7

     total cpu time spent up to now is      165.2 secs

     total energy              =     -95.08573587 Ry
     Harris-Foulkes estimate   =     -95.08631095 Ry
     estimated scf accuracy    <       0.00153424 Ry

     iteration #  2     ecut=    40.00 Ry     beta=0.70
     Davidson diagonalization with overlap
     ethr =  1.70E-05,  avg # of iterations =  2.0

     total cpu time spent up to now is      166.1 secs

     total energy              =     -95.08594948 Ry
     Harris-Foulkes estimate   =     -95.08599743 Ry
     estimated scf accuracy    <       0.00017953 Ry

     iteration #  3     ecut=    40.00 Ry     beta=0.70
     Davidson diagonalization with overlap
     ethr =  1.99E-06,  avg # of iterations =  2.0

     total cpu time spent up to now is      167.0 secs

     total energy              =     -95.08597118 Ry
     Harris-Foulkes estimate   =     -95.08597246 Ry
     estimated scf accuracy    <       0.00001064 Ry

     iteration #  4     ecut=    40.00 Ry     beta=0.70
     Davidson diagonalization with overlap
     ethr =  1.18E-07,  avg # of iterations =  1.0

     total cpu time spent up to now is      167.8 secs

     total energy              =     -95.08597207 Ry
     Harris-Foulkes estimate   =     -95.08597201 Ry
     estimated scf accuracy    <       0.00000001 Ry

     iteration #  5     ecut=    40.00 Ry     beta=0.70
     Davidson diagonalization with overlap
     ethr =  1.51E-10,  avg # of iterations =  3.0

     total cpu time spent up to now is      168.8 secs

     total energy              =     -95.08597210 Ry
     Harris-Foulkes estimate   =     -95.08597210 Ry
     estimated scf accuracy    <          1.3E-09 Ry

     iteration #  6     ecut=    40.00 Ry     beta=0.70
     Davidson diagonalization with overlap
     ethr =  1.47E-11,  avg # of iterations =  1.5

     total cpu time spent up to now is      169.6 secs

     total energy              =     -95.08597210 Ry
     Harris-Foulkes estimate   =     -95.08597210 Ry
     estimated scf accuracy    <          1.5E-10 Ry

     iteration #  7     ecut=    40.00 Ry     beta=0.70
     Davidson diagonalization with overlap
     ethr =  1.66E-12,  avg # of iterations =  2.0

     total cpu time spent up to now is      170.6 secs

     End of self-consistent calculation

     Number of k-points >= 100: set verbosity='high' to print the bands.

     the Fermi energy is     4.2804 ev

!    total energy              =     -95.08597210 Ry
     Harris-Foulkes estimate   =     -95.08597210 Ry
     estimated scf accuracy    <          2.9E-12 Ry

     The total energy is the sum of the following terms:

     one-electron contribution =     -76.72062314 Ry
     hartree contribution      =      39.66551913 Ry
     xc contribution           =     -14.34241868 Ry
     ewald contribution        =     -43.68834446 Ry
     smearing contrib. (-TS)   =      -0.00010495 Ry

     convergence has been achieved in   7 iterations

     Forces acting on atoms (cartesian axes, Ry/au):

     atom    1 type  1   force =     0.00000000    0.00000000    0.00000000

     Total force =     0.000000     Total SCF correction =     0.000000


     Computing stress (Cartesian axis) and pressure

          total   stress  (Ry/bohr**3)                   (kbar)     P=   88.65
   0.00060261  -0.00000000   0.00000000         88.65     -0.00      0.00
  -0.00000000   0.00060261   0.00000000         -0.00     88.65      0.00
  -0.00000000   0.00000000   0.00060261         -0.00      0.00     88.65


     Writing output data file na.bcc.save

     init_run     :      1.45s CPU      1.51s WALL (       2 calls)
     electrons    :    149.81s CPU    157.90s WALL (       9 calls)
     update_pot   :      1.65s CPU      1.67s WALL (       7 calls)
     forces       :      1.33s CPU      1.35s WALL (       9 calls)
     stress       :      6.39s CPU      6.42s WALL (       9 calls)

     Called by init_run:
     wfcinit      :      0.77s CPU      0.82s WALL (       2 calls)
     potinit      :      0.10s CPU      0.10s WALL (       2 calls)

     Called by electrons:
     c_bands      :    121.84s CPU    128.68s WALL (      98 calls)
     sum_band     :     25.05s CPU     26.26s WALL (      98 calls)
     v_of_rho     :      1.23s CPU      1.24s WALL (     106 calls)
     newd         :      1.70s CPU      1.72s WALL (     106 calls)
     mix_rho      :      0.11s CPU      0.11s WALL (      98 calls)

     Called by c_bands:
     init_us_2    :      6.51s CPU      6.43s WALL (   54000 calls)
     cegterg      :    115.47s CPU    122.27s WALL (   24500 calls)

     Called by sum_band:
     sum_band:bec :      0.07s CPU      0.08s WALL (   24500 calls)
     addusdens    :      1.82s CPU      1.82s WALL (      98 calls)

     Called by *egterg:
     h_psi        :     95.31s CPU    101.16s WALL (   78215 calls)
     s_psi        :      1.50s CPU      1.16s WALL (   78215 calls)
     g_psi        :      0.77s CPU      0.74s WALL (   53215 calls)
     cdiaghg      :      9.96s CPU     10.36s WALL (   75715 calls)

     Called by h_psi:
     h_psi:pot    :     94.99s CPU    100.65s WALL (   78215 calls)
     h_psi:calbec :      2.36s CPU      1.87s WALL (   78215 calls)
     vloc_psi     :     91.75s CPU     97.34s WALL (   78215 calls)
     add_vuspsi   :      0.77s CPU      1.25s WALL (   78215 calls)

     General routines
     calbec       :      3.16s CPU      2.80s WALL (  113965 calls)
     fft          :      0.57s CPU      0.59s WALL (    1743 calls)
     ffts         :      0.03s CPU      0.03s WALL (     204 calls)
     fftw         :    102.87s CPU    103.57s WALL ( 1344152 calls)
     interpolate  :      0.11s CPU      0.11s WALL (     204 calls)
     davcio       :      0.00s CPU      0.01s WALL (     500 calls)

     Parallel routines
     fft_scatter  :     15.55s CPU     19.22s WALL ( 1346099 calls)

     PWSCF        :  2m42.91s CPU     2m51.24s WALL


   This run was terminated on:  16: 3: 8  20Dec2017            

=------------------------------------------------------------------------------=
   JOB DONE.
=------------------------------------------------------------------------------=
