
     Program PWSCF v.6.1 (svn rev. 13369) starts on 20Dec2017 at 15:24: 1 

     This program is part of the open-source Quantum ESPRESSO suite
     for quantum simulation of materials; please cite
         "P. Giannozzi et al., J. Phys.:Condens. Matter 21 395502 (2009);
          URL http://www.quantum-espresso.org", 
     in publications or presentations arising from this work. More details at
     http://www.quantum-espresso.org/quote

     Parallel version (MPI), running on     4 processors
     R & G space division:  proc/nbgrp/npool/nimage =       4
     Waiting for input...
     Reading input from standard input

     Current dimensions of program PWSCF are:
     Max number of different atomic species (ntypx) = 10
     Max number of k-points (npk) =  40000
     Max angular momentum in pseudopotentials (lmaxx) =  3

     Subspace diagonalization in iterative solution of the eigenvalue problem:
     a serial algorithm will be used


     Parallelization info
     --------------------
     sticks:   dense  smooth     PW     G-vecs:    dense   smooth      PW
     Min         287     142     43                 6207     2171     375
     Max         288     144     44                 6210     2172     378
     Sum        1151     571    173                24835     8685    1505



     bravais-lattice index     =            3
     lattice parameter (alat)  =       8.0000  a.u.
     unit-cell volume          =     256.0000 (a.u.)^3
     number of atoms/cell      =            1
     number of atomic types    =            1
     number of electrons       =         9.00
     number of Kohn-Sham states=            9
     kinetic-energy cutoff     =      40.0000  Ry
     charge density cutoff     =     320.0000  Ry
     convergence threshold     =      1.0E-08
     mixing beta               =       0.7000
     number of iterations used =            8  plain     mixing
     Exchange-correlation      = SLA  PW   PBE  PBE ( 1  4  3  4 0 0)
     nstep                     =           50


     celldm(1)=   8.000000  celldm(2)=   0.000000  celldm(3)=   0.000000
     celldm(4)=   0.000000  celldm(5)=   0.000000  celldm(6)=   0.000000

     crystal axes: (cart. coord. in units of alat)
               a(1) = (   0.500000   0.500000   0.500000 )  
               a(2) = (  -0.500000   0.500000   0.500000 )  
               a(3) = (  -0.500000  -0.500000   0.500000 )  

     reciprocal axes: (cart. coord. in units 2 pi/alat)
               b(1) = (  1.000000  0.000000  1.000000 )  
               b(2) = ( -1.000000  1.000000  0.000000 )  
               b(3) = (  0.000000 -1.000000  1.000000 )  


     PseudoPot. # 1 for Na read from file:
     /home/s1333534/quantum_espresso/qe-6.1/pseudo/Na_pbe_v1.uspp.F.UPF
     MD5 check sum: 76a99c7e9422403d3e93cbc85ab7bccb
     Pseudo is Ultrasoft, Zval =  9.0
     Generated by new atomic code, or converted to UPF format
     Using radial grid of  819 points,  5 beta functions with: 
                l(1) =   0
                l(2) =   0
                l(3) =   1
                l(4) =   1
                l(5) =   2
     Q(r) pseudized with  8 coefficients,  rinner =    1.250   1.250   1.250
                                                       1.250   1.250

     atomic species   valence    mass     pseudopotential
        Na             9.00    22.99000     Na( 1.00)

     48 Sym. Ops., with inversion, found



   Cartesian axes

     site n.     atom                  positions (alat units)
         1           Na  tau(   1) = (   0.0000000   0.0000000   0.0000000  )

     number of k points=   250  Marzari-Vanderbilt smearing, width (Ry)=  0.0200

     Number of k-points >= 100: set verbosity='high' to print them.

     Dense  grid:    24835 G-vectors     FFT dimensions: (  40,  40,  40)

     Smooth grid:     8685 G-vectors     FFT dimensions: (  27,  27,  27)

     Estimated max dynamical RAM per process >      13.36MB

     Estimated total allocated dynamical RAM >      53.44MB

     Initial potential from superposition of free atoms

     starting charge    8.99371, renormalised to    9.00000
     Starting wfc are    5 randomized atomic wfcs +    4 random wfc

     total cpu time spent up to now is        1.0 secs

     per-process dynamical memory:    19.6 Mb

     Self-consistent Calculation

     iteration #  1     ecut=    40.00 Ry     beta=0.70
     Davidson diagonalization with overlap
     ethr =  1.00E-02,  avg # of iterations =  5.8

     Threshold (ethr) on eigenvalues was too large:
     Diagonalizing with lowered threshold

     Davidson diagonalization with overlap
     ethr =  9.84E-06,  avg # of iterations =  4.8

     total cpu time spent up to now is        5.8 secs

     total energy              =     -95.10637787 Ry
     Harris-Foulkes estimate   =     -95.10656725 Ry
     estimated scf accuracy    <       0.00088332 Ry

     iteration #  2     ecut=    40.00 Ry     beta=0.70
     Davidson diagonalization with overlap
     ethr =  9.81E-06,  avg # of iterations =  2.0

     total cpu time spent up to now is        7.3 secs

     total energy              =     -95.10647616 Ry
     Harris-Foulkes estimate   =     -95.10649624 Ry
     estimated scf accuracy    <       0.00009724 Ry

     iteration #  3     ecut=    40.00 Ry     beta=0.70
     Davidson diagonalization with overlap
     ethr =  1.08E-06,  avg # of iterations =  2.1

     total cpu time spent up to now is        9.0 secs

     total energy              =     -95.10648758 Ry
     Harris-Foulkes estimate   =     -95.10648858 Ry
     estimated scf accuracy    <       0.00000602 Ry

     iteration #  4     ecut=    40.00 Ry     beta=0.70
     Davidson diagonalization with overlap
     ethr =  6.69E-08,  avg # of iterations =  1.0

     total cpu time spent up to now is       10.4 secs

     total energy              =     -95.10648815 Ry
     Harris-Foulkes estimate   =     -95.10648811 Ry
     estimated scf accuracy    <       0.00000001 Ry

     iteration #  5     ecut=    40.00 Ry     beta=0.70
     Davidson diagonalization with overlap
     ethr =  1.40E-10,  avg # of iterations =  3.0

     total cpu time spent up to now is       12.4 secs

     End of self-consistent calculation

     Number of k-points >= 100: set verbosity='high' to print the bands.

     the Fermi energy is     1.5119 ev

!    total energy              =     -95.10648818 Ry
     Harris-Foulkes estimate   =     -95.10648818 Ry
     estimated scf accuracy    <          1.7E-09 Ry

     The total energy is the sum of the following terms:

     one-electron contribution =     -88.63767028 Ry
     hartree contribution      =      44.64403185 Ry
     xc contribution           =     -14.26551967 Ry
     ewald contribution        =     -36.84723868 Ry
     smearing contrib. (-TS)   =      -0.00009141 Ry

     convergence has been achieved in   5 iterations

     Forces acting on atoms (cartesian axes, Ry/au):

     atom    1 type  1   force =     0.00000000    0.00000000    0.00000000

     Total force =     0.000000     Total SCF correction =     0.000000


     Computing stress (Cartesian axis) and pressure

          total   stress  (Ry/bohr**3)                   (kbar)     P=   -4.40
  -0.00002994  -0.00000000   0.00000000         -4.40     -0.00      0.00
  -0.00000000  -0.00002994   0.00000000         -0.00     -4.40      0.00
   0.00000000   0.00000000  -0.00002994          0.00      0.00     -4.40


     BFGS Geometry Optimization

     number of scf cycles    =   1
     number of bfgs steps    =   0

     enthalpy new            =     -95.1238907138 Ry

     new trust radius        =       0.0030430875 bohr
     new conv_thr            =       0.0000000100 Ry

     new unit-cell volume =    256.73104 a.u.^3 (    38.04361 Ang^3 )
     density =      1.00347 g/cm^3

CELL_PARAMETERS (alat=  8.00000000)
   0.500475482   0.500475482   0.500475482
  -0.500475482   0.500475482   0.500475482
  -0.500475482  -0.500475482   0.500475482

ATOMIC_POSITIONS (crystal)
Na       0.000000000   0.000000000   0.000000000



     Writing output data file na.bcc.save
     NEW-OLD atomic charge density approx. for the potential
     extrapolated charge    9.02561, renormalised to    9.00000

     total cpu time spent up to now is       13.8 secs

     per-process dynamical memory:    31.4 Mb

     Self-consistent Calculation

     iteration #  1     ecut=    40.00 Ry     beta=0.70
     Davidson diagonalization with overlap
     ethr =  1.00E-06,  avg # of iterations =  2.0

     total cpu time spent up to now is       15.8 secs

     total energy              =     -95.10602528 Ry
     Harris-Foulkes estimate   =     -94.90488837 Ry
     estimated scf accuracy    <       0.00024547 Ry

     iteration #  2     ecut=    40.00 Ry     beta=0.70
     Davidson diagonalization with overlap
     ethr =  2.73E-06,  avg # of iterations =  3.0

     total cpu time spent up to now is       17.9 secs

     total energy              =     -95.10647328 Ry
     Harris-Foulkes estimate   =     -95.10665358 Ry
     estimated scf accuracy    <       0.00041053 Ry

     iteration #  3     ecut=    40.00 Ry     beta=0.70
     Davidson diagonalization with overlap
     ethr =  2.73E-06,  avg # of iterations =  1.8

     total cpu time spent up to now is       19.4 secs

     total energy              =     -95.10647267 Ry
     Harris-Foulkes estimate   =     -95.10650026 Ry
     estimated scf accuracy    <       0.00007984 Ry

     iteration #  4     ecut=    40.00 Ry     beta=0.70
     Davidson diagonalization with overlap
     ethr =  8.87E-07,  avg # of iterations =  1.0

     total cpu time spent up to now is       20.8 secs

     total energy              =     -95.10646611 Ry
     Harris-Foulkes estimate   =     -95.10647633 Ry
     estimated scf accuracy    <       0.00002551 Ry

     iteration #  5     ecut=    40.00 Ry     beta=0.70
     Davidson diagonalization with overlap
     ethr =  2.83E-07,  avg # of iterations =  1.0

     total cpu time spent up to now is       22.2 secs

     total energy              =     -95.10646586 Ry
     Harris-Foulkes estimate   =     -95.10646759 Ry
     estimated scf accuracy    <       0.00000625 Ry

     iteration #  6     ecut=    40.00 Ry     beta=0.70
     Davidson diagonalization with overlap
     ethr =  6.94E-08,  avg # of iterations =  1.0

     total cpu time spent up to now is       23.6 secs

     total energy              =     -95.10646610 Ry
     Harris-Foulkes estimate   =     -95.10646606 Ry
     estimated scf accuracy    <       0.00000283 Ry

     iteration #  7     ecut=    40.00 Ry     beta=0.70
     Davidson diagonalization with overlap
     ethr =  3.14E-08,  avg # of iterations =  1.0

     total cpu time spent up to now is       25.0 secs

     total energy              =     -95.10646429 Ry
     Harris-Foulkes estimate   =     -95.10646611 Ry
     estimated scf accuracy    <       0.00000302 Ry

     iteration #  8     ecut=    40.00 Ry     beta=0.70
     Davidson diagonalization with overlap
     ethr =  3.14E-08,  avg # of iterations =  2.0

     total cpu time spent up to now is       26.6 secs

     total energy              =     -95.10646473 Ry
     Harris-Foulkes estimate   =     -95.10646476 Ry
     estimated scf accuracy    <       0.00000006 Ry

     iteration #  9     ecut=    40.00 Ry     beta=0.70
     Davidson diagonalization with overlap
     ethr =  6.87E-10,  avg # of iterations =  1.9

     total cpu time spent up to now is       28.1 secs

     End of self-consistent calculation

     Number of k-points >= 100: set verbosity='high' to print the bands.

     the Fermi energy is     1.5003 ev

!    total energy              =     -95.10646473 Ry
     Harris-Foulkes estimate   =     -95.10646474 Ry
     estimated scf accuracy    <          7.9E-09 Ry

     The total energy is the sum of the following terms:

     one-electron contribution =     -88.69949666 Ry
     hartree contribution      =      44.67058109 Ry
     xc contribution           =     -14.26522635 Ry
     ewald contribution        =     -36.81223154 Ry
     smearing contrib. (-TS)   =      -0.00009127 Ry

     convergence has been achieved in   9 iterations

     Forces acting on atoms (cartesian axes, Ry/au):

     atom    1 type  1   force =     0.00000000    0.00000000    0.00000000

     Total force =     0.000000     Total SCF correction =     0.000000


     Computing stress (Cartesian axis) and pressure

          total   stress  (Ry/bohr**3)                   (kbar)     P=   -4.20
  -0.00002852  -0.00000000   0.00000000         -4.20     -0.00      0.00
  -0.00000000  -0.00002852  -0.00000000         -0.00     -4.20     -0.00
   0.00000000  -0.00000000  -0.00002852          0.00     -0.00     -4.20


     number of scf cycles    =   2
     number of bfgs steps    =   1

     enthalpy old            =     -95.1238907138 Ry
     enthalpy new            =     -95.1239169584 Ry

     CASE: enthalpy_new < enthalpy_old


     WARNING: bfgs curvature condition failed, Theta= 0.770
     new trust radius        =       0.0033489875 bohr
     new conv_thr            =            1.0E-10 Ry

     new unit-cell volume =    257.53678 a.u.^3 (    38.16301 Ang^3 )
     density =      1.00033 g/cm^3

CELL_PARAMETERS (alat=  8.00000000)
   0.500998513   0.500998513   0.500998513
  -0.500998513   0.500998513   0.500998513
  -0.500998513  -0.500998513   0.500998513

ATOMIC_POSITIONS (crystal)
Na       0.000000000   0.000000000   0.000000000



     Writing output data file na.bcc.save
     NEW-OLD atomic charge density approx. for the potential
     extrapolated charge    9.02814, renormalised to    9.00000

     total cpu time spent up to now is       29.5 secs

     per-process dynamical memory:    31.4 Mb

     Self-consistent Calculation

     iteration #  1     ecut=    40.00 Ry     beta=0.70
     Davidson diagonalization with overlap
     ethr =  1.00E-06,  avg # of iterations =  2.0

     total cpu time spent up to now is       31.4 secs

     total energy              =     -95.10590466 Ry
     Harris-Foulkes estimate   =     -94.88476436 Ry
     estimated scf accuracy    <       0.00029881 Ry

     iteration #  2     ecut=    40.00 Ry     beta=0.70
     Davidson diagonalization with overlap
     ethr =  3.32E-06,  avg # of iterations =  3.0

     total cpu time spent up to now is       33.5 secs

     total energy              =     -95.10644765 Ry
     Harris-Foulkes estimate   =     -95.10666622 Ry
     estimated scf accuracy    <       0.00049706 Ry

     iteration #  3     ecut=    40.00 Ry     beta=0.70
     Davidson diagonalization with overlap
     ethr =  3.32E-06,  avg # of iterations =  1.8

     total cpu time spent up to now is       35.0 secs

     total energy              =     -95.10644720 Ry
     Harris-Foulkes estimate   =     -95.10648039 Ry
     estimated scf accuracy    <       0.00009638 Ry

     iteration #  4     ecut=    40.00 Ry     beta=0.70
     Davidson diagonalization with overlap
     ethr =  1.07E-06,  avg # of iterations =  1.0

     total cpu time spent up to now is       36.4 secs

     total energy              =     -95.10643934 Ry
     Harris-Foulkes estimate   =     -95.10645159 Ry
     estimated scf accuracy    <       0.00003094 Ry

     iteration #  5     ecut=    40.00 Ry     beta=0.70
     Davidson diagonalization with overlap
     ethr =  3.44E-07,  avg # of iterations =  1.0

     total cpu time spent up to now is       37.8 secs

     total energy              =     -95.10643894 Ry
     Harris-Foulkes estimate   =     -95.10644109 Ry
     estimated scf accuracy    <       0.00000780 Ry

     iteration #  6     ecut=    40.00 Ry     beta=0.70
     Davidson diagonalization with overlap
     ethr =  8.67E-08,  avg # of iterations =  1.0

     total cpu time spent up to now is       39.2 secs

     total energy              =     -95.10643927 Ry
     Harris-Foulkes estimate   =     -95.10643919 Ry
     estimated scf accuracy    <       0.00000354 Ry

     iteration #  7     ecut=    40.00 Ry     beta=0.70
     Davidson diagonalization with overlap
     ethr =  3.94E-08,  avg # of iterations =  1.0

     total cpu time spent up to now is       40.6 secs

     total energy              =     -95.10643698 Ry
     Harris-Foulkes estimate   =     -95.10643928 Ry
     estimated scf accuracy    <       0.00000386 Ry

     iteration #  8     ecut=    40.00 Ry     beta=0.70
     Davidson diagonalization with overlap
     ethr =  3.94E-08,  avg # of iterations =  2.0

     total cpu time spent up to now is       42.2 secs

     total energy              =     -95.10643752 Ry
     Harris-Foulkes estimate   =     -95.10643757 Ry
     estimated scf accuracy    <       0.00000010 Ry

     iteration #  9     ecut=    40.00 Ry     beta=0.70
     Davidson diagonalization with overlap
     ethr =  1.07E-09,  avg # of iterations =  1.4

     total cpu time spent up to now is       43.6 secs

     total energy              =     -95.10643753 Ry
     Harris-Foulkes estimate   =     -95.10643753 Ry
     estimated scf accuracy    <       0.00000001 Ry

     iteration # 10     ecut=    40.00 Ry     beta=0.70
     Davidson diagonalization with overlap
     ethr =  1.36E-10,  avg # of iterations =  1.0

     total cpu time spent up to now is       45.0 secs

     total energy              =     -95.10643753 Ry
     Harris-Foulkes estimate   =     -95.10643753 Ry
     estimated scf accuracy    <       0.00000001 Ry

     iteration # 11     ecut=    40.00 Ry     beta=0.70
     Davidson diagonalization with overlap
     ethr =  1.36E-10,  avg # of iterations =  1.0

     total cpu time spent up to now is       46.4 secs

     total energy              =     -95.10643753 Ry
     Harris-Foulkes estimate   =     -95.10643753 Ry
     estimated scf accuracy    <          6.2E-09 Ry

     iteration # 12     ecut=    40.00 Ry     beta=0.70
     Davidson diagonalization with overlap
     ethr =  6.90E-11,  avg # of iterations =  1.0

     total cpu time spent up to now is       47.8 secs

     total energy              =     -95.10643753 Ry
     Harris-Foulkes estimate   =     -95.10643753 Ry
     estimated scf accuracy    <          1.1E-09 Ry

     iteration # 13     ecut=    40.00 Ry     beta=0.70
     Davidson diagonalization with overlap
     ethr =  1.25E-11,  avg # of iterations =  1.0

     total cpu time spent up to now is       49.2 secs

     total energy              =     -95.10643753 Ry
     Harris-Foulkes estimate   =     -95.10643753 Ry
     estimated scf accuracy    <          1.9E-09 Ry

     iteration # 14     ecut=    40.00 Ry     beta=0.70
     Davidson diagonalization with overlap
     ethr =  1.25E-11,  avg # of iterations =  2.0

     total cpu time spent up to now is       50.8 secs

     total energy              =     -95.10643753 Ry
     Harris-Foulkes estimate   =     -95.10643753 Ry
     estimated scf accuracy    <          6.0E-10 Ry

     iteration # 15     ecut=    40.00 Ry     beta=0.70
     Davidson diagonalization with overlap
     ethr =  6.66E-12,  avg # of iterations =  1.0

     total cpu time spent up to now is       52.1 secs

     total energy              =     -95.10643753 Ry
     Harris-Foulkes estimate   =     -95.10643753 Ry
     estimated scf accuracy    <          3.2E-10 Ry

     iteration # 16     ecut=    40.00 Ry     beta=0.70
     Davidson diagonalization with overlap
     ethr =  3.51E-12,  avg # of iterations =  1.0

     total cpu time spent up to now is       53.5 secs

     total energy              =     -95.10643753 Ry
     Harris-Foulkes estimate   =     -95.10643753 Ry
     estimated scf accuracy    <          1.8E-10 Ry

     iteration # 17     ecut=    40.00 Ry     beta=0.70
     Davidson diagonalization with overlap
     ethr =  1.98E-12,  avg # of iterations =  1.0

     total cpu time spent up to now is       54.9 secs

     total energy              =     -95.10643753 Ry
     Harris-Foulkes estimate   =     -95.10643753 Ry
     estimated scf accuracy    <          1.1E-10 Ry

     iteration # 18     ecut=    40.00 Ry     beta=0.70
     Davidson diagonalization with overlap
     ethr =  1.24E-12,  avg # of iterations =  1.0

     total cpu time spent up to now is       56.3 secs

     End of self-consistent calculation

     Number of k-points >= 100: set verbosity='high' to print the bands.

     the Fermi energy is     1.4877 ev

!    total energy              =     -95.10643753 Ry
     Harris-Foulkes estimate   =     -95.10643753 Ry
     estimated scf accuracy    <          1.2E-11 Ry

     The total energy is the sum of the following terms:

     one-electron contribution =     -88.76664319 Ry
     hartree contribution      =      44.69883595 Ry
     xc contribution           =     -14.26473874 Ry
     ewald contribution        =     -36.77380043 Ry
     smearing contrib. (-TS)   =      -0.00009111 Ry

     convergence has been achieved in  18 iterations

     Forces acting on atoms (cartesian axes, Ry/au):

     atom    1 type  1   force =     0.00000000    0.00000000    0.00000000

     Total force =     0.000000     Total SCF correction =     0.000000


     Computing stress (Cartesian axis) and pressure

          total   stress  (Ry/bohr**3)                   (kbar)     P=   -5.08
  -0.00003451   0.00000000  -0.00000000         -5.08      0.00     -0.00
   0.00000000  -0.00003451   0.00000000          0.00     -5.08      0.00
  -0.00000000   0.00000000  -0.00003451         -0.00      0.00     -5.08


     number of scf cycles    =   3
     number of bfgs steps    =   2

     enthalpy old            =     -95.1239169584 Ry
     enthalpy new            =     -95.1239445232 Ry

     CASE: enthalpy_new < enthalpy_old

     new trust radius        =       0.0050261056 bohr
     new conv_thr            =            1.0E-10 Ry

     new unit-cell volume =    258.74856 a.u.^3 (    38.34258 Ang^3 )
     density =      0.99565 g/cm^3

CELL_PARAMETERS (alat=  8.00000000)
   0.501783059   0.501783059   0.501783059
  -0.501783059   0.501783059   0.501783059
  -0.501783059  -0.501783059   0.501783059

ATOMIC_POSITIONS (crystal)
Na       0.000000000   0.000000000   0.000000000



     Writing output data file na.bcc.save
     NEW-OLD atomic charge density approx. for the potential
     extrapolated charge    9.04212, renormalised to    9.00000

     total cpu time spent up to now is       57.7 secs

     per-process dynamical memory:    31.4 Mb

     Self-consistent Calculation

     iteration #  1     ecut=    40.00 Ry     beta=0.70
     Davidson diagonalization with overlap
     ethr =  1.00E-06,  avg # of iterations =  2.3

     total cpu time spent up to now is       59.7 secs

     total energy              =     -95.10519745 Ry
     Harris-Foulkes estimate   =     -94.77408801 Ry
     estimated scf accuracy    <       0.00066743 Ry

     iteration #  2     ecut=    40.00 Ry     beta=0.70
     Davidson diagonalization with overlap
     ethr =  7.42E-06,  avg # of iterations =  3.0

     total cpu time spent up to now is       61.8 secs

     total energy              =     -95.10641810 Ry
     Harris-Foulkes estimate   =     -95.10690887 Ry
     estimated scf accuracy    <       0.00111783 Ry

     iteration #  3     ecut=    40.00 Ry     beta=0.70
     Davidson diagonalization with overlap
     ethr =  7.42E-06,  avg # of iterations =  1.8

     total cpu time spent up to now is       63.3 secs

     total energy              =     -95.10641573 Ry
     Harris-Foulkes estimate   =     -95.10649124 Ry
     estimated scf accuracy    <       0.00021839 Ry

     iteration #  4     ecut=    40.00 Ry     beta=0.70
     Davidson diagonalization with overlap
     ethr =  2.43E-06,  avg # of iterations =  1.0

     total cpu time spent up to now is       64.7 secs

     total energy              =     -95.10639732 Ry
     Harris-Foulkes estimate   =     -95.10642570 Ry
     estimated scf accuracy    <       0.00006984 Ry

     iteration #  5     ecut=    40.00 Ry     beta=0.70
     Davidson diagonalization with overlap
     ethr =  7.76E-07,  avg # of iterations =  1.0

     total cpu time spent up to now is       66.1 secs

     total energy              =     -95.10639695 Ry
     Harris-Foulkes estimate   =     -95.10640148 Ry
     estimated scf accuracy    <       0.00001657 Ry

     iteration #  6     ecut=    40.00 Ry     beta=0.70
     Davidson diagonalization with overlap
     ethr =  1.84E-07,  avg # of iterations =  1.0

     total cpu time spent up to now is       67.5 secs

     total energy              =     -95.10639752 Ry
     Harris-Foulkes estimate   =     -95.10639750 Ry
     estimated scf accuracy    <       0.00000759 Ry

     iteration #  7     ecut=    40.00 Ry     beta=0.70
     Davidson diagonalization with overlap
     ethr =  8.44E-08,  avg # of iterations =  1.0

     total cpu time spent up to now is       68.9 secs

     total energy              =     -95.10639266 Ry
     Harris-Foulkes estimate   =     -95.10639753 Ry
     estimated scf accuracy    <       0.00000789 Ry

     iteration #  8     ecut=    40.00 Ry     beta=0.70
     Davidson diagonalization with overlap
     ethr =  8.44E-08,  avg # of iterations =  2.0

     total cpu time spent up to now is       70.6 secs

     total energy              =     -95.10639394 Ry
     Harris-Foulkes estimate   =     -95.10639399 Ry
     estimated scf accuracy    <       0.00000011 Ry

     iteration #  9     ecut=    40.00 Ry     beta=0.70
     Davidson diagonalization with overlap
     ethr =  1.26E-09,  avg # of iterations =  1.8

     total cpu time spent up to now is       72.0 secs

     total energy              =     -95.10639396 Ry
     Harris-Foulkes estimate   =     -95.10639395 Ry
     estimated scf accuracy    <       0.00000002 Ry

     iteration # 10     ecut=    40.00 Ry     beta=0.70
     Davidson diagonalization with overlap
     ethr =  1.82E-10,  avg # of iterations =  1.0

     total cpu time spent up to now is       73.4 secs

     total energy              =     -95.10639394 Ry
     Harris-Foulkes estimate   =     -95.10639396 Ry
     estimated scf accuracy    <       0.00000003 Ry

     iteration # 11     ecut=    40.00 Ry     beta=0.70
     Davidson diagonalization with overlap
     ethr =  1.82E-10,  avg # of iterations =  2.0

     total cpu time spent up to now is       75.0 secs

     total energy              =     -95.10639395 Ry
     Harris-Foulkes estimate   =     -95.10639395 Ry
     estimated scf accuracy    <          4.5E-09 Ry

     iteration # 12     ecut=    40.00 Ry     beta=0.70
     Davidson diagonalization with overlap
     ethr =  4.96E-11,  avg # of iterations =  1.0

     total cpu time spent up to now is       76.4 secs

     total energy              =     -95.10639394 Ry
     Harris-Foulkes estimate   =     -95.10639395 Ry
     estimated scf accuracy    <          3.7E-09 Ry

     iteration # 13     ecut=    40.00 Ry     beta=0.70
     Davidson diagonalization with overlap
     ethr =  4.14E-11,  avg # of iterations =  2.0

     total cpu time spent up to now is       78.1 secs

     End of self-consistent calculation

     Number of k-points >= 100: set verbosity='high' to print the bands.

     the Fermi energy is     1.4688 ev

!    total energy              =     -95.10639394 Ry
     Harris-Foulkes estimate   =     -95.10639394 Ry
     estimated scf accuracy    <          5.1E-11 Ry

     The total energy is the sum of the following terms:

     one-electron contribution =     -88.86770513 Ry
     hartree contribution      =      44.74184878 Ry
     xc contribution           =     -14.26414273 Ry
     ewald contribution        =     -36.71630399 Ry
     smearing contrib. (-TS)   =      -0.00009087 Ry

     convergence has been achieved in  13 iterations

     Forces acting on atoms (cartesian axes, Ry/au):

     atom    1 type  1   force =     0.00000000    0.00000000    0.00000000

     Total force =     0.000000     Total SCF correction =     0.000000


     Computing stress (Cartesian axis) and pressure

          total   stress  (Ry/bohr**3)                   (kbar)     P=   -5.43
  -0.00003693  -0.00000000   0.00000000         -5.43     -0.00      0.00
  -0.00000000  -0.00003693  -0.00000000         -0.00     -5.43     -0.00
   0.00000000  -0.00000000  -0.00003693          0.00     -0.00     -5.43


     number of scf cycles    =   4
     number of bfgs steps    =   3

     enthalpy old            =     -95.1239445232 Ry
     enthalpy new            =     -95.1239833172 Ry

     CASE: enthalpy_new < enthalpy_old

     new trust radius        =       0.0075450591 bohr
     new conv_thr            =            1.0E-10 Ry

     new unit-cell volume =    260.57334 a.u.^3 (    38.61298 Ang^3 )
     density =      0.98868 g/cm^3

CELL_PARAMETERS (alat=  8.00000000)
   0.502959878   0.502959878   0.502959878
  -0.502959878   0.502959878   0.502959878
  -0.502959878  -0.502959878   0.502959878

ATOMIC_POSITIONS (crystal)
Na       0.000000000   0.000000000   0.000000000



     Writing output data file na.bcc.save
     NEW-OLD atomic charge density approx. for the potential
     extrapolated charge    9.06298, renormalised to    9.00000

     total cpu time spent up to now is       79.7 secs

     per-process dynamical memory:    31.4 Mb

     Self-consistent Calculation

     iteration #  1     ecut=    40.00 Ry     beta=0.70
     Davidson diagonalization with overlap
     ethr =  1.00E-06,  avg # of iterations =  3.0

     total cpu time spent up to now is       81.8 secs

     total energy              =     -95.10362310 Ry
     Harris-Foulkes estimate   =     -94.60832615 Ry
     estimated scf accuracy    <       0.00150514 Ry

     iteration #  2     ecut=    40.00 Ry     beta=0.70
     Davidson diagonalization with overlap
     ethr =  1.67E-05,  avg # of iterations =  3.0

     total cpu time spent up to now is       83.9 secs

     total energy              =     -95.10637902 Ry
     Harris-Foulkes estimate   =     -95.10748584 Ry
     estimated scf accuracy    <       0.00252113 Ry

     iteration #  3     ecut=    40.00 Ry     beta=0.70
     Davidson diagonalization with overlap
     ethr =  1.67E-05,  avg # of iterations =  1.8

     total cpu time spent up to now is       85.5 secs

     total energy              =     -95.10637301 Ry
     Harris-Foulkes estimate   =     -95.10654308 Ry
     estimated scf accuracy    <       0.00049533 Ry

     iteration #  4     ecut=    40.00 Ry     beta=0.70
     Davidson diagonalization with overlap
     ethr =  5.50E-06,  avg # of iterations =  1.0

     total cpu time spent up to now is       86.9 secs

     total energy              =     -95.10633135 Ry
     Harris-Foulkes estimate   =     -95.10639542 Ry
     estimated scf accuracy    <       0.00016014 Ry

     iteration #  5     ecut=    40.00 Ry     beta=0.70
     Davidson diagonalization with overlap
     ethr =  1.78E-06,  avg # of iterations =  1.0

     total cpu time spent up to now is       88.3 secs

     total energy              =     -95.10632904 Ry
     Harris-Foulkes estimate   =     -95.10634052 Ry
     estimated scf accuracy    <       0.00003958 Ry

     iteration #  6     ecut=    40.00 Ry     beta=0.70
     Davidson diagonalization with overlap
     ethr =  4.40E-07,  avg # of iterations =  1.0

     total cpu time spent up to now is       89.7 secs

     total energy              =     -95.10633044 Ry
     Harris-Foulkes estimate   =     -95.10633040 Ry
     estimated scf accuracy    <       0.00001693 Ry

     iteration #  7     ecut=    40.00 Ry     beta=0.70
     Davidson diagonalization with overlap
     ethr =  1.88E-07,  avg # of iterations =  1.0

     total cpu time spent up to now is       91.0 secs

     total energy              =     -95.10632679 Ry
     Harris-Foulkes estimate   =     -95.10633049 Ry
     estimated scf accuracy    <       0.00001772 Ry

     iteration #  8     ecut=    40.00 Ry     beta=0.70
     Davidson diagonalization with overlap
     ethr =  1.88E-07,  avg # of iterations =  1.0

     total cpu time spent up to now is       92.4 secs

     total energy              =     -95.10632109 Ry
     Harris-Foulkes estimate   =     -95.10632704 Ry
     estimated scf accuracy    <       0.00001044 Ry

     iteration #  9     ecut=    40.00 Ry     beta=0.70
     Davidson diagonalization with overlap
     ethr =  1.16E-07,  avg # of iterations =  2.0

     total cpu time spent up to now is       94.0 secs

     total energy              =     -95.10632357 Ry
     Harris-Foulkes estimate   =     -95.10632269 Ry
     estimated scf accuracy    <       0.00000067 Ry

     iteration # 10     ecut=    40.00 Ry     beta=0.70
     Davidson diagonalization with overlap
     ethr =  7.44E-09,  avg # of iterations =  2.0

     total cpu time spent up to now is       95.7 secs

     total energy              =     -95.10634973 Ry
     Harris-Foulkes estimate   =     -95.10632376 Ry
     estimated scf accuracy    <       0.00000334 Ry

     iteration # 11     ecut=    40.00 Ry     beta=0.70
     Davidson diagonalization with overlap
     ethr =  7.44E-09,  avg # of iterations =  3.0

     total cpu time spent up to now is       97.6 secs

     total energy              =     -95.10630036 Ry
     Harris-Foulkes estimate   =     -95.10637742 Ry
     estimated scf accuracy    <       0.00013260 Ry

     iteration # 12     ecut=    40.00 Ry     beta=0.70
     Davidson diagonalization with overlap
     ethr =  7.44E-09,  avg # of iterations =  3.0

     total cpu time spent up to now is       99.6 secs

     total energy              =     -95.10635459 Ry
     Harris-Foulkes estimate   =     -95.10632246 Ry
     estimated scf accuracy    <       0.00000007 Ry

     iteration # 13     ecut=    40.00 Ry     beta=0.70
     Davidson diagonalization with overlap
     ethr =  7.99E-10,  avg # of iterations =  3.0

     total cpu time spent up to now is      101.7 secs

     total energy              =     -95.10632213 Ry
     Harris-Foulkes estimate   =     -95.10637419 Ry
     estimated scf accuracy    <       0.00012365 Ry

     iteration # 14     ecut=    40.00 Ry     beta=0.70
     Davidson diagonalization with overlap
     ethr =  7.99E-10,  avg # of iterations =  3.0

     total cpu time spent up to now is      103.7 secs

     total energy              =     -95.10631791 Ry
     Harris-Foulkes estimate   =     -95.10632991 Ry
     estimated scf accuracy    <       0.00001779 Ry

     iteration # 15     ecut=    40.00 Ry     beta=0.70
     Davidson diagonalization with overlap
     ethr =  7.99E-10,  avg # of iterations =  3.0

     total cpu time spent up to now is      105.8 secs

     total energy              =     -95.10632203 Ry
     Harris-Foulkes estimate   =     -95.10632351 Ry
     estimated scf accuracy    <       0.00000253 Ry

     iteration # 16     ecut=    40.00 Ry     beta=0.70
     Davidson diagonalization with overlap
     ethr =  7.99E-10,  avg # of iterations =  3.0

     total cpu time spent up to now is      107.8 secs

     End of self-consistent calculation

     Number of k-points >= 100: set verbosity='high' to print the bands.

     the Fermi energy is     1.4407 ev

!    total energy              =     -95.10632245 Ry
     Harris-Foulkes estimate   =     -95.10632245 Ry
     estimated scf accuracy    <          9.4E-12 Ry

     The total energy is the sum of the following terms:

     one-electron contribution =     -89.01867851 Ry
     hartree contribution      =      44.80608362 Ry
     xc contribution           =     -14.26324138 Ry
     ewald contribution        =     -36.63039566 Ry
     smearing contrib. (-TS)   =      -0.00009052 Ry

     convergence has been achieved in  16 iterations

     Forces acting on atoms (cartesian axes, Ry/au):

     atom    1 type  1   force =     0.00000000    0.00000000    0.00000000

     Total force =     0.000000     Total SCF correction =     0.000000


     Computing stress (Cartesian axis) and pressure

          total   stress  (Ry/bohr**3)                   (kbar)     P=   -6.06
  -0.00004121   0.00000000  -0.00000000         -6.06      0.00     -0.00
   0.00000000  -0.00004121   0.00000000          0.00     -6.06      0.00
  -0.00000000   0.00000000  -0.00004121         -0.00      0.00     -6.06


     number of scf cycles    =   5
     number of bfgs steps    =   4

     enthalpy old            =     -95.1239833172 Ry
     enthalpy new            =     -95.1240358638 Ry

     CASE: enthalpy_new < enthalpy_old

     new trust radius        =       0.0113308523 bohr
     new conv_thr            =            1.0E-10 Ry

     new unit-cell volume =    263.32657 a.u.^3 (    39.02097 Ang^3 )
     density =      0.97834 g/cm^3

CELL_PARAMETERS (alat=  8.00000000)
   0.504725107   0.504725107   0.504725107
  -0.504725107   0.504725107   0.504725107
  -0.504725107  -0.504725107   0.504725107

ATOMIC_POSITIONS (crystal)
Na       0.000000000   0.000000000   0.000000000



     Writing output data file na.bcc.save
     NEW-OLD atomic charge density approx. for the potential
     extrapolated charge    9.09403, renormalised to    9.00000

     total cpu time spent up to now is      109.2 secs

     per-process dynamical memory:    31.4 Mb

     Self-consistent Calculation

     iteration #  1     ecut=    40.00 Ry     beta=0.70
     Davidson diagonalization with overlap
     ethr =  1.00E-06,  avg # of iterations =  3.4

     total cpu time spent up to now is      111.6 secs

     total energy              =     -95.10010463 Ry
     Harris-Foulkes estimate   =     -94.36026238 Ry
     estimated scf accuracy    <       0.00339702 Ry

     iteration #  2     ecut=    40.00 Ry     beta=0.70
     Davidson diagonalization with overlap
     ethr =  3.77E-05,  avg # of iterations =  3.0

     total cpu time spent up to now is      113.6 secs

     total energy              =     -95.10633673 Ry
     Harris-Foulkes estimate   =     -95.10883554 Ry
     estimated scf accuracy    <       0.00569234 Ry

     iteration #  3     ecut=    40.00 Ry     beta=0.70
     Davidson diagonalization with overlap
     ethr =  3.77E-05,  avg # of iterations =  1.8

     total cpu time spent up to now is      115.1 secs

     total energy              =     -95.10631915 Ry
     Harris-Foulkes estimate   =     -95.10670416 Ry
     estimated scf accuracy    <       0.00112758 Ry

     iteration #  4     ecut=    40.00 Ry     beta=0.70
     Davidson diagonalization with overlap
     ethr =  1.25E-05,  avg # of iterations =  1.0

     total cpu time spent up to now is      116.6 secs

     total energy              =     -95.10622403 Ry
     Harris-Foulkes estimate   =     -95.10636980 Ry
     estimated scf accuracy    <       0.00036792 Ry

     iteration #  5     ecut=    40.00 Ry     beta=0.70
     Davidson diagonalization with overlap
     ethr =  4.09E-06,  avg # of iterations =  1.0

     total cpu time spent up to now is      117.9 secs

     total energy              =     -95.10621559 Ry
     Harris-Foulkes estimate   =     -95.10624450 Ry
     estimated scf accuracy    <       0.00009347 Ry

     iteration #  6     ecut=    40.00 Ry     beta=0.70
     Davidson diagonalization with overlap
     ethr =  1.04E-06,  avg # of iterations =  1.0

     total cpu time spent up to now is      119.3 secs

     total energy              =     -95.10621633 Ry
     Harris-Foulkes estimate   =     -95.10621905 Ry
     estimated scf accuracy    <       0.00003682 Ry

     iteration #  7     ecut=    40.00 Ry     beta=0.70
     Davidson diagonalization with overlap
     ethr =  4.09E-07,  avg # of iterations =  1.0

     total cpu time spent up to now is      120.7 secs

     total energy              =     -95.10619418 Ry
     Harris-Foulkes estimate   =     -95.10621648 Ry
     estimated scf accuracy    <       0.00003283 Ry

     iteration #  8     ecut=    40.00 Ry     beta=0.70
     Davidson diagonalization with overlap
     ethr =  3.65E-07,  avg # of iterations =  2.0

     total cpu time spent up to now is      122.4 secs

     total energy              =     -95.10620169 Ry
     Harris-Foulkes estimate   =     -95.10620177 Ry
     estimated scf accuracy    <       0.00000019 Ry

     iteration #  9     ecut=    40.00 Ry     beta=0.70
     Davidson diagonalization with overlap
     ethr =  2.10E-09,  avg # of iterations =  2.0

     total cpu time spent up to now is      124.0 secs

     total energy              =     -95.10620175 Ry
     Harris-Foulkes estimate   =     -95.10620172 Ry
     estimated scf accuracy    <       0.00000003 Ry

     iteration # 10     ecut=    40.00 Ry     beta=0.70
     Davidson diagonalization with overlap
     ethr =  3.45E-10,  avg # of iterations =  2.0

     total cpu time spent up to now is      125.7 secs

     total energy              =     -95.10620173 Ry
     Harris-Foulkes estimate   =     -95.10620177 Ry
     estimated scf accuracy    <       0.00000013 Ry

     iteration # 11     ecut=    40.00 Ry     beta=0.70
     Davidson diagonalization with overlap
     ethr =  3.45E-10,  avg # of iterations =  1.2

     total cpu time spent up to now is      127.1 secs

     total energy              =     -95.10620171 Ry
     Harris-Foulkes estimate   =     -95.10620174 Ry
     estimated scf accuracy    <       0.00000007 Ry

     iteration # 12     ecut=    40.00 Ry     beta=0.70
     Davidson diagonalization with overlap
     ethr =  3.45E-10,  avg # of iterations =  2.0

     total cpu time spent up to now is      128.8 secs

     total energy              =     -95.10620171 Ry
     Harris-Foulkes estimate   =     -95.10620171 Ry
     estimated scf accuracy    <       0.00000002 Ry

     iteration # 13     ecut=    40.00 Ry     beta=0.70
     Davidson diagonalization with overlap
     ethr =  1.74E-10,  avg # of iterations =  2.0

     total cpu time spent up to now is      130.4 secs

     End of self-consistent calculation

     Number of k-points >= 100: set verbosity='high' to print the bands.

     the Fermi energy is     1.3991 ev

!    total energy              =     -95.10620171 Ry
     Harris-Foulkes estimate   =     -95.10620171 Ry
     estimated scf accuracy    <          6.9E-12 Ry

     The total energy is the sum of the following terms:

     one-electron contribution =     -89.24394658 Ry
     hartree contribution      =      44.90203432 Ry
     xc contribution           =     -14.26191515 Ry
     ewald contribution        =     -36.50228430 Ry
     smearing contrib. (-TS)   =      -0.00008999 Ry

     convergence has been achieved in  13 iterations

     Forces acting on atoms (cartesian axes, Ry/au):

     atom    1 type  1   force =     0.00000000    0.00000000    0.00000000

     Total force =     0.000000     Total SCF correction =     0.000000


     Computing stress (Cartesian axis) and pressure

          total   stress  (Ry/bohr**3)                   (kbar)     P=   -6.86
  -0.00004665   0.00000000  -0.00000000         -6.86      0.00     -0.00
   0.00000000  -0.00004665   0.00000000          0.00     -6.86      0.00
  -0.00000000   0.00000000  -0.00004665         -0.00      0.00     -6.86


     number of scf cycles    =   6
     number of bfgs steps    =   5

     enthalpy old            =     -95.1240358638 Ry
     enthalpy new            =     -95.1241022875 Ry

     CASE: enthalpy_new < enthalpy_old

     new trust radius        =       0.0170260780 bohr
     new conv_thr            =            1.0E-10 Ry

     new unit-cell volume =    267.49267 a.u.^3 (    39.63832 Ang^3 )
     density =      0.96310 g/cm^3

CELL_PARAMETERS (alat=  8.00000000)
   0.507372949   0.507372949   0.507372949
  -0.507372949   0.507372949   0.507372949
  -0.507372949  -0.507372949   0.507372949

ATOMIC_POSITIONS (crystal)
Na       0.000000000   0.000000000   0.000000000



     Writing output data file na.bcc.save
     NEW-OLD atomic charge density approx. for the potential
     extrapolated charge    9.14007, renormalised to    9.00000

     total cpu time spent up to now is      131.9 secs

     per-process dynamical memory:    31.4 Mb

     Self-consistent Calculation

     iteration #  1     ecut=    40.00 Ry     beta=0.70
     Davidson diagonalization with overlap
     ethr =  1.00E-06,  avg # of iterations =  3.8

     total cpu time spent up to now is      134.4 secs

     total energy              =     -95.09218856 Ry
     Harris-Foulkes estimate   =     -93.98950364 Ry
     estimated scf accuracy    <       0.00768456 Ry

     iteration #  2     ecut=    40.00 Ry     beta=0.70
     Davidson diagonalization with overlap
     ethr =  8.54E-05,  avg # of iterations =  3.0

     total cpu time spent up to now is      136.5 secs

     total energy              =     -95.10632068 Ry
     Harris-Foulkes estimate   =     -95.11197356 Ry
     estimated scf accuracy    <       0.01287671 Ry

     iteration #  3     ecut=    40.00 Ry     beta=0.70
     Davidson diagonalization with overlap
     ethr =  8.54E-05,  avg # of iterations =  1.7

     total cpu time spent up to now is      138.0 secs

     total energy              =     -95.10626666 Ry
     Harris-Foulkes estimate   =     -95.10714199 Ry
     estimated scf accuracy    <       0.00258100 Ry

     iteration #  4     ecut=    40.00 Ry     beta=0.70
     Davidson diagonalization with overlap
     ethr =  2.87E-05,  avg # of iterations =  1.0

     total cpu time spent up to now is      139.4 secs

     total energy              =     -95.10604857 Ry
     Harris-Foulkes estimate   =     -95.10638180 Ry
     estimated scf accuracy    <       0.00085135 Ry

     iteration #  5     ecut=    40.00 Ry     beta=0.70
     Davidson diagonalization with overlap
     ethr =  9.46E-06,  avg # of iterations =  1.0

     total cpu time spent up to now is      140.8 secs

     total energy              =     -95.10601927 Ry
     Harris-Foulkes estimate   =     -95.10609419 Ry
     estimated scf accuracy    <       0.00022388 Ry

     iteration #  6     ecut=    40.00 Ry     beta=0.70
     Davidson diagonalization with overlap
     ethr =  2.49E-06,  avg # of iterations =  1.0

     total cpu time spent up to now is      142.2 secs

     total energy              =     -95.10600759 Ry
     Harris-Foulkes estimate   =     -95.10602844 Ry
     estimated scf accuracy    <       0.00007895 Ry

     iteration #  7     ecut=    40.00 Ry     beta=0.70
     Davidson diagonalization with overlap
     ethr =  8.77E-07,  avg # of iterations =  1.0

     total cpu time spent up to now is      143.6 secs

     total energy              =     -95.10598411 Ry
     Harris-Foulkes estimate   =     -95.10600925 Ry
     estimated scf accuracy    <       0.00003827 Ry

     iteration #  8     ecut=    40.00 Ry     beta=0.70
     Davidson diagonalization with overlap
     ethr =  4.25E-07,  avg # of iterations =  2.0

     total cpu time spent up to now is      145.3 secs

     total energy              =     -95.10599129 Ry
     Harris-Foulkes estimate   =     -95.10599133 Ry
     estimated scf accuracy    <       0.00000010 Ry

     iteration #  9     ecut=    40.00 Ry     beta=0.70
     Davidson diagonalization with overlap
     ethr =  1.12E-09,  avg # of iterations =  1.8

     total cpu time spent up to now is      146.8 secs

     total energy              =     -95.10599134 Ry
     Harris-Foulkes estimate   =     -95.10599130 Ry
     estimated scf accuracy    <       0.00000003 Ry

     iteration # 10     ecut=    40.00 Ry     beta=0.70
     Davidson diagonalization with overlap
     ethr =  3.76E-10,  avg # of iterations =  2.0

     total cpu time spent up to now is      148.4 secs

     total energy              =     -95.10599127 Ry
     Harris-Foulkes estimate   =     -95.10599135 Ry
     estimated scf accuracy    <       0.00000013 Ry

     iteration # 11     ecut=    40.00 Ry     beta=0.70
     Davidson diagonalization with overlap
     ethr =  3.76E-10,  avg # of iterations =  2.0

     total cpu time spent up to now is      150.1 secs

     total energy              =     -95.10599129 Ry
     Harris-Foulkes estimate   =     -95.10599129 Ry
     estimated scf accuracy    <          2.5E-09 Ry

     iteration # 12     ecut=    40.00 Ry     beta=0.70
     Davidson diagonalization with overlap
     ethr =  2.81E-11,  avg # of iterations =  1.0

     total cpu time spent up to now is      151.5 secs

     End of self-consistent calculation

     Number of k-points >= 100: set verbosity='high' to print the bands.

     the Fermi energy is     1.3378 ev

!    total energy              =     -95.10599129 Ry
     Harris-Foulkes estimate   =     -95.10599129 Ry
     estimated scf accuracy    <          4.7E-11 Ry

     The total energy is the sum of the following terms:

     one-electron contribution =     -89.57902523 Ry
     hartree contribution      =      45.04485756 Ry
     xc contribution           =     -14.25994570 Ry
     ewald contribution        =     -36.31178871 Ry
     smearing contrib. (-TS)   =      -0.00008922 Ry

     convergence has been achieved in  12 iterations

     Forces acting on atoms (cartesian axes, Ry/au):

     atom    1 type  1   force =     0.00000000    0.00000000    0.00000000

     Total force =     0.000000     Total SCF correction =     0.000000


     Computing stress (Cartesian axis) and pressure

          total   stress  (Ry/bohr**3)                   (kbar)     P=   -8.03
  -0.00005462   0.00000000  -0.00000000         -8.03      0.00     -0.00
   0.00000000  -0.00005462   0.00000000          0.00     -8.03      0.00
  -0.00000000   0.00000000  -0.00005462         -0.00      0.00     -8.03


     number of scf cycles    =   7
     number of bfgs steps    =   6

     enthalpy old            =     -95.1241022875 Ry
     enthalpy new            =     -95.1241750737 Ry

     CASE: enthalpy_new < enthalpy_old

     new trust radius        =       0.0256060199 bohr
     new conv_thr            =            1.0E-10 Ry

     new unit-cell volume =    273.82384 a.u.^3 (    40.57651 Ang^3 )
     density =      0.94083 g/cm^3

CELL_PARAMETERS (alat=  8.00000000)
   0.511344714   0.511344714   0.511344714
  -0.511344714   0.511344714   0.511344714
  -0.511344714  -0.511344714   0.511344714

ATOMIC_POSITIONS (crystal)
Na       0.000000000   0.000000000   0.000000000



     Writing output data file na.bcc.save
     NEW-OLD atomic charge density approx. for the potential
     extrapolated charge    9.20795, renormalised to    9.00000

     total cpu time spent up to now is      153.0 secs

     per-process dynamical memory:    31.4 Mb

     Self-consistent Calculation

     iteration #  1     ecut=    40.00 Ry     beta=0.70
     Davidson diagonalization with overlap
     ethr =  1.00E-06,  avg # of iterations =  4.2

     total cpu time spent up to now is      155.6 secs

     total energy              =     -95.07425634 Ry
     Harris-Foulkes estimate   =     -93.43647699 Ry
     estimated scf accuracy    <       0.01744177 Ry

     iteration #  2     ecut=    40.00 Ry     beta=0.70
     Davidson diagonalization with overlap
     ethr =  1.94E-04,  avg # of iterations =  3.0

     total cpu time spent up to now is      157.7 secs

     total energy              =     -95.10644132 Ry
     Harris-Foulkes estimate   =     -95.11926878 Ry
     estimated scf accuracy    <       0.02921490 Ry

     iteration #  3     ecut=    40.00 Ry     beta=0.70
     Davidson diagonalization with overlap
     ethr =  1.94E-04,  avg # of iterations =  1.6

     total cpu time spent up to now is      159.1 secs

     total energy              =     -95.10626079 Ry
     Harris-Foulkes estimate   =     -95.10827224 Ry
     estimated scf accuracy    <       0.00595680 Ry

     iteration #  4     ecut=    40.00 Ry     beta=0.70
     Davidson diagonalization with overlap
     ethr =  6.62E-05,  avg # of iterations =  1.0

     total cpu time spent up to now is      160.5 secs

     total energy              =     -95.10576184 Ry
     Harris-Foulkes estimate   =     -95.10652620 Ry
     estimated scf accuracy    <       0.00197899 Ry

     iteration #  5     ecut=    40.00 Ry     beta=0.70
     Davidson diagonalization with overlap
     ethr =  2.20E-05,  avg # of iterations =  1.0

     total cpu time spent up to now is      161.8 secs

     total energy              =     -95.10566216 Ry
     Harris-Foulkes estimate   =     -95.10586326 Ry
     estimated scf accuracy    <       0.00054099 Ry

     iteration #  6     ecut=    40.00 Ry     beta=0.70
     Davidson diagonalization with overlap
     ethr =  6.01E-06,  avg # of iterations =  1.0

     total cpu time spent up to now is      163.1 secs

     total energy              =     -95.10560949 Ry
     Harris-Foulkes estimate   =     -95.10568818 Ry
     estimated scf accuracy    <       0.00016028 Ry

     iteration #  7     ecut=    40.00 Ry     beta=0.70
     Davidson diagonalization with overlap
     ethr =  1.78E-06,  avg # of iterations =  1.2

     total cpu time spent up to now is      164.5 secs

     total energy              =     -95.10560870 Ry
     Harris-Foulkes estimate   =     -95.10562274 Ry
     estimated scf accuracy    <       0.00002199 Ry

     iteration #  8     ecut=    40.00 Ry     beta=0.70
     Davidson diagonalization with overlap
     ethr =  2.44E-07,  avg # of iterations =  2.0

     total cpu time spent up to now is      166.1 secs

     total energy              =     -95.10561326 Ry
     Harris-Foulkes estimate   =     -95.10561335 Ry
     estimated scf accuracy    <       0.00000019 Ry

     iteration #  9     ecut=    40.00 Ry     beta=0.70
     Davidson diagonalization with overlap
     ethr =  2.10E-09,  avg # of iterations =  1.7

     total cpu time spent up to now is      167.5 secs

     total energy              =     -95.10561331 Ry
     Harris-Foulkes estimate   =     -95.10561329 Ry
     estimated scf accuracy    <       0.00000003 Ry

     iteration # 10     ecut=    40.00 Ry     beta=0.70
     Davidson diagonalization with overlap
     ethr =  3.27E-10,  avg # of iterations =  2.0

     total cpu time spent up to now is      169.0 secs

     total energy              =     -95.10561325 Ry
     Harris-Foulkes estimate   =     -95.10561331 Ry
     estimated scf accuracy    <       0.00000008 Ry

     iteration # 11     ecut=    40.00 Ry     beta=0.70
     Davidson diagonalization with overlap
     ethr =  3.27E-10,  avg # of iterations =  2.0

     total cpu time spent up to now is      170.6 secs

     total energy              =     -95.10561327 Ry
     Harris-Foulkes estimate   =     -95.10561328 Ry
     estimated scf accuracy    <          4.3E-09 Ry

     iteration # 12     ecut=    40.00 Ry     beta=0.70
     Davidson diagonalization with overlap
     ethr =  4.75E-11,  avg # of iterations =  1.6

     total cpu time spent up to now is      172.0 secs

     total energy              =     -95.10561328 Ry
     Harris-Foulkes estimate   =     -95.10561327 Ry
     estimated scf accuracy    <          5.5E-09 Ry

     iteration # 13     ecut=    40.00 Ry     beta=0.70
     Davidson diagonalization with overlap
     ethr =  4.75E-11,  avg # of iterations =  1.0

     total cpu time spent up to now is      173.4 secs

     total energy              =     -95.10561328 Ry
     Harris-Foulkes estimate   =     -95.10561328 Ry
     estimated scf accuracy    <          2.8E-09 Ry

     iteration # 14     ecut=    40.00 Ry     beta=0.70
     Davidson diagonalization with overlap
     ethr =  3.15E-11,  avg # of iterations =  1.6

     total cpu time spent up to now is      174.8 secs

     End of self-consistent calculation

     Number of k-points >= 100: set verbosity='high' to print the bands.

     the Fermi energy is     1.2483 ev

!    total energy              =     -95.10561328 Ry
     Harris-Foulkes estimate   =     -95.10561328 Ry
     estimated scf accuracy    <          9.7E-11 Ry

     The total energy is the sum of the following terms:

     one-electron contribution =     -90.07547149 Ry
     hartree contribution      =      45.25674408 Ry
     xc contribution           =     -14.25705336 Ry
     ewald contribution        =     -36.02974441 Ry
     smearing contrib. (-TS)   =      -0.00008809 Ry

     convergence has been achieved in  14 iterations

     Forces acting on atoms (cartesian axes, Ry/au):

     atom    1 type  1   force =     0.00000000    0.00000000    0.00000000

     Total force =     0.000000     Total SCF correction =     0.000000


     Computing stress (Cartesian axis) and pressure

          total   stress  (Ry/bohr**3)                   (kbar)     P=   -9.59
  -0.00006519   0.00000000  -0.00000000         -9.59      0.00     -0.00
   0.00000000  -0.00006519   0.00000000          0.00     -9.59      0.00
  -0.00000000   0.00000000  -0.00006519         -0.00      0.00     -9.59


     bfgs converged in   8 scf cycles and   7 bfgs steps
     (criteria: energy <  1.0E-04 Ry, force <  1.0E-03Ry/Bohr, cell <  5.0E-01kbar)

     End of BFGS Geometry Optimization

     Final enthalpy =     -95.1242274457 Ry
Begin final coordinates
     new unit-cell volume =    273.82384 a.u.^3 (    40.57651 Ang^3 )
     density =      0.94083 g/cm^3

CELL_PARAMETERS (alat=  8.00000000)
   0.511344714   0.511344714   0.511344714
  -0.511344714   0.511344714   0.511344714
  -0.511344714  -0.511344714   0.511344714

ATOMIC_POSITIONS (crystal)
Na       0.000000000   0.000000000   0.000000000
End final coordinates



     A final scf calculation at the relaxed structure.
     The G-vectors are recalculated for the final unit cell
     Results may differ from those at the preceding step.

     Parallelization info
     --------------------
     sticks:   dense  smooth     PW     G-vecs:    dense   smooth      PW
     Min         302     151     45                 6628     2350     400
     Max         303     152     46                 6629     2352     401
     Sum        1211     607    181                26515     9405    1601



     bravais-lattice index     =            3
     lattice parameter (alat)  =       8.0000  a.u.
     unit-cell volume          =     273.8238 (a.u.)^3
     number of atoms/cell      =            1
     number of atomic types    =            1
     number of electrons       =         9.00
     number of Kohn-Sham states=            9
     kinetic-energy cutoff     =      40.0000  Ry
     charge density cutoff     =     320.0000  Ry
     convergence threshold     =      1.0E-10
     mixing beta               =       0.7000
     number of iterations used =            8  plain     mixing
     Exchange-correlation      = SLA  PW   PBE  PBE ( 1  4  3  4 0 0)

     celldm(1)=   8.000000  celldm(2)=   0.000000  celldm(3)=   0.000000
     celldm(4)=   0.000000  celldm(5)=   0.000000  celldm(6)=   0.000000

     crystal axes: (cart. coord. in units of alat)
               a(1) = (   0.511345   0.511345   0.511345 )  
               a(2) = (  -0.511345   0.511345   0.511345 )  
               a(3) = (  -0.511345  -0.511345   0.511345 )  

     reciprocal axes: (cart. coord. in units 2 pi/alat)
               b(1) = (  0.977814 -0.000000  0.977814 )  
               b(2) = ( -0.977814  0.977814 -0.000000 )  
               b(3) = (  0.000000 -0.977814  0.977814 )  


     PseudoPot. # 1 for Na read from file:
     /home/s1333534/quantum_espresso/qe-6.1/pseudo/Na_pbe_v1.uspp.F.UPF
     MD5 check sum: 76a99c7e9422403d3e93cbc85ab7bccb
     Pseudo is Ultrasoft, Zval =  9.0
     Generated by new atomic code, or converted to UPF format
     Using radial grid of  819 points,  5 beta functions with: 
                l(1) =   0
                l(2) =   0
                l(3) =   1
                l(4) =   1
                l(5) =   2
     Q(r) pseudized with  8 coefficients,  rinner =    1.250   1.250   1.250
                                                       1.250   1.250

     atomic species   valence    mass     pseudopotential
        Na             9.00    22.99000     Na( 1.00)

     48 Sym. Ops., with inversion, found



   Cartesian axes

     site n.     atom                  positions (alat units)
         1           Na  tau(   1) = (   0.0000000   0.0000000   0.0000000  )

     number of k points=   250  Marzari-Vanderbilt smearing, width (Ry)=  0.0200

     Number of k-points >= 100: set verbosity='high' to print them.

     Dense  grid:    26515 G-vectors     FFT dimensions: (  45,  45,  45)

     Smooth grid:     9405 G-vectors     FFT dimensions: (  30,  30,  30)

     Estimated max dynamical RAM per process >      14.78MB

     Estimated total allocated dynamical RAM >      59.10MB

     Initial potential from superposition of free atoms

     starting charge    8.99371, renormalised to    9.00000
     Starting wfc are    5 randomized atomic wfcs +    4 random wfc

     Writing output data file na.bcc.save

     total cpu time spent up to now is      176.9 secs

     per-process dynamical memory:    26.2 Mb

     Self-consistent Calculation

     iteration #  1     ecut=    40.00 Ry     beta=0.70
     Davidson diagonalization with overlap
     c_bands:  1 eigenvalues not converged
     c_bands:  1 eigenvalues not converged
     c_bands:  1 eigenvalues not converged
     c_bands:  1 eigenvalues not converged
     c_bands:  1 eigenvalues not converged
     c_bands:  1 eigenvalues not converged
     c_bands:  1 eigenvalues not converged
     ethr =  1.00E-06,  avg # of iterations = 12.5

     total cpu time spent up to now is      182.6 secs

     total energy              =     -95.10588670 Ry
     Harris-Foulkes estimate   =     -95.10604785 Ry
     estimated scf accuracy    <       0.00088542 Ry

     iteration #  2     ecut=    40.00 Ry     beta=0.70
     Davidson diagonalization with overlap
     ethr =  9.84E-06,  avg # of iterations =  2.0

     total cpu time spent up to now is      184.9 secs

     total energy              =     -95.10598406 Ry
     Harris-Foulkes estimate   =     -95.10600328 Ry
     estimated scf accuracy    <       0.00009861 Ry

     iteration #  3     ecut=    40.00 Ry     beta=0.70
     Davidson diagonalization with overlap
     ethr =  1.10E-06,  avg # of iterations =  2.0

     total cpu time spent up to now is      187.0 secs

     total energy              =     -95.10599568 Ry
     Harris-Foulkes estimate   =     -95.10599665 Ry
     estimated scf accuracy    <       0.00000621 Ry

     iteration #  4     ecut=    40.00 Ry     beta=0.70
     Davidson diagonalization with overlap
     ethr =  6.90E-08,  avg # of iterations =  1.0

     total cpu time spent up to now is      188.8 secs

     total energy              =     -95.10599627 Ry
     Harris-Foulkes estimate   =     -95.10599623 Ry
     estimated scf accuracy    <       0.00000001 Ry

     iteration #  5     ecut=    40.00 Ry     beta=0.70
     Davidson diagonalization with overlap
     ethr =  1.59E-10,  avg # of iterations =  3.0

     total cpu time spent up to now is      191.3 secs

     total energy              =     -95.10599631 Ry
     Harris-Foulkes estimate   =     -95.10599630 Ry
     estimated scf accuracy    <          1.9E-09 Ry

     iteration #  6     ecut=    40.00 Ry     beta=0.70
     Davidson diagonalization with overlap
     ethr =  2.09E-11,  avg # of iterations =  1.0

     total cpu time spent up to now is      193.2 secs

     total energy              =     -95.10599631 Ry
     Harris-Foulkes estimate   =     -95.10599631 Ry
     estimated scf accuracy    <          1.2E-10 Ry

     iteration #  7     ecut=    40.00 Ry     beta=0.70
     Davidson diagonalization with overlap
     ethr =  1.35E-12,  avg # of iterations =  2.0

     total cpu time spent up to now is      195.2 secs

     End of self-consistent calculation

     Number of k-points >= 100: set verbosity='high' to print the bands.

     the Fermi energy is     1.2487 ev

!    total energy              =     -95.10599631 Ry
     Harris-Foulkes estimate   =     -95.10599631 Ry
     estimated scf accuracy    <          1.9E-12 Ry

     The total energy is the sum of the following terms:

     one-electron contribution =     -90.07595674 Ry
     hartree contribution      =      45.25696300 Ry
     xc contribution           =     -14.25717006 Ry
     ewald contribution        =     -36.02974441 Ry
     smearing contrib. (-TS)   =      -0.00008810 Ry

     convergence has been achieved in   7 iterations

     Forces acting on atoms (cartesian axes, Ry/au):

     atom    1 type  1   force =     0.00000000    0.00000000    0.00000000

     Total force =     0.000000     Total SCF correction =     0.000000


     Computing stress (Cartesian axis) and pressure

          total   stress  (Ry/bohr**3)                   (kbar)     P=   -8.61
  -0.00005851   0.00000000  -0.00000000         -8.61      0.00     -0.00
   0.00000000  -0.00005851   0.00000000          0.00     -8.61      0.00
  -0.00000000   0.00000000  -0.00005851         -0.00      0.00     -8.61


     Writing output data file na.bcc.save

     init_run     :      1.86s CPU      1.93s WALL (       2 calls)
     electrons    :    172.92s CPU    181.66s WALL (       9 calls)
     update_pot   :      1.70s CPU      1.71s WALL (       7 calls)
     forces       :      1.41s CPU      1.43s WALL (       9 calls)
     stress       :      6.77s CPU      6.79s WALL (       9 calls)

     Called by init_run:
     wfcinit      :      1.13s CPU      1.19s WALL (       2 calls)
     potinit      :      0.11s CPU      0.12s WALL (       2 calls)

     Called by electrons:
     c_bands      :    139.47s CPU    146.75s WALL (     108 calls)
     sum_band     :     30.35s CPU     31.75s WALL (     108 calls)
     v_of_rho     :      1.40s CPU      1.42s WALL (     116 calls)
     newd         :      1.67s CPU      1.69s WALL (     116 calls)
     mix_rho      :      0.14s CPU      0.14s WALL (     108 calls)

     Called by c_bands:
     init_us_2    :      7.33s CPU      7.31s WALL (   59000 calls)
     cegterg      :    132.03s CPU    139.18s WALL (   27000 calls)

     Called by sum_band:
     sum_band:bec :      0.05s CPU      0.09s WALL (   27000 calls)
     addusdens    :      2.08s CPU      2.10s WALL (     108 calls)

     Called by *egterg:
     h_psi        :    110.86s CPU    117.09s WALL (   79036 calls)
     s_psi        :      1.56s CPU      1.26s WALL (   79036 calls)
     g_psi        :      0.77s CPU      0.79s WALL (   51536 calls)
     cdiaghg      :      9.96s CPU     10.35s WALL (   76536 calls)

     Called by h_psi:
     h_psi:pot    :    110.48s CPU    116.49s WALL (   79036 calls)
     h_psi:calbec :      2.70s CPU      2.18s WALL (   79036 calls)
     vloc_psi     :    106.89s CPU    112.76s WALL (   79036 calls)
     add_vuspsi   :      0.80s CPU      1.35s WALL (   79036 calls)

     General routines
     calbec       :      4.13s CPU      3.63s WALL (  117286 calls)
     fft          :      0.74s CPU      0.76s WALL (    1903 calls)
     ffts         :      0.03s CPU      0.03s WALL (     224 calls)
     fftw         :    120.38s CPU    121.31s WALL ( 1418406 calls)
     interpolate  :      0.12s CPU      0.13s WALL (     224 calls)
     davcio       :      0.00s CPU      0.01s WALL (     500 calls)

     Parallel routines
     fft_scatter  :     22.29s CPU     26.68s WALL ( 1420533 calls)

     PWSCF        :  3m 6.97s CPU     3m16.27s WALL


   This run was terminated on:  15:27:18  20Dec2017            

=------------------------------------------------------------------------------=
   JOB DONE.
=------------------------------------------------------------------------------=
