
     Program PWSCF v.6.1 (svn rev. 13369) starts on 20Dec2017 at 15:41:59 

     This program is part of the open-source Quantum ESPRESSO suite
     for quantum simulation of materials; please cite
         "P. Giannozzi et al., J. Phys.:Condens. Matter 21 395502 (2009);
          URL http://www.quantum-espresso.org", 
     in publications or presentations arising from this work. More details at
     http://www.quantum-espresso.org/quote

     Parallel version (MPI), running on     4 processors
     R & G space division:  proc/nbgrp/npool/nimage =       4
     Waiting for input...
     Reading input from standard input

     Current dimensions of program PWSCF are:
     Max number of different atomic species (ntypx) = 10
     Max number of k-points (npk) =  40000
     Max angular momentum in pseudopotentials (lmaxx) =  3

     Subspace diagonalization in iterative solution of the eigenvalue problem:
     a serial algorithm will be used


     Parallelization info
     --------------------
     sticks:   dense  smooth     PW     G-vecs:    dense   smooth      PW
     Min         287     142     43                 6207     2171     375
     Max         288     144     44                 6210     2172     378
     Sum        1151     571    173                24835     8685    1505



     bravais-lattice index     =            3
     lattice parameter (alat)  =       8.0000  a.u.
     unit-cell volume          =     256.0000 (a.u.)^3
     number of atoms/cell      =            1
     number of atomic types    =            1
     number of electrons       =         9.00
     number of Kohn-Sham states=            9
     kinetic-energy cutoff     =      40.0000  Ry
     charge density cutoff     =     320.0000  Ry
     convergence threshold     =      1.0E-08
     mixing beta               =       0.7000
     number of iterations used =            8  plain     mixing
     Exchange-correlation      = SLA  PW   PBE  PBE ( 1  4  3  4 0 0)
     nstep                     =           50


     celldm(1)=   8.000000  celldm(2)=   0.000000  celldm(3)=   0.000000
     celldm(4)=   0.000000  celldm(5)=   0.000000  celldm(6)=   0.000000

     crystal axes: (cart. coord. in units of alat)
               a(1) = (   0.500000   0.500000   0.500000 )  
               a(2) = (  -0.500000   0.500000   0.500000 )  
               a(3) = (  -0.500000  -0.500000   0.500000 )  

     reciprocal axes: (cart. coord. in units 2 pi/alat)
               b(1) = (  1.000000  0.000000  1.000000 )  
               b(2) = ( -1.000000  1.000000  0.000000 )  
               b(3) = (  0.000000 -1.000000  1.000000 )  


     PseudoPot. # 1 for Na read from file:
     /home/s1333534/quantum_espresso/qe-6.1/pseudo/Na_pbe_v1.uspp.F.UPF
     MD5 check sum: 76a99c7e9422403d3e93cbc85ab7bccb
     Pseudo is Ultrasoft, Zval =  9.0
     Generated by new atomic code, or converted to UPF format
     Using radial grid of  819 points,  5 beta functions with: 
                l(1) =   0
                l(2) =   0
                l(3) =   1
                l(4) =   1
                l(5) =   2
     Q(r) pseudized with  8 coefficients,  rinner =    1.250   1.250   1.250
                                                       1.250   1.250

     atomic species   valence    mass     pseudopotential
        Na             9.00    22.99000     Na( 1.00)

     48 Sym. Ops., with inversion, found



   Cartesian axes

     site n.     atom                  positions (alat units)
         1           Na  tau(   1) = (   0.0000000   0.0000000   0.0000000  )

     number of k points=   250  Marzari-Vanderbilt smearing, width (Ry)=  0.0200

     Number of k-points >= 100: set verbosity='high' to print them.

     Dense  grid:    24835 G-vectors     FFT dimensions: (  40,  40,  40)

     Smooth grid:     8685 G-vectors     FFT dimensions: (  27,  27,  27)

     Estimated max dynamical RAM per process >      13.36MB

     Estimated total allocated dynamical RAM >      53.44MB

     Initial potential from superposition of free atoms

     starting charge    8.99371, renormalised to    9.00000
     Starting wfc are    5 randomized atomic wfcs +    4 random wfc

     total cpu time spent up to now is        1.0 secs

     per-process dynamical memory:    19.6 Mb

     Self-consistent Calculation

     iteration #  1     ecut=    40.00 Ry     beta=0.70
     Davidson diagonalization with overlap
     ethr =  1.00E-02,  avg # of iterations =  5.8

     Threshold (ethr) on eigenvalues was too large:
     Diagonalizing with lowered threshold

     Davidson diagonalization with overlap
     ethr =  9.84E-06,  avg # of iterations =  4.8

     total cpu time spent up to now is        5.6 secs

     total energy              =     -95.10637787 Ry
     Harris-Foulkes estimate   =     -95.10656725 Ry
     estimated scf accuracy    <       0.00088332 Ry

     iteration #  2     ecut=    40.00 Ry     beta=0.70
     Davidson diagonalization with overlap
     ethr =  9.81E-06,  avg # of iterations =  2.0

     total cpu time spent up to now is        7.1 secs

     total energy              =     -95.10647616 Ry
     Harris-Foulkes estimate   =     -95.10649624 Ry
     estimated scf accuracy    <       0.00009724 Ry

     iteration #  3     ecut=    40.00 Ry     beta=0.70
     Davidson diagonalization with overlap
     ethr =  1.08E-06,  avg # of iterations =  2.1

     total cpu time spent up to now is        8.7 secs

     total energy              =     -95.10648758 Ry
     Harris-Foulkes estimate   =     -95.10648858 Ry
     estimated scf accuracy    <       0.00000602 Ry

     iteration #  4     ecut=    40.00 Ry     beta=0.70
     Davidson diagonalization with overlap
     ethr =  6.69E-08,  avg # of iterations =  1.0

     total cpu time spent up to now is       10.0 secs

     total energy              =     -95.10648815 Ry
     Harris-Foulkes estimate   =     -95.10648811 Ry
     estimated scf accuracy    <       0.00000001 Ry

     iteration #  5     ecut=    40.00 Ry     beta=0.70
     Davidson diagonalization with overlap
     ethr =  1.40E-10,  avg # of iterations =  3.0

     total cpu time spent up to now is       11.9 secs

     End of self-consistent calculation

     Number of k-points >= 100: set verbosity='high' to print the bands.

     the Fermi energy is     1.5119 ev

!    total energy              =     -95.10648818 Ry
     Harris-Foulkes estimate   =     -95.10648818 Ry
     estimated scf accuracy    <          1.7E-09 Ry

     The total energy is the sum of the following terms:

     one-electron contribution =     -88.63767028 Ry
     hartree contribution      =      44.64403185 Ry
     xc contribution           =     -14.26551967 Ry
     ewald contribution        =     -36.84723868 Ry
     smearing contrib. (-TS)   =      -0.00009141 Ry

     convergence has been achieved in   5 iterations

     Forces acting on atoms (cartesian axes, Ry/au):

     atom    1 type  1   force =     0.00000000    0.00000000    0.00000000

     Total force =     0.000000     Total SCF correction =     0.000000


     Computing stress (Cartesian axis) and pressure

          total   stress  (Ry/bohr**3)                   (kbar)     P=   -4.40
  -0.00002994  -0.00000000   0.00000000         -4.40     -0.00      0.00
  -0.00000000  -0.00002994   0.00000000         -0.00     -4.40      0.00
   0.00000000   0.00000000  -0.00002994          0.00      0.00     -4.40


     BFGS Geometry Optimization

     number of scf cycles    =   1
     number of bfgs steps    =   0

     enthalpy new            =     -95.0542805970 Ry

     new trust radius        =       0.0187100742 bohr
     new conv_thr            =       0.0000000100 Ry

     new unit-cell volume =    251.53579 a.u.^3 (    37.27376 Ang^3 )
     density =      1.02420 g/cm^3

CELL_PARAMETERS (alat=  8.00000000)
   0.497076551   0.497076551   0.497076551
  -0.497076551   0.497076551   0.497076551
  -0.497076551  -0.497076551   0.497076551

ATOMIC_POSITIONS (crystal)
Na       0.000000000   0.000000000   0.000000000



     Writing output data file na.bcc.save
     NEW-OLD atomic charge density approx. for the potential
     extrapolated charge    8.84038, renormalised to    9.00000

     total cpu time spent up to now is       13.3 secs

     per-process dynamical memory:    31.4 Mb

     Self-consistent Calculation

     iteration #  1     ecut=    40.00 Ry     beta=0.70
     Davidson diagonalization with overlap
     c_bands:  1 eigenvalues not converged
     ethr =  1.00E-06,  avg # of iterations =  4.0

     total cpu time spent up to now is       15.8 secs

     total energy              =     -95.09069343 Ry
     Harris-Foulkes estimate   =     -96.35178155 Ry
     estimated scf accuracy    <       0.00892202 Ry

     iteration #  2     ecut=    40.00 Ry     beta=0.70
     Davidson diagonalization with overlap
     ethr =  9.91E-05,  avg # of iterations =  2.9

     total cpu time spent up to now is       17.8 secs

     total energy              =     -95.10680669 Ry
     Harris-Foulkes estimate   =     -95.11334971 Ry
     estimated scf accuracy    <       0.01488425 Ry

     iteration #  3     ecut=    40.00 Ry     beta=0.70
     Davidson diagonalization with overlap
     ethr =  9.91E-05,  avg # of iterations =  2.0

     total cpu time spent up to now is       19.3 secs

     total energy              =     -95.10672776 Ry
     Harris-Foulkes estimate   =     -95.10783368 Ry
     estimated scf accuracy    <       0.00275044 Ry

     iteration #  4     ecut=    40.00 Ry     beta=0.70
     Davidson diagonalization with overlap
     ethr =  3.06E-05,  avg # of iterations =  1.0

     total cpu time spent up to now is       20.7 secs

     total energy              =     -95.10676880 Ry
     Harris-Foulkes estimate   =     -95.10689111 Ry
     estimated scf accuracy    <       0.00065240 Ry

     iteration #  5     ecut=    40.00 Ry     beta=0.70
     Davidson diagonalization with overlap
     ethr =  7.25E-06,  avg # of iterations =  1.0

     total cpu time spent up to now is       22.0 secs

     total energy              =     -95.10669154 Ry
     Harris-Foulkes estimate   =     -95.10678434 Ry
     estimated scf accuracy    <       0.00039084 Ry

     iteration #  6     ecut=    40.00 Ry     beta=0.70
     Davidson diagonalization with overlap
     ethr =  4.34E-06,  avg # of iterations =  1.0

     total cpu time spent up to now is       23.4 secs

     total energy              =     -95.10658348 Ry
     Harris-Foulkes estimate   =     -95.10669793 Ry
     estimated scf accuracy    <       0.00020525 Ry

     iteration #  7     ecut=    40.00 Ry     beta=0.70
     Davidson diagonalization with overlap
     ethr =  2.28E-06,  avg # of iterations =  2.0

     total cpu time spent up to now is       24.9 secs

     total energy              =     -95.10660290 Ry
     Harris-Foulkes estimate   =     -95.10660972 Ry
     estimated scf accuracy    <       0.00001106 Ry

     iteration #  8     ecut=    40.00 Ry     beta=0.70
     Davidson diagonalization with overlap
     ethr =  1.23E-07,  avg # of iterations =  2.0

     total cpu time spent up to now is       26.5 secs

     total energy              =     -95.10660474 Ry
     Harris-Foulkes estimate   =     -95.10660480 Ry
     estimated scf accuracy    <       0.00000016 Ry

     iteration #  9     ecut=    40.00 Ry     beta=0.70
     Davidson diagonalization with overlap
     ethr =  1.74E-09,  avg # of iterations =  1.2

     total cpu time spent up to now is       27.9 secs

     total energy              =     -95.10660475 Ry
     Harris-Foulkes estimate   =     -95.10660475 Ry
     estimated scf accuracy    <       0.00000003 Ry

     iteration # 10     ecut=    40.00 Ry     beta=0.70
     Davidson diagonalization with overlap
     ethr =  3.66E-10,  avg # of iterations =  1.0

     total cpu time spent up to now is       29.3 secs

     total energy              =     -95.10660473 Ry
     Harris-Foulkes estimate   =     -95.10660475 Ry
     estimated scf accuracy    <       0.00000004 Ry

     iteration # 11     ecut=    40.00 Ry     beta=0.70
     Davidson diagonalization with overlap
     ethr =  3.66E-10,  avg # of iterations =  2.0

     total cpu time spent up to now is       30.9 secs

     End of self-consistent calculation

     Number of k-points >= 100: set verbosity='high' to print the bands.

     the Fermi energy is     1.5839 ev

!    total energy              =     -95.10660474 Ry
     Harris-Foulkes estimate   =     -95.10660474 Ry
     estimated scf accuracy    <          4.4E-09 Ry

     The total energy is the sum of the following terms:

     one-electron contribution =     -88.25713236 Ry
     hartree contribution      =      44.48238282 Ry
     xc contribution           =     -14.26781507 Ry
     ewald contribution        =     -37.06394781 Ry
     smearing contrib. (-TS)   =      -0.00009231 Ry

     convergence has been achieved in  11 iterations

     Forces acting on atoms (cartesian axes, Ry/au):

     atom    1 type  1   force =     0.00000000    0.00000000    0.00000000

     Total force =     0.000000     Total SCF correction =     0.000000


     Computing stress (Cartesian axis) and pressure

          total   stress  (Ry/bohr**3)                   (kbar)     P=   -2.64
  -0.00001796   0.00000000  -0.00000000         -2.64      0.00     -0.00
   0.00000000  -0.00001796   0.00000000          0.00     -2.64      0.00
  -0.00000000   0.00000000  -0.00001796         -0.00      0.00     -2.64


     number of scf cycles    =   2
     number of bfgs steps    =   1

     enthalpy old            =     -95.0542805970 Ry
     enthalpy new            =     -95.0553075614 Ry

     CASE: enthalpy_new < enthalpy_old


     WARNING: bfgs curvature condition failed, Theta= 0.853
     new trust radius        =       0.0279829441 bohr
     new conv_thr            =            1.0E-10 Ry

     new unit-cell volume =    244.93725 a.u.^3 (    36.29596 Ang^3 )
     density =      1.05179 g/cm^3

CELL_PARAMETERS (alat=  8.00000000)
   0.492691377   0.492691377   0.492691377
  -0.492691377   0.492691377   0.492691377
  -0.492691377  -0.492691377   0.492691377

ATOMIC_POSITIONS (crystal)
Na       0.000000000   0.000000000   0.000000000



     Writing output data file na.bcc.save
     NEW-OLD atomic charge density approx. for the potential
     extrapolated charge    8.75771, renormalised to    9.00000

     total cpu time spent up to now is       32.3 secs

     per-process dynamical memory:    31.4 Mb

     Self-consistent Calculation

     iteration #  1     ecut=    40.00 Ry     beta=0.70
     Davidson diagonalization with overlap
     ethr =  1.00E-06,  avg # of iterations =  4.3

     total cpu time spent up to now is       34.9 secs

     total energy              =     -95.07114738 Ry
     Harris-Foulkes estimate   =     -96.98012478 Ry
     estimated scf accuracy    <       0.01999056 Ry

     iteration #  2     ecut=    40.00 Ry     beta=0.70
     Davidson diagonalization with overlap
     ethr =  2.22E-04,  avg # of iterations =  2.9

     total cpu time spent up to now is       36.9 secs

     total energy              =     -95.10702874 Ry
     Harris-Foulkes estimate   =     -95.12165881 Ry
     estimated scf accuracy    <       0.03325184 Ry

     iteration #  3     ecut=    40.00 Ry     beta=0.70
     Davidson diagonalization with overlap
     ethr =  2.22E-04,  avg # of iterations =  2.0

     total cpu time spent up to now is       38.4 secs

     total energy              =     -95.10680880 Ry
     Harris-Foulkes estimate   =     -95.10936774 Ry
     estimated scf accuracy    <       0.00601716 Ry

     iteration #  4     ecut=    40.00 Ry     beta=0.70
     Davidson diagonalization with overlap
     ethr =  6.69E-05,  avg # of iterations =  1.0

     total cpu time spent up to now is       39.7 secs

     total energy              =     -95.10740038 Ry
     Harris-Foulkes estimate   =     -95.10721499 Ry
     estimated scf accuracy    <       0.00122258 Ry

     iteration #  5     ecut=    40.00 Ry     beta=0.70
     Davidson diagonalization with overlap
     ethr =  1.36E-05,  avg # of iterations =  1.0

     total cpu time spent up to now is       41.1 secs

     total energy              =     -95.10688861 Ry
     Harris-Foulkes estimate   =     -95.10742352 Ry
     estimated scf accuracy    <       0.00165957 Ry

     iteration #  6     ecut=    40.00 Ry     beta=0.70
     Davidson diagonalization with overlap
     ethr =  1.36E-05,  avg # of iterations =  1.0

     total cpu time spent up to now is       42.4 secs

     total energy              =     -95.10673078 Ry
     Harris-Foulkes estimate   =     -95.10695082 Ry
     estimated scf accuracy    <       0.00058984 Ry

     iteration #  7     ecut=    40.00 Ry     beta=0.70
     Davidson diagonalization with overlap
     ethr =  6.55E-06,  avg # of iterations =  1.0

     total cpu time spent up to now is       43.8 secs

     total energy              =     -95.10665170 Ry
     Harris-Foulkes estimate   =     -95.10676067 Ry
     estimated scf accuracy    <       0.00016428 Ry

     iteration #  8     ecut=    40.00 Ry     beta=0.70
     Davidson diagonalization with overlap
     ethr =  1.83E-06,  avg # of iterations =  2.1

     total cpu time spent up to now is       45.4 secs

     total energy              =     -95.10668748 Ry
     Harris-Foulkes estimate   =     -95.10668693 Ry
     estimated scf accuracy    <       0.00000009 Ry

     iteration #  9     ecut=    40.00 Ry     beta=0.70
     Davidson diagonalization with overlap
     ethr =  1.00E-09,  avg # of iterations =  3.0

     total cpu time spent up to now is       47.3 secs

     total energy              =     -95.10668657 Ry
     Harris-Foulkes estimate   =     -95.10668776 Ry
     estimated scf accuracy    <       0.00000183 Ry

     iteration # 10     ecut=    40.00 Ry     beta=0.70
     Davidson diagonalization with overlap
     ethr =  1.00E-09,  avg # of iterations =  3.0

     total cpu time spent up to now is       49.2 secs

     total energy              =     -95.10668707 Ry
     Harris-Foulkes estimate   =     -95.10668695 Ry
     estimated scf accuracy    <       0.00000013 Ry

     iteration # 11     ecut=    40.00 Ry     beta=0.70
     Davidson diagonalization with overlap
     ethr =  1.00E-09,  avg # of iterations =  1.1

     total cpu time spent up to now is       50.5 secs

     total energy              =     -95.10668707 Ry
     Harris-Foulkes estimate   =     -95.10668708 Ry
     estimated scf accuracy    <       0.00000063 Ry

     iteration # 12     ecut=    40.00 Ry     beta=0.70
     Davidson diagonalization with overlap
     ethr =  1.00E-09,  avg # of iterations =  1.0

     total cpu time spent up to now is       51.9 secs

     total energy              =     -95.10668691 Ry
     Harris-Foulkes estimate   =     -95.10668707 Ry
     estimated scf accuracy    <       0.00000062 Ry

     iteration # 13     ecut=    40.00 Ry     beta=0.70
     Davidson diagonalization with overlap
     ethr =  1.00E-09,  avg # of iterations =  2.0

     total cpu time spent up to now is       53.5 secs

     total energy              =     -95.10668692 Ry
     Harris-Foulkes estimate   =     -95.10668693 Ry
     estimated scf accuracy    <       0.00000005 Ry

     iteration # 14     ecut=    40.00 Ry     beta=0.70
     Davidson diagonalization with overlap
     ethr =  5.50E-10,  avg # of iterations =  1.0

     total cpu time spent up to now is       54.9 secs

     total energy              =     -95.10668692 Ry
     Harris-Foulkes estimate   =     -95.10668692 Ry
     estimated scf accuracy    <          1.7E-10 Ry

     iteration # 15     ecut=    40.00 Ry     beta=0.70
     Davidson diagonalization with overlap
     ethr =  1.90E-12,  avg # of iterations =  2.0

     total cpu time spent up to now is       56.5 secs

     End of self-consistent calculation

     Number of k-points >= 100: set verbosity='high' to print the bands.

     the Fermi energy is     1.6954 ev

!    total energy              =     -95.10668692 Ry
     Harris-Foulkes estimate   =     -95.10668692 Ry
     estimated scf accuracy    <          5.6E-11 Ry

     The total energy is the sum of the following terms:

     one-electron contribution =     -87.67789196 Ry
     hartree contribution      =      44.23638115 Ry
     xc contribution           =     -14.27124891 Ry
     ewald contribution        =     -37.39383353 Ry
     smearing contrib. (-TS)   =      -0.00009368 Ry

     convergence has been achieved in  15 iterations

     Forces acting on atoms (cartesian axes, Ry/au):

     atom    1 type  1   force =     0.00000000    0.00000000    0.00000000

     Total force =     0.000000     Total SCF correction =     0.000000


     Computing stress (Cartesian axis) and pressure

          total   stress  (Ry/bohr**3)                   (kbar)     P=   -0.61
  -0.00000412   0.00000000  -0.00000000         -0.61      0.00     -0.00
   0.00000000  -0.00000412   0.00000000          0.00     -0.61      0.00
  -0.00000000   0.00000000  -0.00000412         -0.00      0.00     -0.61


     number of scf cycles    =   3
     number of bfgs steps    =   2

     enthalpy old            =     -95.0553075614 Ry
     enthalpy new            =     -95.0567354214 Ry

     CASE: enthalpy_new < enthalpy_old

     new trust radius        =       0.0417888584 bohr
     new conv_thr            =            1.0E-10 Ry

     new unit-cell volume =    235.25741 a.u.^3 (    34.86155 Ang^3 )
     density =      1.09507 g/cm^3

CELL_PARAMETERS (alat=  8.00000000)
   0.486113617   0.486113617   0.486113617
  -0.486113617   0.486113617   0.486113617
  -0.486113617  -0.486113617   0.486113617

ATOMIC_POSITIONS (crystal)
Na       0.000000000   0.000000000   0.000000000



     Writing output data file na.bcc.save
     NEW-OLD atomic charge density approx. for the potential
     extrapolated charge    8.62995, renormalised to    9.00000

     total cpu time spent up to now is       57.9 secs

     per-process dynamical memory:    31.4 Mb

     Self-consistent Calculation

     iteration #  1     ecut=    40.00 Ry     beta=0.70
     Davidson diagonalization with overlap
     ethr =  1.00E-06,  avg # of iterations =  4.7

     total cpu time spent up to now is       60.6 secs

     total energy              =     -95.02736932 Ry
     Harris-Foulkes estimate   =     -97.92854169 Ry
     estimated scf accuracy    <       0.04483411 Ry

     iteration #  2     ecut=    40.00 Ry     beta=0.70
     Davidson diagonalization with overlap
     ethr =  4.98E-04,  avg # of iterations =  2.9

     total cpu time spent up to now is       62.6 secs

     total energy              =     -95.10696791 Ry
     Harris-Foulkes estimate   =     -95.13961960 Ry
     estimated scf accuracy    <       0.07408054 Ry

     iteration #  3     ecut=    40.00 Ry     beta=0.70
     Davidson diagonalization with overlap
     ethr =  4.98E-04,  avg # of iterations =  2.0

     total cpu time spent up to now is       64.1 secs

     total energy              =     -95.10655735 Ry
     Harris-Foulkes estimate   =     -95.11233991 Ry
     estimated scf accuracy    <       0.01295461 Ry

     iteration #  4     ecut=    40.00 Ry     beta=0.70
     Davidson diagonalization with overlap
     ethr =  1.44E-04,  avg # of iterations =  1.0

     total cpu time spent up to now is       65.5 secs

     total energy              =     -95.10764423 Ry
     Harris-Foulkes estimate   =     -95.10753777 Ry
     estimated scf accuracy    <       0.00224529 Ry

     iteration #  5     ecut=    40.00 Ry     beta=0.70
     Davidson diagonalization with overlap
     ethr =  2.49E-05,  avg # of iterations =  1.0

     total cpu time spent up to now is       66.8 secs

     total energy              =     -95.10678969 Ry
     Harris-Foulkes estimate   =     -95.10768661 Ry
     estimated scf accuracy    <       0.00253943 Ry

     iteration #  6     ecut=    40.00 Ry     beta=0.70
     Davidson diagonalization with overlap
     ethr =  2.49E-05,  avg # of iterations =  1.0

     total cpu time spent up to now is       68.2 secs

     total energy              =     -95.10673392 Ry
     Harris-Foulkes estimate   =     -95.10691761 Ry
     estimated scf accuracy    <       0.00074590 Ry

     iteration #  7     ecut=    40.00 Ry     beta=0.70
     Davidson diagonalization with overlap
     ethr =  8.29E-06,  avg # of iterations =  1.0

     total cpu time spent up to now is       69.5 secs

     total energy              =     -95.10675228 Ry
     Harris-Foulkes estimate   =     -95.10675319 Ry
     estimated scf accuracy    <       0.00035782 Ry

     iteration #  8     ecut=    40.00 Ry     beta=0.70
     Davidson diagonalization with overlap
     ethr =  3.98E-06,  avg # of iterations =  1.1

     total cpu time spent up to now is       70.9 secs

     total energy              =     -95.10650921 Ry
     Harris-Foulkes estimate   =     -95.10675337 Ry
     estimated scf accuracy    <       0.00036820 Ry

     iteration #  9     ecut=    40.00 Ry     beta=0.70
     Davidson diagonalization with overlap
     ethr =  3.98E-06,  avg # of iterations =  2.0

     total cpu time spent up to now is       72.5 secs

     total energy              =     -95.10658829 Ry
     Harris-Foulkes estimate   =     -95.10658810 Ry
     estimated scf accuracy    <       0.00000004 Ry

     iteration # 10     ecut=    40.00 Ry     beta=0.70
     Davidson diagonalization with overlap
     ethr =  4.37E-10,  avg # of iterations =  3.0

     total cpu time spent up to now is       74.4 secs

     total energy              =     -95.10658850 Ry
     Harris-Foulkes estimate   =     -95.10658858 Ry
     estimated scf accuracy    <       0.00000095 Ry

     iteration # 11     ecut=    40.00 Ry     beta=0.70
     Davidson diagonalization with overlap
     ethr =  4.37E-10,  avg # of iterations =  1.0

     total cpu time spent up to now is       75.7 secs

     total energy              =     -95.10658831 Ry
     Harris-Foulkes estimate   =     -95.10658850 Ry
     estimated scf accuracy    <       0.00000078 Ry

     iteration # 12     ecut=    40.00 Ry     beta=0.70
     Davidson diagonalization with overlap
     ethr =  4.37E-10,  avg # of iterations =  2.0

     total cpu time spent up to now is       77.3 secs

     total energy              =     -95.10658847 Ry
     Harris-Foulkes estimate   =     -95.10658832 Ry
     estimated scf accuracy    <       0.00000040 Ry

     iteration # 13     ecut=    40.00 Ry     beta=0.70
     Davidson diagonalization with overlap
     ethr =  4.37E-10,  avg # of iterations =  2.0

     total cpu time spent up to now is       79.0 secs

     total energy              =     -95.10658794 Ry
     Harris-Foulkes estimate   =     -95.10658848 Ry
     estimated scf accuracy    <       0.00000074 Ry

     iteration # 14     ecut=    40.00 Ry     beta=0.70
     Davidson diagonalization with overlap
     ethr =  4.37E-10,  avg # of iterations =  3.0

     total cpu time spent up to now is       80.8 secs

     total energy              =     -95.10658849 Ry
     Harris-Foulkes estimate   =     -95.10658835 Ry
     estimated scf accuracy    <       0.00000055 Ry

     iteration # 15     ecut=    40.00 Ry     beta=0.70
     Davidson diagonalization with overlap
     ethr =  4.37E-10,  avg # of iterations =  2.0

     total cpu time spent up to now is       82.5 secs

     total energy              =     -95.10658983 Ry
     Harris-Foulkes estimate   =     -95.10658849 Ry
     estimated scf accuracy    <       0.00000097 Ry

     iteration # 16     ecut=    40.00 Ry     beta=0.70
     Davidson diagonalization with overlap
     ethr =  4.37E-10,  avg # of iterations =  3.0

     total cpu time spent up to now is       84.4 secs

     total energy              =     -95.10658678 Ry
     Harris-Foulkes estimate   =     -95.10659255 Ry
     estimated scf accuracy    <       0.00001121 Ry

     iteration # 17     ecut=    40.00 Ry     beta=0.70
     Davidson diagonalization with overlap
     ethr =  4.37E-10,  avg # of iterations =  3.0

     total cpu time spent up to now is       86.3 secs

     total energy              =     -95.10658813 Ry
     Harris-Foulkes estimate   =     -95.10658820 Ry
     estimated scf accuracy    <       0.00000012 Ry

     iteration # 18     ecut=    40.00 Ry     beta=0.70
     Davidson diagonalization with overlap
     ethr =  4.37E-10,  avg # of iterations =  2.0

     total cpu time spent up to now is       88.0 secs

     total energy              =     -95.10658815 Ry
     Harris-Foulkes estimate   =     -95.10658816 Ry
     estimated scf accuracy    <       0.00000002 Ry

     iteration # 19     ecut=    40.00 Ry     beta=0.70
     Davidson diagonalization with overlap
     ethr =  1.94E-10,  avg # of iterations =  1.2

     total cpu time spent up to now is       89.3 secs

     total energy              =     -95.10658815 Ry
     Harris-Foulkes estimate   =     -95.10658815 Ry
     estimated scf accuracy    <          5.9E-10 Ry

     iteration # 20     ecut=    40.00 Ry     beta=0.70
     Davidson diagonalization with overlap
     ethr =  6.52E-12,  avg # of iterations =  2.0

     total cpu time spent up to now is       90.9 secs

     End of self-consistent calculation

     Number of k-points >= 100: set verbosity='high' to print the bands.

     the Fermi energy is     1.8707 ev

!    total energy              =     -95.10658815 Ry
     Harris-Foulkes estimate   =     -95.10658815 Ry
     estimated scf accuracy    <          6.7E-13 Ry

     The total energy is the sum of the following terms:

     one-electron contribution =     -86.79074049 Ry
     hartree contribution      =      43.86071466 Ry
     xc contribution           =     -14.27664502 Ry
     ewald contribution        =     -37.89982158 Ry
     smearing contrib. (-TS)   =      -0.00009572 Ry

     convergence has been achieved in  20 iterations

     Forces acting on atoms (cartesian axes, Ry/au):

     atom    1 type  1   force =     0.00000000    0.00000000    0.00000000

     Total force =     0.000000     Total SCF correction =     0.000000


     Computing stress (Cartesian axis) and pressure

          total   stress  (Ry/bohr**3)                   (kbar)     P=    3.67
   0.00002495   0.00000000  -0.00000000          3.67      0.00     -0.00
   0.00000000   0.00002495   0.00000000          0.00      3.67      0.00
   0.00000000   0.00000000   0.00002495          0.00      0.00      3.67


     number of scf cycles    =   4
     number of bfgs steps    =   3

     enthalpy old            =     -95.0567354214 Ry
     enthalpy new            =     -95.0586107253 Ry

     CASE: enthalpy_new < enthalpy_old

     new trust radius        =       0.0622634496 bohr
     new conv_thr            =            1.0E-10 Ry

     new unit-cell volume =    221.22115 a.u.^3 (    32.78159 Ang^3 )
     density =      1.16455 g/cm^3

CELL_PARAMETERS (alat=  8.00000000)
   0.476246976   0.476246976   0.476246976
  -0.476246976   0.476246976   0.476246976
  -0.476246976  -0.476246976   0.476246976

ATOMIC_POSITIONS (crystal)
Na       0.000000000   0.000000000   0.000000000



     Writing output data file na.bcc.save
     NEW-OLD atomic charge density approx. for the potential
     extrapolated charge    8.42936, renormalised to    9.00000

     total cpu time spent up to now is       92.3 secs

     per-process dynamical memory:    31.6 Mb

     Self-consistent Calculation

     iteration #  1     ecut=    40.00 Ry     beta=0.70
     Davidson diagonalization with overlap
     ethr =  1.00E-06,  avg # of iterations =  5.2

     total cpu time spent up to now is       95.1 secs

     total energy              =     -94.92987662 Ry
     Harris-Foulkes estimate   =     -99.36232215 Ry
     estimated scf accuracy    <       0.10076074 Ry

     iteration #  2     ecut=    40.00 Ry     beta=0.70
     Davidson diagonalization with overlap
     ethr =  1.12E-03,  avg # of iterations =  2.8

     total cpu time spent up to now is       97.2 secs

     total energy              =     -95.10542324 Ry
     Harris-Foulkes estimate   =     -95.17811953 Ry
     estimated scf accuracy    <       0.16430212 Ry

     iteration #  3     ecut=    40.00 Ry     beta=0.70
     Davidson diagonalization with overlap
     ethr =  1.12E-03,  avg # of iterations =  2.0

     total cpu time spent up to now is       98.7 secs

     total energy              =     -95.10619036 Ry
     Harris-Foulkes estimate   =     -95.11789607 Ry
     estimated scf accuracy    <       0.02722540 Ry

     iteration #  4     ecut=    40.00 Ry     beta=0.70
     Davidson diagonalization with overlap
     ethr =  3.03E-04,  avg # of iterations =  1.0

     total cpu time spent up to now is      100.0 secs

     total energy              =     -95.10718364 Ry
     Harris-Foulkes estimate   =     -95.10811262 Ry
     estimated scf accuracy    <       0.00521335 Ry

     iteration #  5     ecut=    40.00 Ry     beta=0.70
     Davidson diagonalization with overlap
     ethr =  5.79E-05,  avg # of iterations =  1.0

     total cpu time spent up to now is      101.4 secs

     total energy              =     -95.10656239 Ry
     Harris-Foulkes estimate   =     -95.10733720 Ry
     estimated scf accuracy    <       0.00316942 Ry

     iteration #  6     ecut=    40.00 Ry     beta=0.70
     Davidson diagonalization with overlap
     ethr =  3.52E-05,  avg # of iterations =  1.0

     total cpu time spent up to now is      102.7 secs

     total energy              =     -95.10544140 Ry
     Harris-Foulkes estimate   =     -95.10662016 Ry
     estimated scf accuracy    <       0.00160726 Ry

     iteration #  7     ecut=    40.00 Ry     beta=0.70
     Davidson diagonalization with overlap
     ethr =  1.79E-05,  avg # of iterations =  2.0

     total cpu time spent up to now is      104.4 secs

     total energy              =     -95.10594583 Ry
     Harris-Foulkes estimate   =     -95.10592201 Ry
     estimated scf accuracy    <       0.00005150 Ry

     iteration #  8     ecut=    40.00 Ry     beta=0.70
     Davidson diagonalization with overlap
     ethr =  5.72E-07,  avg # of iterations =  1.9

     total cpu time spent up to now is      105.8 secs

     total energy              =     -95.10587781 Ry
     Harris-Foulkes estimate   =     -95.10594823 Ry
     estimated scf accuracy    <       0.00010765 Ry

     iteration #  9     ecut=    40.00 Ry     beta=0.70
     Davidson diagonalization with overlap
     ethr =  5.72E-07,  avg # of iterations =  2.0

     total cpu time spent up to now is      107.4 secs

     total energy              =     -95.10589875 Ry
     Harris-Foulkes estimate   =     -95.10589880 Ry
     estimated scf accuracy    <       0.00000013 Ry

     iteration # 10     ecut=    40.00 Ry     beta=0.70
     Davidson diagonalization with overlap
     ethr =  1.48E-09,  avg # of iterations =  3.0

     total cpu time spent up to now is      109.3 secs

     total energy              =     -95.10589861 Ry
     Harris-Foulkes estimate   =     -95.10589905 Ry
     estimated scf accuracy    <       0.00000066 Ry

     iteration # 11     ecut=    40.00 Ry     beta=0.70
     Davidson diagonalization with overlap
     ethr =  1.48E-09,  avg # of iterations =  2.1

     total cpu time spent up to now is      111.0 secs

     total energy              =     -95.10589875 Ry
     Harris-Foulkes estimate   =     -95.10589875 Ry
     estimated scf accuracy    <          4.6E-10 Ry

     iteration # 12     ecut=    40.00 Ry     beta=0.70
     Davidson diagonalization with overlap
     ethr =  5.15E-12,  avg # of iterations =  2.0

     total cpu time spent up to now is      112.5 secs

     total energy              =     -95.10589875 Ry
     Harris-Foulkes estimate   =     -95.10589875 Ry
     estimated scf accuracy    <          3.1E-10 Ry

     iteration # 13     ecut=    40.00 Ry     beta=0.70
     Davidson diagonalization with overlap
     ethr =  3.49E-12,  avg # of iterations =  1.0

     total cpu time spent up to now is      113.9 secs

     total energy              =     -95.10589875 Ry
     Harris-Foulkes estimate   =     -95.10589875 Ry
     estimated scf accuracy    <          1.6E-10 Ry

     iteration # 14     ecut=    40.00 Ry     beta=0.70
     Davidson diagonalization with overlap
     ethr =  1.81E-12,  avg # of iterations =  1.0

     total cpu time spent up to now is      115.2 secs

     total energy              =     -95.10589875 Ry
     Harris-Foulkes estimate   =     -95.10589875 Ry
     estimated scf accuracy    <          1.1E-10 Ry

     iteration # 15     ecut=    40.00 Ry     beta=0.70
     Davidson diagonalization with overlap
     ethr =  1.20E-12,  avg # of iterations =  2.0

     total cpu time spent up to now is      116.7 secs

     End of self-consistent calculation

     Number of k-points >= 100: set verbosity='high' to print the bands.

     the Fermi energy is     2.1533 ev

!    total energy              =     -95.10589875 Ry
     Harris-Foulkes estimate   =     -95.10589875 Ry
     estimated scf accuracy    <          1.5E-11 Ry

     The total energy is the sum of the following terms:

     one-electron contribution =     -85.41623831 Ry
     hartree contribution      =      43.28056853 Ry
     xc contribution           =     -14.28511964 Ry
     ewald contribution        =     -38.68501066 Ry
     smearing contrib. (-TS)   =      -0.00009866 Ry

     convergence has been achieved in  15 iterations

     Forces acting on atoms (cartesian axes, Ry/au):

     atom    1 type  1   force =     0.00000000    0.00000000    0.00000000

     Total force =     0.000000     Total SCF correction =     0.000000


     Computing stress (Cartesian axis) and pressure

          total   stress  (Ry/bohr**3)                   (kbar)     P=   11.03
   0.00007496  -0.00000000  -0.00000000         11.03     -0.00     -0.00
   0.00000000   0.00007496   0.00000000          0.00     11.03      0.00
  -0.00000000   0.00000000   0.00007496         -0.00      0.00     11.03


     number of scf cycles    =   5
     number of bfgs steps    =   4

     enthalpy old            =     -95.0586107253 Ry
     enthalpy new            =     -95.0607838194 Ry

     CASE: enthalpy_new < enthalpy_old

     new trust radius        =       0.0924424953 bohr
     new conv_thr            =            1.0E-10 Ry

     new unit-cell volume =    201.23127 a.u.^3 (    29.81940 Ang^3 )
     density =      1.28023 g/cm^3

CELL_PARAMETERS (alat=  8.00000000)
   0.461447015   0.461447015   0.461447015
  -0.461447015   0.461447015   0.461447015
  -0.461447015  -0.461447015   0.461447015

ATOMIC_POSITIONS (crystal)
Na       0.000000000   0.000000000   0.000000000



     Writing output data file na.bcc.save
     NEW-OLD atomic charge density approx. for the potential
     extrapolated charge    8.10658, renormalised to    9.00000

     total cpu time spent up to now is      118.2 secs

     per-process dynamical memory:    31.6 Mb

     Self-consistent Calculation

     iteration #  1     ecut=    40.00 Ry     beta=0.70
     Davidson diagonalization with overlap
     ethr =  1.00E-06,  avg # of iterations =  5.9

     total cpu time spent up to now is      121.1 secs

     total energy              =     -94.71353654 Ry
     Harris-Foulkes estimate   =    -101.53027943 Ry
     estimated scf accuracy    <       0.22870939 Ry

     iteration #  2     ecut=    40.00 Ry     beta=0.70
     Davidson diagonalization with overlap
     ethr =  2.54E-03,  avg # of iterations =  2.6

     total cpu time spent up to now is      123.1 secs

     total energy              =     -95.09776955 Ry
     Harris-Foulkes estimate   =     -95.25918838 Ry
     estimated scf accuracy    <       0.36173254 Ry

     iteration #  3     ecut=    40.00 Ry     beta=0.70
     Davidson diagonalization with overlap
     ethr =  2.54E-03,  avg # of iterations =  2.0

     total cpu time spent up to now is      124.6 secs

     total energy              =     -95.10495150 Ry
     Harris-Foulkes estimate   =     -95.12727030 Ry
     estimated scf accuracy    <       0.05472317 Ry

     iteration #  4     ecut=    40.00 Ry     beta=0.70
     Davidson diagonalization with overlap
     ethr =  6.08E-04,  avg # of iterations =  1.0

     total cpu time spent up to now is      126.0 secs

     total energy              =     -95.10461079 Ry
     Harris-Foulkes estimate   =     -95.10853967 Ry
     estimated scf accuracy    <       0.01177291 Ry

     iteration #  5     ecut=    40.00 Ry     beta=0.70
     Davidson diagonalization with overlap
     ethr =  1.31E-04,  avg # of iterations =  1.0

     total cpu time spent up to now is      127.3 secs

     total energy              =     -95.10431485 Ry
     Harris-Foulkes estimate   =     -95.10524579 Ry
     estimated scf accuracy    <       0.00377487 Ry

     iteration #  6     ecut=    40.00 Ry     beta=0.70
     Davidson diagonalization with overlap
     ethr =  4.19E-05,  avg # of iterations =  1.1

     total cpu time spent up to now is      128.7 secs

     total energy              =     -95.10310353 Ry
     Harris-Foulkes estimate   =     -95.10439679 Ry
     estimated scf accuracy    <       0.00192844 Ry

     iteration #  7     ecut=    40.00 Ry     beta=0.70
     Davidson diagonalization with overlap
     ethr =  2.14E-05,  avg # of iterations =  2.1

     total cpu time spent up to now is      130.3 secs

     total energy              =     -95.10352924 Ry
     Harris-Foulkes estimate   =     -95.10351288 Ry
     estimated scf accuracy    <       0.00000017 Ry

     iteration #  8     ecut=    40.00 Ry     beta=0.70
     Davidson diagonalization with overlap
     ethr =  1.88E-09,  avg # of iterations =  3.2

     total cpu time spent up to now is      132.4 secs

     total energy              =     -95.10350606 Ry
     Harris-Foulkes estimate   =     -95.10354134 Ry
     estimated scf accuracy    <       0.00006205 Ry

     iteration #  9     ecut=    40.00 Ry     beta=0.70
     Davidson diagonalization with overlap
     ethr =  1.88E-09,  avg # of iterations =  3.0

     total cpu time spent up to now is      134.3 secs

     total energy              =     -95.10351256 Ry
     Harris-Foulkes estimate   =     -95.10351429 Ry
     estimated scf accuracy    <       0.00000258 Ry

     iteration # 10     ecut=    40.00 Ry     beta=0.70
     Davidson diagonalization with overlap
     ethr =  1.88E-09,  avg # of iterations =  3.0

     total cpu time spent up to now is      136.2 secs

     total energy              =     -95.10351310 Ry
     Harris-Foulkes estimate   =     -95.10351310 Ry
     estimated scf accuracy    <          2.7E-09 Ry

     iteration # 11     ecut=    40.00 Ry     beta=0.70
     Davidson diagonalization with overlap
     ethr =  3.02E-11,  avg # of iterations =  2.0

     total cpu time spent up to now is      137.8 secs

     total energy              =     -95.10351310 Ry
     Harris-Foulkes estimate   =     -95.10351310 Ry
     estimated scf accuracy    <          4.1E-09 Ry

     iteration # 12     ecut=    40.00 Ry     beta=0.70
     Davidson diagonalization with overlap
     ethr =  3.02E-11,  avg # of iterations =  1.0

     total cpu time spent up to now is      139.1 secs

     total energy              =     -95.10351310 Ry
     Harris-Foulkes estimate   =     -95.10351310 Ry
     estimated scf accuracy    <          1.0E-09 Ry

     iteration # 13     ecut=    40.00 Ry     beta=0.70
     Davidson diagonalization with overlap
     ethr =  1.16E-11,  avg # of iterations =  1.0

     total cpu time spent up to now is      140.5 secs

     total energy              =     -95.10351310 Ry
     Harris-Foulkes estimate   =     -95.10351310 Ry
     estimated scf accuracy    <          1.4E-09 Ry

     iteration # 14     ecut=    40.00 Ry     beta=0.70
     Davidson diagonalization with overlap
     ethr =  1.16E-11,  avg # of iterations =  2.0

     total cpu time spent up to now is      142.1 secs

     End of self-consistent calculation

     Number of k-points >= 100: set verbosity='high' to print the bands.

     the Fermi energy is     2.6270 ev

!    total energy              =     -95.10351310 Ry
     Harris-Foulkes estimate   =     -95.10351310 Ry
     estimated scf accuracy    <          7.5E-12 Ry

     The total energy is the sum of the following terms:

     one-electron contribution =     -83.24970162 Ry
     hartree contribution      =      42.37080578 Ry
     xc contribution           =     -14.29876224 Ry
     ewald contribution        =     -39.92575259 Ry
     smearing contrib. (-TS)   =      -0.00010243 Ry

     convergence has been achieved in  14 iterations

     Forces acting on atoms (cartesian axes, Ry/au):

     atom    1 type  1   force =     0.00000000    0.00000000    0.00000000

     Total force =     0.000000     Total SCF correction =     0.000000


     Computing stress (Cartesian axis) and pressure

          total   stress  (Ry/bohr**3)                   (kbar)     P=   24.78
   0.00016845  -0.00000000   0.00000000         24.78     -0.00      0.00
  -0.00000000   0.00016845  -0.00000000         -0.00     24.78     -0.00
   0.00000000  -0.00000000   0.00016845          0.00     -0.00     24.78


     number of scf cycles    =   6
     number of bfgs steps    =   5

     enthalpy old            =     -95.0607838194 Ry
     enthalpy new            =     -95.0624748245 Ry

     CASE: enthalpy_new < enthalpy_old

     new trust radius        =       0.0316960497 bohr
     new conv_thr            =            1.0E-10 Ry

     new unit-cell volume =    194.56193 a.u.^3 (    28.83110 Ang^3 )
     density =      1.32412 g/cm^3

CELL_PARAMETERS (alat=  8.00000000)
   0.456291770   0.456291770   0.456291770
  -0.456291770   0.456291770   0.456291770
  -0.456291770  -0.456291770   0.456291770

ATOMIC_POSITIONS (crystal)
Na       0.000000000   0.000000000   0.000000000



     Writing output data file na.bcc.save
     NEW-OLD atomic charge density approx. for the potential
     extrapolated charge    8.69171, renormalised to    9.00000

     total cpu time spent up to now is      143.5 secs

     per-process dynamical memory:    31.6 Mb

     Self-consistent Calculation

     iteration #  1     ecut=    40.00 Ry     beta=0.70
     Davidson diagonalization with overlap
     ethr =  1.00E-06,  avg # of iterations =  4.2

     total cpu time spent up to now is      146.1 secs

     total energy              =     -95.04721085 Ry
     Harris-Foulkes estimate   =     -97.33216037 Ry
     estimated scf accuracy    <       0.03115728 Ry

     iteration #  2     ecut=    40.00 Ry     beta=0.70
     Davidson diagonalization with overlap
     ethr =  3.46E-04,  avg # of iterations =  2.9

     total cpu time spent up to now is      148.1 secs

     total energy              =     -95.10264723 Ry
     Harris-Foulkes estimate   =     -95.12537949 Ry
     estimated scf accuracy    <       0.05166683 Ry

     iteration #  3     ecut=    40.00 Ry     beta=0.70
     Davidson diagonalization with overlap
     ethr =  3.46E-04,  avg # of iterations =  1.9

     total cpu time spent up to now is      149.6 secs

     total energy              =     -95.10230906 Ry
     Harris-Foulkes estimate   =     -95.10631835 Ry
     estimated scf accuracy    <       0.00925521 Ry

     iteration #  4     ecut=    40.00 Ry     beta=0.70
     Davidson diagonalization with overlap
     ethr =  1.03E-04,  avg # of iterations =  1.0

     total cpu time spent up to now is      151.0 secs

     total energy              =     -95.10227986 Ry
     Harris-Foulkes estimate   =     -95.10299907 Ry
     estimated scf accuracy    <       0.00171066 Ry

     iteration #  5     ecut=    40.00 Ry     beta=0.70
     Davidson diagonalization with overlap
     ethr =  1.90E-05,  avg # of iterations =  1.4

     total cpu time spent up to now is      152.3 secs

     total energy              =     -95.10242695 Ry
     Harris-Foulkes estimate   =     -95.10242067 Ry
     estimated scf accuracy    <       0.00034506 Ry

     iteration #  6     ecut=    40.00 Ry     beta=0.70
     Davidson diagonalization with overlap
     ethr =  3.83E-06,  avg # of iterations =  1.2

     total cpu time spent up to now is      153.7 secs

     total energy              =     -95.10244900 Ry
     Harris-Foulkes estimate   =     -95.10243184 Ry
     estimated scf accuracy    <       0.00038655 Ry

     iteration #  7     ecut=    40.00 Ry     beta=0.70
     Davidson diagonalization with overlap
     ethr =  3.83E-06,  avg # of iterations =  1.0

     total cpu time spent up to now is      155.1 secs

     total energy              =     -95.10244871 Ry
     Harris-Foulkes estimate   =     -95.10244938 Ry
     estimated scf accuracy    <       0.00041092 Ry

     iteration #  8     ecut=    40.00 Ry     beta=0.70
     Davidson diagonalization with overlap
     ethr =  3.83E-06,  avg # of iterations =  1.0

     total cpu time spent up to now is      156.4 secs

     total energy              =     -95.10239328 Ry
     Harris-Foulkes estimate   =     -95.10244872 Ry
     estimated scf accuracy    <       0.00040986 Ry

     iteration #  9     ecut=    40.00 Ry     beta=0.70
     Davidson diagonalization with overlap
     ethr =  3.83E-06,  avg # of iterations =  1.0

     total cpu time spent up to now is      157.8 secs

     total energy              =     -95.10219196 Ry
     Harris-Foulkes estimate   =     -95.10239545 Ry
     estimated scf accuracy    <       0.00029115 Ry

     iteration # 10     ecut=    40.00 Ry     beta=0.70
     Davidson diagonalization with overlap
     ethr =  3.24E-06,  avg # of iterations =  2.0

     total cpu time spent up to now is      159.4 secs

     total energy              =     -95.10226152 Ry
     Harris-Foulkes estimate   =     -95.10226243 Ry
     estimated scf accuracy    <       0.00000351 Ry

     iteration # 11     ecut=    40.00 Ry     beta=0.70
     Davidson diagonalization with overlap
     ethr =  3.90E-08,  avg # of iterations =  1.0

     total cpu time spent up to now is      160.7 secs

     total energy              =     -95.10226186 Ry
     Harris-Foulkes estimate   =     -95.10226163 Ry
     estimated scf accuracy    <       0.00000081 Ry

     iteration # 12     ecut=    40.00 Ry     beta=0.70
     Davidson diagonalization with overlap
     ethr =  9.01E-09,  avg # of iterations =  1.0

     total cpu time spent up to now is      162.1 secs

     total energy              =     -95.10226115 Ry
     Harris-Foulkes estimate   =     -95.10226187 Ry
     estimated scf accuracy    <       0.00000164 Ry

     iteration # 13     ecut=    40.00 Ry     beta=0.70
     Davidson diagonalization with overlap
     ethr =  9.01E-09,  avg # of iterations =  2.0

     total cpu time spent up to now is      163.7 secs

     total energy              =     -95.10226133 Ry
     Harris-Foulkes estimate   =     -95.10226149 Ry
     estimated scf accuracy    <       0.00000031 Ry

     iteration # 14     ecut=    40.00 Ry     beta=0.70
     Davidson diagonalization with overlap
     ethr =  3.50E-09,  avg # of iterations =  1.6

     total cpu time spent up to now is      165.1 secs

     total energy              =     -95.10226136 Ry
     Harris-Foulkes estimate   =     -95.10226137 Ry
     estimated scf accuracy    <       0.00000002 Ry

     iteration # 15     ecut=    40.00 Ry     beta=0.70
     Davidson diagonalization with overlap
     ethr =  1.87E-10,  avg # of iterations =  2.0

     total cpu time spent up to now is      166.6 secs

     total energy              =     -95.10226137 Ry
     Harris-Foulkes estimate   =     -95.10226136 Ry
     estimated scf accuracy    <          7.6E-09 Ry

     iteration # 16     ecut=    40.00 Ry     beta=0.70
     Davidson diagonalization with overlap
     ethr =  8.42E-11,  avg # of iterations =  2.0

     total cpu time spent up to now is      168.2 secs

     total energy              =     -95.10226136 Ry
     Harris-Foulkes estimate   =     -95.10226137 Ry
     estimated scf accuracy    <       0.00000003 Ry

     iteration # 17     ecut=    40.00 Ry     beta=0.70
     Davidson diagonalization with overlap
     ethr =  8.42E-11,  avg # of iterations =  2.0

     total cpu time spent up to now is      169.9 secs

     total energy              =     -95.10226136 Ry
     Harris-Foulkes estimate   =     -95.10226136 Ry
     estimated scf accuracy    <          1.1E-10 Ry

     iteration # 18     ecut=    40.00 Ry     beta=0.70
     Davidson diagonalization with overlap
     ethr =  1.26E-12,  avg # of iterations =  1.0

     total cpu time spent up to now is      171.2 secs

     total energy              =     -95.10226136 Ry
     Harris-Foulkes estimate   =     -95.10226136 Ry
     estimated scf accuracy    <          1.1E-10 Ry

     iteration # 19     ecut=    40.00 Ry     beta=0.70
     Davidson diagonalization with overlap
     ethr =  1.17E-12,  avg # of iterations =  2.1

     total cpu time spent up to now is      172.9 secs

     total energy              =     -95.10226137 Ry
     Harris-Foulkes estimate   =     -95.10226136 Ry
     estimated scf accuracy    <          6.4E-10 Ry

     iteration # 20     ecut=    40.00 Ry     beta=0.70
     Davidson diagonalization with overlap
     ethr =  1.17E-12,  avg # of iterations =  3.0

     total cpu time spent up to now is      174.8 secs

     total energy              =     -95.10226136 Ry
     Harris-Foulkes estimate   =     -95.10226137 Ry
     estimated scf accuracy    <       0.00000002 Ry

     iteration # 21     ecut=    40.00 Ry     beta=0.70
     Davidson diagonalization with overlap
     ethr =  1.17E-12,  avg # of iterations =  3.0

     total cpu time spent up to now is      176.8 secs

     total energy              =     -95.10226136 Ry
     Harris-Foulkes estimate   =     -95.10226136 Ry
     estimated scf accuracy    <          1.4E-09 Ry

     iteration # 22     ecut=    40.00 Ry     beta=0.70
     Davidson diagonalization with overlap
     ethr =  1.17E-12,  avg # of iterations =  3.0

     total cpu time spent up to now is      178.6 secs

     End of self-consistent calculation

     Number of k-points >= 100: set verbosity='high' to print the bands.

     the Fermi energy is     2.8077 ev

!    total energy              =     -95.10226136 Ry
     Harris-Foulkes estimate   =     -95.10226136 Ry
     estimated scf accuracy    <          1.4E-11 Ry

     The total energy is the sum of the following terms:

     one-electron contribution =     -82.46370621 Ry
     hartree contribution      =      42.04219041 Ry
     xc contribution           =     -14.30380311 Ry
     ewald contribution        =     -40.37683898 Ry
     smearing contrib. (-TS)   =      -0.00010347 Ry

     convergence has been achieved in  22 iterations

     Forces acting on atoms (cartesian axes, Ry/au):

     atom    1 type  1   force =     0.00000000    0.00000000    0.00000000

     Total force =     0.000000     Total SCF correction =     0.000000


     Computing stress (Cartesian axis) and pressure

          total   stress  (Ry/bohr**3)                   (kbar)     P=   30.57
   0.00020780  -0.00000000   0.00000000         30.57     -0.00      0.00
  -0.00000000   0.00020780  -0.00000000         -0.00     30.57     -0.00
   0.00000000  -0.00000000   0.00020780          0.00     -0.00     30.57


     number of scf cycles    =   7
     number of bfgs steps    =   6

     enthalpy old            =     -95.0624748245 Ry
     enthalpy new            =     -95.0625832012 Ry

     CASE: enthalpy_new < enthalpy_old

     new trust radius        =       0.0030292785 bohr
     new conv_thr            =            1.0E-10 Ry

     new unit-cell volume =    195.19643 a.u.^3 (    28.92513 Ang^3 )
     density =      1.31981 g/cm^3

CELL_PARAMETERS (alat=  8.00000000)
   0.456787247   0.456787247   0.456787247
  -0.456787247   0.456787247   0.456787247
  -0.456787247  -0.456787247   0.456787247

ATOMIC_POSITIONS (crystal)
Na       0.000000000   0.000000000   0.000000000



     Writing output data file na.bcc.save
     NEW-OLD atomic charge density approx. for the potential
     extrapolated charge    9.02923, renormalised to    9.00000

     total cpu time spent up to now is      180.0 secs

     per-process dynamical memory:    31.6 Mb

     Self-consistent Calculation

     iteration #  1     ecut=    40.00 Ry     beta=0.70
     Davidson diagonalization with overlap
     ethr =  1.00E-06,  avg # of iterations =  2.0

     total cpu time spent up to now is      181.9 secs

     total energy              =     -95.10183390 Ry
     Harris-Foulkes estimate   =     -94.88931193 Ry
     estimated scf accuracy    <       0.00031227 Ry

     iteration #  2     ecut=    40.00 Ry     beta=0.70
     Davidson diagonalization with overlap
     ethr =  3.47E-06,  avg # of iterations =  3.0

     total cpu time spent up to now is      183.9 secs

     total energy              =     -95.10240274 Ry
     Harris-Foulkes estimate   =     -95.10263227 Ry
     estimated scf accuracy    <       0.00052338 Ry

     iteration #  3     ecut=    40.00 Ry     beta=0.70
     Davidson diagonalization with overlap
     ethr =  3.47E-06,  avg # of iterations =  1.5

     total cpu time spent up to now is      185.3 secs

     total energy              =     -95.10240734 Ry
     Harris-Foulkes estimate   =     -95.10243693 Ry
     estimated scf accuracy    <       0.00010249 Ry

     iteration #  4     ecut=    40.00 Ry     beta=0.70
     Davidson diagonalization with overlap
     ethr =  1.14E-06,  avg # of iterations =  1.0

     total cpu time spent up to now is      186.7 secs

     total energy              =     -95.10239804 Ry
     Harris-Foulkes estimate   =     -95.10241098 Ry
     estimated scf accuracy    <       0.00004143 Ry

     iteration #  5     ecut=    40.00 Ry     beta=0.70
     Davidson diagonalization with overlap
     ethr =  4.60E-07,  avg # of iterations =  1.0

     total cpu time spent up to now is      188.0 secs

     total energy              =     -95.10239378 Ry
     Harris-Foulkes estimate   =     -95.10239931 Ry
     estimated scf accuracy    <       0.00001622 Ry

     iteration #  6     ecut=    40.00 Ry     beta=0.70
     Davidson diagonalization with overlap
     ethr =  1.80E-07,  avg # of iterations =  1.0

     total cpu time spent up to now is      189.4 secs

     total energy              =     -95.10239184 Ry
     Harris-Foulkes estimate   =     -95.10239437 Ry
     estimated scf accuracy    <       0.00000560 Ry

     iteration #  7     ecut=    40.00 Ry     beta=0.70
     Davidson diagonalization with overlap
     ethr =  6.22E-08,  avg # of iterations =  1.0

     total cpu time spent up to now is      190.7 secs

     total energy              =     -95.10239162 Ry
     Harris-Foulkes estimate   =     -95.10239224 Ry
     estimated scf accuracy    <       0.00000099 Ry

     iteration #  8     ecut=    40.00 Ry     beta=0.70
     Davidson diagonalization with overlap
     ethr =  1.10E-08,  avg # of iterations =  2.0

     total cpu time spent up to now is      192.3 secs

     total energy              =     -95.10239181 Ry
     Harris-Foulkes estimate   =     -95.10239181 Ry
     estimated scf accuracy    <       0.00000001 Ry

     iteration #  9     ecut=    40.00 Ry     beta=0.70
     Davidson diagonalization with overlap
     ethr =  1.20E-10,  avg # of iterations =  1.6

     total cpu time spent up to now is      193.7 secs

     total energy              =     -95.10239181 Ry
     Harris-Foulkes estimate   =     -95.10239181 Ry
     estimated scf accuracy    <          9.5E-09 Ry

     iteration # 10     ecut=    40.00 Ry     beta=0.70
     Davidson diagonalization with overlap
     ethr =  1.05E-10,  avg # of iterations =  1.0

     total cpu time spent up to now is      195.1 secs

     total energy              =     -95.10239180 Ry
     Harris-Foulkes estimate   =     -95.10239181 Ry
     estimated scf accuracy    <          8.9E-09 Ry

     iteration # 11     ecut=    40.00 Ry     beta=0.70
     Davidson diagonalization with overlap
     ethr =  9.84E-11,  avg # of iterations =  2.0

     total cpu time spent up to now is      196.7 secs

     total energy              =     -95.10239180 Ry
     Harris-Foulkes estimate   =     -95.10239180 Ry
     estimated scf accuracy    <          1.4E-09 Ry

     iteration # 12     ecut=    40.00 Ry     beta=0.70
     Davidson diagonalization with overlap
     ethr =  1.61E-11,  avg # of iterations =  2.0

     total cpu time spent up to now is      198.3 secs

     total energy              =     -95.10239180 Ry
     Harris-Foulkes estimate   =     -95.10239180 Ry
     estimated scf accuracy    <          1.0E-09 Ry

     iteration # 13     ecut=    40.00 Ry     beta=0.70
     Davidson diagonalization with overlap
     ethr =  1.11E-11,  avg # of iterations =  1.0

     total cpu time spent up to now is      199.7 secs

     total energy              =     -95.10239180 Ry
     Harris-Foulkes estimate   =     -95.10239180 Ry
     estimated scf accuracy    <          3.6E-10 Ry

     iteration # 14     ecut=    40.00 Ry     beta=0.70
     Davidson diagonalization with overlap
     ethr =  3.98E-12,  avg # of iterations =  2.0

     total cpu time spent up to now is      201.3 secs

     total energy              =     -95.10239180 Ry
     Harris-Foulkes estimate   =     -95.10239180 Ry
     estimated scf accuracy    <          2.4E-10 Ry

     iteration # 15     ecut=    40.00 Ry     beta=0.70
     Davidson diagonalization with overlap
     ethr =  2.70E-12,  avg # of iterations =  1.0

     total cpu time spent up to now is      202.6 secs

     total energy              =     -95.10239180 Ry
     Harris-Foulkes estimate   =     -95.10239180 Ry
     estimated scf accuracy    <          1.6E-10 Ry

     iteration # 16     ecut=    40.00 Ry     beta=0.70
     Davidson diagonalization with overlap
     ethr =  1.76E-12,  avg # of iterations =  2.0

     total cpu time spent up to now is      204.3 secs

     End of self-consistent calculation

     Number of k-points >= 100: set verbosity='high' to print the bands.

     the Fermi energy is     2.7899 ev

!    total energy              =     -95.10239180 Ry
     Harris-Foulkes estimate   =     -95.10239180 Ry
     estimated scf accuracy    <          1.5E-11 Ry

     The total energy is the sum of the following terms:

     one-electron contribution =     -82.53998350 Ry
     hartree contribution      =      42.07404985 Ry
     xc contribution           =     -14.30331249 Ry
     ewald contribution        =     -40.33304229 Ry
     smearing contrib. (-TS)   =      -0.00010338 Ry

     convergence has been achieved in  16 iterations

     Forces acting on atoms (cartesian axes, Ry/au):

     atom    1 type  1   force =     0.00000000    0.00000000    0.00000000

     Total force =     0.000000     Total SCF correction =     0.000000


     Computing stress (Cartesian axis) and pressure

          total   stress  (Ry/bohr**3)                   (kbar)     P=   29.99
   0.00020388  -0.00000000  -0.00000000         29.99     -0.00     -0.00
  -0.00000000   0.00020388   0.00000000         -0.00     29.99      0.00
   0.00000000   0.00000000   0.00020388          0.00      0.00     29.99


     bfgs converged in   8 scf cycles and   7 bfgs steps
     (criteria: energy <  1.0E-04 Ry, force <  1.0E-03Ry/Bohr, cell <  5.0E-01kbar)

     End of BFGS Geometry Optimization

     Final enthalpy =     -95.0625842456 Ry
Begin final coordinates
     new unit-cell volume =    195.19643 a.u.^3 (    28.92513 Ang^3 )
     density =      1.31981 g/cm^3

CELL_PARAMETERS (alat=  8.00000000)
   0.456787247   0.456787247   0.456787247
  -0.456787247   0.456787247   0.456787247
  -0.456787247  -0.456787247   0.456787247

ATOMIC_POSITIONS (crystal)
Na       0.000000000   0.000000000   0.000000000
End final coordinates



     A final scf calculation at the relaxed structure.
     The G-vectors are recalculated for the final unit cell
     Results may differ from those at the preceding step.

     Parallelization info
     --------------------
     sticks:   dense  smooth     PW     G-vecs:    dense   smooth      PW
     Min         239     120     38                 4695     1674     301
     Max         240     121     39                 4696     1675     302
     Sum         957     483    155                18781     6699    1205



     bravais-lattice index     =            3
     lattice parameter (alat)  =       8.0000  a.u.
     unit-cell volume          =     195.1964 (a.u.)^3
     number of atoms/cell      =            1
     number of atomic types    =            1
     number of electrons       =         9.00
     number of Kohn-Sham states=            9
     kinetic-energy cutoff     =      40.0000  Ry
     charge density cutoff     =     320.0000  Ry
     convergence threshold     =      1.0E-10
     mixing beta               =       0.7000
     number of iterations used =            8  plain     mixing
     Exchange-correlation      = SLA  PW   PBE  PBE ( 1  4  3  4 0 0)

     celldm(1)=   8.000000  celldm(2)=   0.000000  celldm(3)=   0.000000
     celldm(4)=   0.000000  celldm(5)=   0.000000  celldm(6)=   0.000000

     crystal axes: (cart. coord. in units of alat)
               a(1) = (   0.456787   0.456787   0.456787 )  
               a(2) = (  -0.456787   0.456787   0.456787 )  
               a(3) = (  -0.456787  -0.456787   0.456787 )  

     reciprocal axes: (cart. coord. in units 2 pi/alat)
               b(1) = (  1.094601  0.000000  1.094601 )  
               b(2) = ( -1.094601  1.094601  0.000000 )  
               b(3) = ( -0.000000 -1.094601  1.094601 )  


     PseudoPot. # 1 for Na read from file:
     /home/s1333534/quantum_espresso/qe-6.1/pseudo/Na_pbe_v1.uspp.F.UPF
     MD5 check sum: 76a99c7e9422403d3e93cbc85ab7bccb
     Pseudo is Ultrasoft, Zval =  9.0
     Generated by new atomic code, or converted to UPF format
     Using radial grid of  819 points,  5 beta functions with: 
                l(1) =   0
                l(2) =   0
                l(3) =   1
                l(4) =   1
                l(5) =   2
     Q(r) pseudized with  8 coefficients,  rinner =    1.250   1.250   1.250
                                                       1.250   1.250

     atomic species   valence    mass     pseudopotential
        Na             9.00    22.99000     Na( 1.00)

     48 Sym. Ops., with inversion, found



   Cartesian axes

     site n.     atom                  positions (alat units)
         1           Na  tau(   1) = (   0.0000000   0.0000000   0.0000000  )

     number of k points=   250  Marzari-Vanderbilt smearing, width (Ry)=  0.0200

     Number of k-points >= 100: set verbosity='high' to print them.

     Dense  grid:    18781 G-vectors     FFT dimensions: (  40,  40,  40)

     Smooth grid:     6699 G-vectors     FFT dimensions: (  25,  25,  25)

     Estimated max dynamical RAM per process >      10.44MB

     Estimated total allocated dynamical RAM >      41.75MB

     Initial potential from superposition of free atoms

     starting charge    8.99371, renormalised to    9.00000
     Starting wfc are    5 randomized atomic wfcs +    4 random wfc

     Writing output data file na.bcc.save

     total cpu time spent up to now is      206.1 secs

     per-process dynamical memory:    29.0 Mb

     Self-consistent Calculation

     iteration #  1     ecut=    40.00 Ry     beta=0.70
     Davidson diagonalization with overlap
     c_bands:  1 eigenvalues not converged
     c_bands:  1 eigenvalues not converged
     ethr =  1.00E-06,  avg # of iterations = 11.3

     total cpu time spent up to now is      209.2 secs

     total energy              =     -95.10179641 Ry
     Harris-Foulkes estimate   =     -95.10215454 Ry
     estimated scf accuracy    <       0.00106703 Ry

     iteration #  2     ecut=    40.00 Ry     beta=0.70
     Davidson diagonalization with overlap
     ethr =  1.19E-05,  avg # of iterations =  2.0

     total cpu time spent up to now is      210.3 secs

     total energy              =     -95.10193520 Ry
     Harris-Foulkes estimate   =     -95.10196719 Ry
     estimated scf accuracy    <       0.00012302 Ry

     iteration #  3     ecut=    40.00 Ry     beta=0.70
     Davidson diagonalization with overlap
     ethr =  1.37E-06,  avg # of iterations =  2.0

     total cpu time spent up to now is      211.3 secs

     total energy              =     -95.10194908 Ry
     Harris-Foulkes estimate   =     -95.10195043 Ry
     estimated scf accuracy    <       0.00000753 Ry

     iteration #  4     ecut=    40.00 Ry     beta=0.70
     Davidson diagonalization with overlap
     ethr =  8.37E-08,  avg # of iterations =  1.0

     total cpu time spent up to now is      212.3 secs

     total energy              =     -95.10194974 Ry
     Harris-Foulkes estimate   =     -95.10194968 Ry
     estimated scf accuracy    <          9.3E-09 Ry

     iteration #  5     ecut=    40.00 Ry     beta=0.70
     Davidson diagonalization with overlap
     ethr =  1.04E-10,  avg # of iterations =  3.0

     total cpu time spent up to now is      213.5 secs

     total energy              =     -95.10194976 Ry
     Harris-Foulkes estimate   =     -95.10194976 Ry
     estimated scf accuracy    <          1.1E-09 Ry

     iteration #  6     ecut=    40.00 Ry     beta=0.70
     Davidson diagonalization with overlap
     ethr =  1.24E-11,  avg # of iterations =  1.5

     total cpu time spent up to now is      214.5 secs

     End of self-consistent calculation

     Number of k-points >= 100: set verbosity='high' to print the bands.

     the Fermi energy is     2.7890 ev

!    total energy              =     -95.10194976 Ry
     Harris-Foulkes estimate   =     -95.10194976 Ry
     estimated scf accuracy    <          3.2E-11 Ry

     The total energy is the sum of the following terms:

     one-electron contribution =     -82.53894576 Ry
     hartree contribution      =      42.07315842 Ry
     xc contribution           =     -14.30301676 Ry
     ewald contribution        =     -40.33304229 Ry
     smearing contrib. (-TS)   =      -0.00010337 Ry

     convergence has been achieved in   6 iterations

     Forces acting on atoms (cartesian axes, Ry/au):

     atom    1 type  1   force =     0.00000000    0.00000000    0.00000000

     Total force =     0.000000     Total SCF correction =     0.000000


     Computing stress (Cartesian axis) and pressure

          total   stress  (Ry/bohr**3)                   (kbar)     P=   26.61
   0.00018090   0.00000000  -0.00000000         26.61      0.00     -0.00
   0.00000000   0.00018090   0.00000000          0.00     26.61      0.00
  -0.00000000   0.00000000   0.00018090         -0.00      0.00     26.61


     Writing output data file na.bcc.save

     init_run     :      1.53s CPU      1.59s WALL (       2 calls)
     electrons    :    191.17s CPU    201.86s WALL (       9 calls)
     update_pot   :      1.64s CPU      1.66s WALL (       7 calls)
     forces       :      1.33s CPU      1.35s WALL (       9 calls)
     stress       :      6.40s CPU      6.42s WALL (       9 calls)

     Called by init_run:
     wfcinit      :      0.83s CPU      0.89s WALL (       2 calls)
     potinit      :      0.10s CPU      0.10s WALL (       2 calls)

     Called by electrons:
     c_bands      :    155.04s CPU    164.00s WALL (     125 calls)
     sum_band     :     32.58s CPU     34.25s WALL (     125 calls)
     v_of_rho     :      1.54s CPU      1.56s WALL (     133 calls)
     newd         :      1.93s CPU      1.95s WALL (     133 calls)
     mix_rho      :      0.16s CPU      0.16s WALL (     125 calls)

     Called by c_bands:
     init_us_2    :      8.22s CPU      8.21s WALL (   67500 calls)
     cegterg      :    146.87s CPU    155.71s WALL (   31250 calls)

     Called by sum_band:
     sum_band:bec :      0.08s CPU      0.10s WALL (   31250 calls)
     addusdens    :      2.34s CPU      2.37s WALL (     125 calls)

     Called by *egterg:
     h_psi        :    122.32s CPU    129.85s WALL (   95756 calls)
     s_psi        :      1.92s CPU      1.50s WALL (   95756 calls)
     g_psi        :      0.99s CPU      0.94s WALL (   64006 calls)
     cdiaghg      :     12.09s CPU     12.62s WALL (   93256 calls)

     Called by h_psi:
     h_psi:pot    :    121.90s CPU    129.21s WALL (   95756 calls)
     h_psi:calbec :      3.03s CPU      2.39s WALL (   95756 calls)
     vloc_psi     :    117.78s CPU    124.98s WALL (   95756 calls)
     add_vuspsi   :      0.97s CPU      1.60s WALL (   95756 calls)

     General routines
     calbec       :      3.98s CPU      3.48s WALL (  138256 calls)
     fft          :      0.74s CPU      0.75s WALL (    2175 calls)
     ffts         :      0.03s CPU      0.03s WALL (     258 calls)
     fftw         :    132.19s CPU    133.36s WALL ( 1685940 calls)
     interpolate  :      0.13s CPU      0.14s WALL (     258 calls)
     davcio       :      0.00s CPU      0.01s WALL (     500 calls)

     Parallel routines
     fft_scatter  :     21.72s CPU     26.30s WALL ( 1688373 calls)

     PWSCF        :  3m24.34s CPU     3m35.28s WALL


   This run was terminated on:  15:45:34  20Dec2017            

=------------------------------------------------------------------------------=
   JOB DONE.
=------------------------------------------------------------------------------=
