
     Program PWSCF v.6.1 (svn rev. 13369) starts on 20Dec2017 at 15:51:15 

     This program is part of the open-source Quantum ESPRESSO suite
     for quantum simulation of materials; please cite
         "P. Giannozzi et al., J. Phys.:Condens. Matter 21 395502 (2009);
          URL http://www.quantum-espresso.org", 
     in publications or presentations arising from this work. More details at
     http://www.quantum-espresso.org/quote

     Parallel version (MPI), running on     4 processors
     R & G space division:  proc/nbgrp/npool/nimage =       4
     Waiting for input...
     Reading input from standard input

     Current dimensions of program PWSCF are:
     Max number of different atomic species (ntypx) = 10
     Max number of k-points (npk) =  40000
     Max angular momentum in pseudopotentials (lmaxx) =  3

     Subspace diagonalization in iterative solution of the eigenvalue problem:
     a serial algorithm will be used


     Parallelization info
     --------------------
     sticks:   dense  smooth     PW     G-vecs:    dense   smooth      PW
     Min         287     142     43                 6207     2171     375
     Max         288     144     44                 6210     2172     378
     Sum        1151     571    173                24835     8685    1505



     bravais-lattice index     =            3
     lattice parameter (alat)  =       8.0000  a.u.
     unit-cell volume          =     256.0000 (a.u.)^3
     number of atoms/cell      =            1
     number of atomic types    =            1
     number of electrons       =         9.00
     number of Kohn-Sham states=            9
     kinetic-energy cutoff     =      40.0000  Ry
     charge density cutoff     =     320.0000  Ry
     convergence threshold     =      1.0E-08
     mixing beta               =       0.7000
     number of iterations used =            8  plain     mixing
     Exchange-correlation      = SLA  PW   PBE  PBE ( 1  4  3  4 0 0)
     nstep                     =           50


     celldm(1)=   8.000000  celldm(2)=   0.000000  celldm(3)=   0.000000
     celldm(4)=   0.000000  celldm(5)=   0.000000  celldm(6)=   0.000000

     crystal axes: (cart. coord. in units of alat)
               a(1) = (   0.500000   0.500000   0.500000 )  
               a(2) = (  -0.500000   0.500000   0.500000 )  
               a(3) = (  -0.500000  -0.500000   0.500000 )  

     reciprocal axes: (cart. coord. in units 2 pi/alat)
               b(1) = (  1.000000  0.000000  1.000000 )  
               b(2) = ( -1.000000  1.000000  0.000000 )  
               b(3) = (  0.000000 -1.000000  1.000000 )  


     PseudoPot. # 1 for Na read from file:
     /home/s1333534/quantum_espresso/qe-6.1/pseudo/Na_pbe_v1.uspp.F.UPF
     MD5 check sum: 76a99c7e9422403d3e93cbc85ab7bccb
     Pseudo is Ultrasoft, Zval =  9.0
     Generated by new atomic code, or converted to UPF format
     Using radial grid of  819 points,  5 beta functions with: 
                l(1) =   0
                l(2) =   0
                l(3) =   1
                l(4) =   1
                l(5) =   2
     Q(r) pseudized with  8 coefficients,  rinner =    1.250   1.250   1.250
                                                       1.250   1.250

     atomic species   valence    mass     pseudopotential
        Na             9.00    22.99000     Na( 1.00)

     48 Sym. Ops., with inversion, found



   Cartesian axes

     site n.     atom                  positions (alat units)
         1           Na  tau(   1) = (   0.0000000   0.0000000   0.0000000  )

     number of k points=   250  Marzari-Vanderbilt smearing, width (Ry)=  0.0200

     Number of k-points >= 100: set verbosity='high' to print them.

     Dense  grid:    24835 G-vectors     FFT dimensions: (  40,  40,  40)

     Smooth grid:     8685 G-vectors     FFT dimensions: (  27,  27,  27)

     Estimated max dynamical RAM per process >      13.36MB

     Estimated total allocated dynamical RAM >      53.44MB

     Initial potential from superposition of free atoms

     starting charge    8.99371, renormalised to    9.00000
     Starting wfc are    5 randomized atomic wfcs +    4 random wfc

     total cpu time spent up to now is        1.0 secs

     per-process dynamical memory:    19.6 Mb

     Self-consistent Calculation

     iteration #  1     ecut=    40.00 Ry     beta=0.70
     Davidson diagonalization with overlap
     ethr =  1.00E-02,  avg # of iterations =  5.8

     Threshold (ethr) on eigenvalues was too large:
     Diagonalizing with lowered threshold

     Davidson diagonalization with overlap
     ethr =  9.84E-06,  avg # of iterations =  4.8

     total cpu time spent up to now is        5.6 secs

     total energy              =     -95.10637787 Ry
     Harris-Foulkes estimate   =     -95.10656725 Ry
     estimated scf accuracy    <       0.00088332 Ry

     iteration #  2     ecut=    40.00 Ry     beta=0.70
     Davidson diagonalization with overlap
     ethr =  9.81E-06,  avg # of iterations =  2.0

     total cpu time spent up to now is        7.1 secs

     total energy              =     -95.10647616 Ry
     Harris-Foulkes estimate   =     -95.10649624 Ry
     estimated scf accuracy    <       0.00009724 Ry

     iteration #  3     ecut=    40.00 Ry     beta=0.70
     Davidson diagonalization with overlap
     ethr =  1.08E-06,  avg # of iterations =  2.1

     total cpu time spent up to now is        8.6 secs

     total energy              =     -95.10648758 Ry
     Harris-Foulkes estimate   =     -95.10648858 Ry
     estimated scf accuracy    <       0.00000602 Ry

     iteration #  4     ecut=    40.00 Ry     beta=0.70
     Davidson diagonalization with overlap
     ethr =  6.69E-08,  avg # of iterations =  1.0

     total cpu time spent up to now is       10.0 secs

     total energy              =     -95.10648815 Ry
     Harris-Foulkes estimate   =     -95.10648811 Ry
     estimated scf accuracy    <       0.00000001 Ry

     iteration #  5     ecut=    40.00 Ry     beta=0.70
     Davidson diagonalization with overlap
     ethr =  1.40E-10,  avg # of iterations =  3.0

     total cpu time spent up to now is       11.8 secs

     End of self-consistent calculation

     Number of k-points >= 100: set verbosity='high' to print the bands.

     the Fermi energy is     1.5119 ev

!    total energy              =     -95.10648818 Ry
     Harris-Foulkes estimate   =     -95.10648818 Ry
     estimated scf accuracy    <          1.7E-09 Ry

     The total energy is the sum of the following terms:

     one-electron contribution =     -88.63767028 Ry
     hartree contribution      =      44.64403185 Ry
     xc contribution           =     -14.26551967 Ry
     ewald contribution        =     -36.84723868 Ry
     smearing contrib. (-TS)   =      -0.00009141 Ry

     convergence has been achieved in   5 iterations

     Forces acting on atoms (cartesian axes, Ry/au):

     atom    1 type  1   force =     0.00000000    0.00000000    0.00000000

     Total force =     0.000000     Total SCF correction =     0.000000


     Computing stress (Cartesian axis) and pressure

          total   stress  (Ry/bohr**3)                   (kbar)     P=   -4.40
  -0.00002994  -0.00000000   0.00000000         -4.40     -0.00      0.00
  -0.00000000  -0.00002994   0.00000000         -0.00     -4.40      0.00
   0.00000000   0.00000000  -0.00002994          0.00      0.00     -4.40


     BFGS Geometry Optimization

     number of scf cycles    =   1
     number of bfgs steps    =   0

     enthalpy new            =     -95.0020730093 Ry

     new trust radius        =       0.0350249455 bohr
     new conv_thr            =       0.0000000100 Ry

     new unit-cell volume =    247.68568 a.u.^3 (    36.70323 Ang^3 )
     density =      1.04012 g/cm^3

CELL_PARAMETERS (alat=  8.00000000)
   0.494527352   0.494527352   0.494527352
  -0.494527352   0.494527352   0.494527352
  -0.494527352  -0.494527352   0.494527352

ATOMIC_POSITIONS (crystal)
Na       0.000000000   0.000000000   0.000000000



     Writing output data file na.bcc.save
     NEW-OLD atomic charge density approx. for the potential
     extrapolated charge    8.69810, renormalised to    9.00000

     total cpu time spent up to now is       13.2 secs

     per-process dynamical memory:    31.4 Mb

     Self-consistent Calculation

     iteration #  1     ecut=    40.00 Ry     beta=0.70
     Davidson diagonalization with overlap
     c_bands:  1 eigenvalues not converged
     ethr =  1.00E-06,  avg # of iterations =  4.6

     total cpu time spent up to now is       15.9 secs

     total energy              =     -95.05250530 Ry
     Harris-Foulkes estimate   =     -97.44479156 Ry
     estimated scf accuracy    <       0.03053455 Ry

     iteration #  2     ecut=    40.00 Ry     beta=0.70
     Davidson diagonalization with overlap
     ethr =  3.39E-04,  avg # of iterations =  2.9

     total cpu time spent up to now is       17.9 secs

     total energy              =     -95.10706605 Ry
     Harris-Foulkes estimate   =     -95.12936864 Ry
     estimated scf accuracy    <       0.05064387 Ry

     iteration #  3     ecut=    40.00 Ry     beta=0.70
     Davidson diagonalization with overlap
     ethr =  3.39E-04,  avg # of iterations =  2.0

     total cpu time spent up to now is       19.4 secs

     total energy              =     -95.10673358 Ry
     Harris-Foulkes estimate   =     -95.11068439 Ry
     estimated scf accuracy    <       0.00900512 Ry

     iteration #  4     ecut=    40.00 Ry     beta=0.70
     Davidson diagonalization with overlap
     ethr =  1.00E-04,  avg # of iterations =  1.0

     total cpu time spent up to now is       20.8 secs

     total energy              =     -95.10755416 Ry
     Harris-Foulkes estimate   =     -95.10737873 Ry
     estimated scf accuracy    <       0.00167097 Ry

     iteration #  5     ecut=    40.00 Ry     beta=0.70
     Davidson diagonalization with overlap
     ethr =  1.86E-05,  avg # of iterations =  1.0

     total cpu time spent up to now is       22.1 secs

     total energy              =     -95.10686871 Ry
     Harris-Foulkes estimate   =     -95.10758437 Ry
     estimated scf accuracy    <       0.00209436 Ry

     iteration #  6     ecut=    40.00 Ry     beta=0.70
     Davidson diagonalization with overlap
     ethr =  1.86E-05,  avg # of iterations =  1.0

     total cpu time spent up to now is       23.5 secs

     total energy              =     -95.10674957 Ry
     Harris-Foulkes estimate   =     -95.10696233 Ry
     estimated scf accuracy    <       0.00066561 Ry

     iteration #  7     ecut=    40.00 Ry     beta=0.70
     Davidson diagonalization with overlap
     ethr =  7.40E-06,  avg # of iterations =  1.0

     total cpu time spent up to now is       24.8 secs

     total energy              =     -95.10668882 Ry
     Harris-Foulkes estimate   =     -95.10677532 Ry
     estimated scf accuracy    <       0.00023892 Ry

     iteration #  8     ecut=    40.00 Ry     beta=0.70
     Davidson diagonalization with overlap
     ethr =  2.65E-06,  avg # of iterations =  1.1

     total cpu time spent up to now is       26.2 secs

     total energy              =     -95.10665289 Ry
     Harris-Foulkes estimate   =     -95.10669958 Ry
     estimated scf accuracy    <       0.00007252 Ry

     iteration #  9     ecut=    40.00 Ry     beta=0.70
     Davidson diagonalization with overlap
     ethr =  8.06E-07,  avg # of iterations =  2.0

     total cpu time spent up to now is       27.8 secs

     total energy              =     -95.10666638 Ry
     Harris-Foulkes estimate   =     -95.10666657 Ry
     estimated scf accuracy    <       0.00000040 Ry

     iteration # 10     ecut=    40.00 Ry     beta=0.70
     Davidson diagonalization with overlap
     ethr =  4.49E-09,  avg # of iterations =  1.8

     total cpu time spent up to now is       29.2 secs

     total energy              =     -95.10666639 Ry
     Harris-Foulkes estimate   =     -95.10666643 Ry
     estimated scf accuracy    <       0.00000008 Ry

     iteration # 11     ecut=    40.00 Ry     beta=0.70
     Davidson diagonalization with overlap
     ethr =  9.06E-10,  avg # of iterations =  2.0

     total cpu time spent up to now is       30.8 secs

     total energy              =     -95.10666642 Ry
     Harris-Foulkes estimate   =     -95.10666641 Ry
     estimated scf accuracy    <       0.00000004 Ry

     iteration # 12     ecut=    40.00 Ry     beta=0.70
     Davidson diagonalization with overlap
     ethr =  4.41E-10,  avg # of iterations =  1.0

     total cpu time spent up to now is       32.2 secs

     total energy              =     -95.10666642 Ry
     Harris-Foulkes estimate   =     -95.10666642 Ry
     estimated scf accuracy    <       0.00000008 Ry

     iteration # 13     ecut=    40.00 Ry     beta=0.70
     Davidson diagonalization with overlap
     ethr =  4.41E-10,  avg # of iterations =  1.0

     total cpu time spent up to now is       33.5 secs

     total energy              =     -95.10666640 Ry
     Harris-Foulkes estimate   =     -95.10666642 Ry
     estimated scf accuracy    <       0.00000009 Ry

     iteration # 14     ecut=    40.00 Ry     beta=0.70
     Davidson diagonalization with overlap
     ethr =  4.41E-10,  avg # of iterations =  1.6

     total cpu time spent up to now is       34.9 secs

     End of self-consistent calculation

     Number of k-points >= 100: set verbosity='high' to print the bands.

     the Fermi energy is     1.6483 ev

!    total energy              =     -95.10666640 Ry
     Harris-Foulkes estimate   =     -95.10666640 Ry
     estimated scf accuracy    <          2.3E-09 Ry

     The total energy is the sum of the following terms:

     one-electron contribution =     -87.92138967 Ry
     hartree contribution      =      44.33957522 Ry
     xc contribution           =     -14.26975312 Ry
     ewald contribution        =     -37.25500573 Ry
     smearing contrib. (-TS)   =      -0.00009310 Ry

     convergence has been achieved in  14 iterations

     Forces acting on atoms (cartesian axes, Ry/au):

     atom    1 type  1   force =     0.00000000    0.00000000    0.00000000

     Total force =     0.000000     Total SCF correction =     0.000000


     Computing stress (Cartesian axis) and pressure

          total   stress  (Ry/bohr**3)                   (kbar)     P=   -1.89
  -0.00001285  -0.00000000   0.00000000         -1.89     -0.00      0.00
  -0.00000000  -0.00001285  -0.00000000         -0.00     -1.89     -0.00
   0.00000000  -0.00000000  -0.00001285          0.00     -0.00     -1.89


     number of scf cycles    =   2
     number of bfgs steps    =   1

     enthalpy old            =     -95.0020730093 Ry
     enthalpy new            =     -95.0056423987 Ry

     CASE: enthalpy_new < enthalpy_old


     WARNING: bfgs curvature condition failed, Theta= 0.851
     new trust radius        =       0.0522491084 bohr
     new conv_thr            =            1.0E-10 Ry

     new unit-cell volume =    235.55483 a.u.^3 (    34.90562 Ang^3 )
     density =      1.09369 g/cm^3

CELL_PARAMETERS (alat=  8.00000000)
   0.486318380   0.486318380   0.486318380
  -0.486318380   0.486318380   0.486318380
  -0.486318380  -0.486318380   0.486318380

ATOMIC_POSITIONS (crystal)
Na       0.000000000   0.000000000   0.000000000



     Writing output data file na.bcc.save
     NEW-OLD atomic charge density approx. for the potential
     extrapolated charge    8.53683, renormalised to    9.00000

     total cpu time spent up to now is       36.3 secs

     per-process dynamical memory:    31.4 Mb

     Self-consistent Calculation

     iteration #  1     ecut=    40.00 Ry     beta=0.70
     Davidson diagonalization with overlap
     ethr =  1.00E-06,  avg # of iterations =  5.0

     total cpu time spent up to now is       39.0 secs

     total energy              =     -94.98604163 Ry
     Harris-Foulkes estimate   =     -98.63162148 Ry
     estimated scf accuracy    <       0.06853472 Ry

     iteration #  2     ecut=    40.00 Ry     beta=0.70
     Davidson diagonalization with overlap
     ethr =  7.61E-04,  avg # of iterations =  2.8

     total cpu time spent up to now is       41.0 secs

     total energy              =     -95.10675398 Ry
     Harris-Foulkes estimate   =     -95.15646969 Ry
     estimated scf accuracy    <       0.11259771 Ry

     iteration #  3     ecut=    40.00 Ry     beta=0.70
     Davidson diagonalization with overlap
     ethr =  7.61E-04,  avg # of iterations =  2.0

     total cpu time spent up to now is       42.6 secs

     total energy              =     -95.10673914 Ry
     Harris-Foulkes estimate   =     -95.11510411 Ry
     estimated scf accuracy    <       0.01918186 Ry

     iteration #  4     ecut=    40.00 Ry     beta=0.70
     Davidson diagonalization with overlap
     ethr =  2.13E-04,  avg # of iterations =  1.0

     total cpu time spent up to now is       43.9 secs

     total energy              =     -95.10781490 Ry
     Harris-Foulkes estimate   =     -95.10811079 Ry
     estimated scf accuracy    <       0.00357320 Ry

     iteration #  5     ecut=    40.00 Ry     beta=0.70
     Davidson diagonalization with overlap
     ethr =  3.97E-05,  avg # of iterations =  1.1

     total cpu time spent up to now is       45.3 secs

     total energy              =     -95.10695858 Ry
     Harris-Foulkes estimate   =     -95.10788996 Ry
     estimated scf accuracy    <       0.00295051 Ry

     iteration #  6     ecut=    40.00 Ry     beta=0.70
     Davidson diagonalization with overlap
     ethr =  3.28E-05,  avg # of iterations =  1.0

     total cpu time spent up to now is       46.6 secs

     total energy              =     -95.10666695 Ry
     Harris-Foulkes estimate   =     -95.10706938 Ry
     estimated scf accuracy    <       0.00107002 Ry

     iteration #  7     ecut=    40.00 Ry     beta=0.70
     Davidson diagonalization with overlap
     ethr =  1.19E-05,  avg # of iterations =  1.0

     total cpu time spent up to now is       48.0 secs

     total energy              =     -95.10654691 Ry
     Harris-Foulkes estimate   =     -95.10672388 Ry
     estimated scf accuracy    <       0.00028817 Ry

     iteration #  8     ecut=    40.00 Ry     beta=0.70
     Davidson diagonalization with overlap
     ethr =  3.20E-06,  avg # of iterations =  2.3

     total cpu time spent up to now is       49.6 secs

     total energy              =     -95.10659449 Ry
     Harris-Foulkes estimate   =     -95.10659718 Ry
     estimated scf accuracy    <       0.00000406 Ry

     iteration #  9     ecut=    40.00 Ry     beta=0.70
     Davidson diagonalization with overlap
     ethr =  4.51E-08,  avg # of iterations =  2.0

     total cpu time spent up to now is       51.2 secs

     total energy              =     -95.10659551 Ry
     Harris-Foulkes estimate   =     -95.10659543 Ry
     estimated scf accuracy    <          1.7E-09 Ry

     iteration # 10     ecut=    40.00 Ry     beta=0.70
     Davidson diagonalization with overlap
     ethr =  1.88E-11,  avg # of iterations =  3.0

     total cpu time spent up to now is       53.1 secs

     total energy              =     -95.10659536 Ry
     Harris-Foulkes estimate   =     -95.10659557 Ry
     estimated scf accuracy    <       0.00000031 Ry

     iteration # 11     ecut=    40.00 Ry     beta=0.70
     Davidson diagonalization with overlap
     ethr =  1.88E-11,  avg # of iterations =  3.0

     total cpu time spent up to now is       55.1 secs

     total energy              =     -95.10659543 Ry
     Harris-Foulkes estimate   =     -95.10659543 Ry
     estimated scf accuracy    <          3.4E-10 Ry

     iteration # 12     ecut=    40.00 Ry     beta=0.70
     Davidson diagonalization with overlap
     ethr =  3.76E-12,  avg # of iterations =  2.0

     total cpu time spent up to now is       56.7 secs

     total energy              =     -95.10659543 Ry
     Harris-Foulkes estimate   =     -95.10659543 Ry
     estimated scf accuracy    <          1.6E-10 Ry

     iteration # 13     ecut=    40.00 Ry     beta=0.70
     Davidson diagonalization with overlap
     ethr =  1.78E-12,  avg # of iterations =  1.0

     total cpu time spent up to now is       58.1 secs

     End of self-consistent calculation

     Number of k-points >= 100: set verbosity='high' to print the bands.

     the Fermi energy is     1.8651 ev

!    total energy              =     -95.10659543 Ry
     Harris-Foulkes estimate   =     -95.10659543 Ry
     estimated scf accuracy    <          2.8E-11 Ry

     The total energy is the sum of the following terms:

     one-electron contribution =     -86.81868135 Ry
     hartree contribution      =      43.87251474 Ry
     xc contribution           =     -14.27646927 Ry
     ewald contribution        =     -37.88386390 Ry
     smearing contrib. (-TS)   =      -0.00009565 Ry

     convergence has been achieved in  13 iterations

     Forces acting on atoms (cartesian axes, Ry/au):

     atom    1 type  1   force =     0.00000000    0.00000000    0.00000000

     Total force =     0.000000     Total SCF correction =     0.000000


     Computing stress (Cartesian axis) and pressure

          total   stress  (Ry/bohr**3)                   (kbar)     P=    3.49
   0.00002374   0.00000000  -0.00000000          3.49      0.00     -0.00
   0.00000000   0.00002374   0.00000000          0.00      3.49      0.00
  -0.00000000   0.00000000   0.00002374         -0.00      0.00      3.49


     number of scf cycles    =   3
     number of bfgs steps    =   2

     enthalpy old            =     -95.0056423987 Ry
     enthalpy new            =     -95.0105192608 Ry

     CASE: enthalpy_new < enthalpy_old

     new trust radius        =       0.0777204536 bohr
     new conv_thr            =            1.0E-10 Ry

     new unit-cell volume =    218.11147 a.u.^3 (    32.32079 Ang^3 )
     density =      1.18115 g/cm^3

CELL_PARAMETERS (alat=  8.00000000)
   0.474004923   0.474004923   0.474004923
  -0.474004923   0.474004923   0.474004923
  -0.474004923  -0.474004923   0.474004923

ATOMIC_POSITIONS (crystal)
Na       0.000000000   0.000000000   0.000000000



     Writing output data file na.bcc.save
     NEW-OLD atomic charge density approx. for the potential
     extrapolated charge    8.28073, renormalised to    9.00000

     total cpu time spent up to now is       59.5 secs

     per-process dynamical memory:    31.4 Mb

     Self-consistent Calculation

     iteration #  1     ecut=    40.00 Ry     beta=0.70
     Davidson diagonalization with overlap
     ethr =  1.00E-06,  avg # of iterations =  5.6

     total cpu time spent up to now is       62.4 secs

     total energy              =     -94.83815577 Ry
     Harris-Foulkes estimate   =    -100.42758373 Ry
     estimated scf accuracy    <       0.15459489 Ry

     iteration #  2     ecut=    40.00 Ry     beta=0.70
     Davidson diagonalization with overlap
     ethr =  1.72E-03,  avg # of iterations =  2.7

     total cpu time spent up to now is       64.4 secs

     total energy              =     -95.10344360 Ry
     Harris-Foulkes estimate   =     -95.21399274 Ry
     estimated scf accuracy    <       0.24894133 Ry

     iteration #  3     ecut=    40.00 Ry     beta=0.70
     Davidson diagonalization with overlap
     ethr =  1.72E-03,  avg # of iterations =  2.0

     total cpu time spent up to now is       65.9 secs

     total energy              =     -95.10678057 Ry
     Harris-Foulkes estimate   =     -95.12300520 Ry
     estimated scf accuracy    <       0.03951735 Ry

     iteration #  4     ecut=    40.00 Ry     beta=0.70
     Davidson diagonalization with overlap
     ethr =  4.39E-04,  avg # of iterations =  1.0

     total cpu time spent up to now is       67.2 secs

     total energy              =     -95.10704095 Ry
     Harris-Foulkes estimate   =     -95.10930527 Ry
     estimated scf accuracy    <       0.00856521 Ry

     iteration #  5     ecut=    40.00 Ry     beta=0.70
     Davidson diagonalization with overlap
     ethr =  9.52E-05,  avg # of iterations =  1.1

     total cpu time spent up to now is       68.6 secs

     total energy              =     -95.10648312 Ry
     Harris-Foulkes estimate   =     -95.10737249 Ry
     estimated scf accuracy    <       0.00374848 Ry

     iteration #  6     ecut=    40.00 Ry     beta=0.70
     Davidson diagonalization with overlap
     ethr =  4.16E-05,  avg # of iterations =  1.0

     total cpu time spent up to now is       69.9 secs

     total energy              =     -95.10511591 Ry
     Harris-Foulkes estimate   =     -95.10654636 Ry
     estimated scf accuracy    <       0.00196817 Ry

     iteration #  7     ecut=    40.00 Ry     beta=0.70
     Davidson diagonalization with overlap
     ethr =  2.19E-05,  avg # of iterations =  2.1

     total cpu time spent up to now is       71.6 secs

     total energy              =     -95.10569605 Ry
     Harris-Foulkes estimate   =     -95.10566620 Ry
     estimated scf accuracy    <       0.00004583 Ry

     iteration #  8     ecut=    40.00 Ry     beta=0.70
     Davidson diagonalization with overlap
     ethr =  5.09E-07,  avg # of iterations =  2.1

     total cpu time spent up to now is       73.0 secs

     total energy              =     -95.10563151 Ry
     Harris-Foulkes estimate   =     -95.10569987 Ry
     estimated scf accuracy    <       0.00011805 Ry

     iteration #  9     ecut=    40.00 Ry     beta=0.70
     Davidson diagonalization with overlap
     ethr =  5.09E-07,  avg # of iterations =  2.0

     total cpu time spent up to now is       74.6 secs

     total energy              =     -95.10564448 Ry
     Harris-Foulkes estimate   =     -95.10564765 Ry
     estimated scf accuracy    <       0.00000436 Ry

     iteration # 10     ecut=    40.00 Ry     beta=0.70
     Davidson diagonalization with overlap
     ethr =  4.84E-08,  avg # of iterations =  2.0

     total cpu time spent up to now is       76.3 secs

     total energy              =     -95.10564562 Ry
     Harris-Foulkes estimate   =     -95.10564569 Ry
     estimated scf accuracy    <       0.00000010 Ry

     iteration # 11     ecut=    40.00 Ry     beta=0.70
     Davidson diagonalization with overlap
     ethr =  1.11E-09,  avg # of iterations =  2.0

     total cpu time spent up to now is       77.9 secs

     total energy              =     -95.10564565 Ry
     Harris-Foulkes estimate   =     -95.10564566 Ry
     estimated scf accuracy    <       0.00000003 Ry

     iteration # 12     ecut=    40.00 Ry     beta=0.70
     Davidson diagonalization with overlap
     ethr =  3.04E-10,  avg # of iterations =  1.0

     total cpu time spent up to now is       79.2 secs

     total energy              =     -95.10564565 Ry
     Harris-Foulkes estimate   =     -95.10564565 Ry
     estimated scf accuracy    <          7.4E-09 Ry

     iteration # 13     ecut=    40.00 Ry     beta=0.70
     Davidson diagonalization with overlap
     ethr =  8.24E-11,  avg # of iterations =  1.0

     total cpu time spent up to now is       80.6 secs

     total energy              =     -95.10564565 Ry
     Harris-Foulkes estimate   =     -95.10564565 Ry
     estimated scf accuracy    <          8.1E-09 Ry

     iteration # 14     ecut=    40.00 Ry     beta=0.70
     Davidson diagonalization with overlap
     ethr =  8.24E-11,  avg # of iterations =  2.0

     total cpu time spent up to now is       82.2 secs

     total energy              =     -95.10564565 Ry
     Harris-Foulkes estimate   =     -95.10564565 Ry
     estimated scf accuracy    <          1.7E-10 Ry

     iteration # 15     ecut=    40.00 Ry     beta=0.70
     Davidson diagonalization with overlap
     ethr =  1.88E-12,  avg # of iterations =  1.0

     total cpu time spent up to now is       83.5 secs

     total energy              =     -95.10564565 Ry
     Harris-Foulkes estimate   =     -95.10564565 Ry
     estimated scf accuracy    <          1.7E-10 Ry

     iteration # 16     ecut=    40.00 Ry     beta=0.70
     Davidson diagonalization with overlap
     ethr =  1.88E-12,  avg # of iterations =  1.0

     total cpu time spent up to now is       84.9 secs

     total energy              =     -95.10564565 Ry
     Harris-Foulkes estimate   =     -95.10564565 Ry
     estimated scf accuracy    <          1.1E-10 Ry

     iteration # 17     ecut=    40.00 Ry     beta=0.70
     Davidson diagonalization with overlap
     ethr =  1.23E-12,  avg # of iterations =  1.0

     total cpu time spent up to now is       86.2 secs

     total energy              =     -95.10564565 Ry
     Harris-Foulkes estimate   =     -95.10564565 Ry
     estimated scf accuracy    <          1.2E-10 Ry

     iteration # 18     ecut=    40.00 Ry     beta=0.70
     Davidson diagonalization with overlap
     ethr =  1.23E-12,  avg # of iterations =  1.0

     total cpu time spent up to now is       87.5 secs

     total energy              =     -95.10564565 Ry
     Harris-Foulkes estimate   =     -95.10564565 Ry
     estimated scf accuracy    <          1.1E-10 Ry

     iteration # 19     ecut=    40.00 Ry     beta=0.70
     Davidson diagonalization with overlap
     ethr =  1.23E-12,  avg # of iterations =  1.6

     total cpu time spent up to now is       88.9 secs

     End of self-consistent calculation

     Number of k-points >= 100: set verbosity='high' to print the bands.

     the Fermi energy is     2.2211 ev

!    total energy              =     -95.10564565 Ry
     Harris-Foulkes estimate   =     -95.10564565 Ry
     estimated scf accuracy    <          3.6E-11 Ry

     The total energy is the sum of the following terms:

     one-electron contribution =     -85.09629000 Ry
     hartree contribution      =      43.14584392 Ry
     xc contribution           =     -14.28710873 Ry
     ewald contribution        =     -38.86799155 Ry
     smearing contrib. (-TS)   =      -0.00009930 Ry

     convergence has been achieved in  19 iterations

     Forces acting on atoms (cartesian axes, Ry/au):

     atom    1 type  1   force =     0.00000000    0.00000000    0.00000000

     Total force =     0.000000     Total SCF correction =     0.000000


     Computing stress (Cartesian axis) and pressure

          total   stress  (Ry/bohr**3)                   (kbar)     P=   12.86
   0.00008741  -0.00000000   0.00000000         12.86     -0.00      0.00
  -0.00000000   0.00008741  -0.00000000         -0.00     12.86     -0.00
   0.00000000  -0.00000000   0.00008741          0.00     -0.00     12.86


     number of scf cycles    =   4
     number of bfgs steps    =   3

     enthalpy old            =     -95.0105192608 Ry
     enthalpy new            =     -95.0166841371 Ry

     CASE: enthalpy_new < enthalpy_old

     new trust radius        =       0.1150953213 bohr
     new conv_thr            =            1.0E-10 Ry

     new unit-cell volume =    193.59514 a.u.^3 (    28.68784 Ang^3 )
     density =      1.33073 g/cm^3

CELL_PARAMETERS (alat=  8.00000000)
   0.455534737   0.455534737   0.455534737
  -0.455534737   0.455534737   0.455534737
  -0.455534737  -0.455534737   0.455534737

ATOMIC_POSITIONS (crystal)
Na       0.000000000   0.000000000   0.000000000



     Writing output data file na.bcc.save
     NEW-OLD atomic charge density approx. for the potential
     extrapolated charge    7.86106, renormalised to    9.00000

     total cpu time spent up to now is       90.3 secs

     per-process dynamical memory:    31.4 Mb

     Self-consistent Calculation

     iteration #  1     ecut=    40.00 Ry     beta=0.70
     Davidson diagonalization with overlap
     ethr =  1.00E-06,  avg # of iterations =  6.4

     total cpu time spent up to now is       93.4 secs

     total energy              =     -94.51011332 Ry
     Harris-Foulkes estimate   =    -103.14014284 Ry
     estimated scf accuracy    <       0.35501537 Ry

     iteration #  2     ecut=    40.00 Ry     beta=0.70
     Davidson diagonalization with overlap
     ethr =  3.94E-03,  avg # of iterations =  2.5

     total cpu time spent up to now is       95.4 secs

     total energy              =     -95.08796733 Ry
     Harris-Foulkes estimate   =     -95.33301328 Ry
     estimated scf accuracy    <       0.54454175 Ry

     iteration #  3     ecut=    40.00 Ry     beta=0.70
     Davidson diagonalization with overlap
     ethr =  3.94E-03,  avg # of iterations =  2.0

     total cpu time spent up to now is       96.9 secs

     total energy              =     -95.10421433 Ry
     Harris-Foulkes estimate   =     -95.13485659 Ry
     estimated scf accuracy    <       0.07639366 Ry

     iteration #  4     ecut=    40.00 Ry     beta=0.70
     Davidson diagonalization with overlap
     ethr =  8.49E-04,  avg # of iterations =  1.0

     total cpu time spent up to now is       98.2 secs

     total energy              =     -95.10295187 Ry
     Harris-Foulkes estimate   =     -95.10921609 Ry
     estimated scf accuracy    <       0.01678708 Ry

     iteration #  5     ecut=    40.00 Ry     beta=0.70
     Davidson diagonalization with overlap
     ethr =  1.87E-04,  avg # of iterations =  1.1

     total cpu time spent up to now is       99.6 secs

     total energy              =     -95.10254405 Ry
     Harris-Foulkes estimate   =     -95.10403168 Ry
     estimated scf accuracy    <       0.00433982 Ry

     iteration #  6     ecut=    40.00 Ry     beta=0.70
     Davidson diagonalization with overlap
     ethr =  4.82E-05,  avg # of iterations =  1.2

     total cpu time spent up to now is      101.0 secs

     total energy              =     -95.10174255 Ry
     Harris-Foulkes estimate   =     -95.10273002 Ry
     estimated scf accuracy    <       0.00145763 Ry

     iteration #  7     ecut=    40.00 Ry     beta=0.70
     Davidson diagonalization with overlap
     ethr =  1.62E-05,  avg # of iterations =  2.1

     total cpu time spent up to now is      102.6 secs

     total energy              =     -95.10206454 Ry
     Harris-Foulkes estimate   =     -95.10205779 Ry
     estimated scf accuracy    <       0.00000055 Ry

     iteration #  8     ecut=    40.00 Ry     beta=0.70
     Davidson diagonalization with overlap
     ethr =  6.08E-09,  avg # of iterations =  3.1

     total cpu time spent up to now is      104.6 secs

     total energy              =     -95.10205581 Ry
     Harris-Foulkes estimate   =     -95.10206817 Ry
     estimated scf accuracy    <       0.00002275 Ry

     iteration #  9     ecut=    40.00 Ry     beta=0.70
     Davidson diagonalization with overlap
     ethr =  6.08E-09,  avg # of iterations =  3.0

     total cpu time spent up to now is      106.4 secs

     total energy              =     -95.10205750 Ry
     Harris-Foulkes estimate   =     -95.10205847 Ry
     estimated scf accuracy    <       0.00000147 Ry

     iteration # 10     ecut=    40.00 Ry     beta=0.70
     Davidson diagonalization with overlap
     ethr =  6.08E-09,  avg # of iterations =  2.0

     total cpu time spent up to now is      108.1 secs

     total energy              =     -95.10205780 Ry
     Harris-Foulkes estimate   =     -95.10205780 Ry
     estimated scf accuracy    <          1.9E-09 Ry

     iteration # 11     ecut=    40.00 Ry     beta=0.70
     Davidson diagonalization with overlap
     ethr =  2.15E-11,  avg # of iterations =  3.0

     total cpu time spent up to now is      109.9 secs

     total energy              =     -95.10205779 Ry
     Harris-Foulkes estimate   =     -95.10205781 Ry
     estimated scf accuracy    <       0.00000003 Ry

     iteration # 12     ecut=    40.00 Ry     beta=0.70
     Davidson diagonalization with overlap
     ethr =  2.15E-11,  avg # of iterations =  3.0

     total cpu time spent up to now is      111.8 secs

     total energy              =     -95.10205780 Ry
     Harris-Foulkes estimate   =     -95.10205780 Ry
     estimated scf accuracy    <          1.6E-10 Ry

     iteration # 13     ecut=    40.00 Ry     beta=0.70
     Davidson diagonalization with overlap
     ethr =  1.81E-12,  avg # of iterations =  1.0

     total cpu time spent up to now is      113.1 secs

     total energy              =     -95.10205780 Ry
     Harris-Foulkes estimate   =     -95.10205780 Ry
     estimated scf accuracy    <          4.1E-10 Ry

     iteration # 14     ecut=    40.00 Ry     beta=0.70
     Davidson diagonalization with overlap
     ethr =  1.81E-12,  avg # of iterations =  2.0

     total cpu time spent up to now is      114.7 secs

     End of self-consistent calculation

     Number of k-points >= 100: set verbosity='high' to print the bands.

     the Fermi energy is     2.8349 ev

!    total energy              =     -95.10205780 Ry
     Harris-Foulkes estimate   =     -95.10205780 Ry
     estimated scf accuracy    <          4.8E-13 Ry

     The total energy is the sum of the following terms:

     one-electron contribution =     -82.34684176 Ry
     hartree contribution      =      41.99337885 Ry
     xc contribution           =     -14.30455176 Ry
     ewald contribution        =     -40.44393952 Ry
     smearing contrib. (-TS)   =      -0.00010360 Ry

     convergence has been achieved in  14 iterations

     Forces acting on atoms (cartesian axes, Ry/au):

     atom    1 type  1   force =     0.00000000    0.00000000    0.00000000

     Total force =     0.000000     Total SCF correction =     0.000000


     Computing stress (Cartesian axis) and pressure

          total   stress  (Ry/bohr**3)                   (kbar)     P=   31.42
   0.00021358   0.00000000  -0.00000000         31.42      0.00     -0.00
   0.00000000   0.00021358   0.00000000          0.00     31.42      0.00
  -0.00000000   0.00000000   0.00021358         -0.00      0.00     31.42


     number of scf cycles    =   5
     number of bfgs steps    =   4

     enthalpy old            =     -95.0166841371 Ry
     enthalpy new            =     -95.0230958044 Ry

     CASE: enthalpy_new < enthalpy_old

     new trust radius        =       0.1435830561 bohr
     new conv_thr            =            1.0E-10 Ry

     new unit-cell volume =    165.14786 a.u.^3 (    24.47239 Ang^3 )
     density =      1.55995 g/cm^3

CELL_PARAMETERS (alat=  8.00000000)
   0.432030428   0.432030428   0.432030428
  -0.432030428   0.432030428   0.432030428
  -0.432030428  -0.432030428   0.432030428

ATOMIC_POSITIONS (crystal)
Na       0.000000000   0.000000000   0.000000000



     Writing output data file na.bcc.save
     NEW-OLD atomic charge density approx. for the potential
     extrapolated charge    7.45080, renormalised to    9.00000

     total cpu time spent up to now is      116.2 secs

     per-process dynamical memory:    31.4 Mb

     Self-consistent Calculation

     iteration #  1     ecut=    40.00 Ry     beta=0.70
     Davidson diagonalization with overlap
     ethr =  1.00E-06,  avg # of iterations =  6.5

     total cpu time spent up to now is      119.3 secs

     total energy              =     -94.11809197 Ry
     Harris-Foulkes estimate   =    -105.35141433 Ry
     estimated scf accuracy    <       0.61409084 Ry

     iteration #  2     ecut=    40.00 Ry     beta=0.70
     Davidson diagonalization with overlap
     ethr =  6.82E-03,  avg # of iterations =  2.3

     total cpu time spent up to now is      121.2 secs

     total energy              =     -95.05509684 Ry
     Harris-Foulkes estimate   =     -95.45777659 Ry
     estimated scf accuracy    <       0.87985067 Ry

     iteration #  3     ecut=    40.00 Ry     beta=0.70
     Davidson diagonalization with overlap
     ethr =  6.82E-03,  avg # of iterations =  2.0

     total cpu time spent up to now is      122.7 secs

     total energy              =     -95.09413786 Ry
     Harris-Foulkes estimate   =     -95.13784000 Ry
     estimated scf accuracy    <       0.10775480 Ry

     iteration #  4     ecut=    40.00 Ry     beta=0.70
     Davidson diagonalization with overlap
     ethr =  1.20E-03,  avg # of iterations =  1.2

     total cpu time spent up to now is      124.1 secs

     total energy              =     -95.09317177 Ry
     Harris-Foulkes estimate   =     -95.10217329 Ry
     estimated scf accuracy    <       0.02186441 Ry

     iteration #  5     ecut=    40.00 Ry     beta=0.70
     Davidson diagonalization with overlap
     ethr =  2.43E-04,  avg # of iterations =  1.3

     total cpu time spent up to now is      125.5 secs

     total energy              =     -95.09216139 Ry
     Harris-Foulkes estimate   =     -95.09485944 Ry
     estimated scf accuracy    <       0.00445621 Ry

     iteration #  6     ecut=    40.00 Ry     beta=0.70
     Davidson diagonalization with overlap
     ethr =  4.95E-05,  avg # of iterations =  2.2

     total cpu time spent up to now is      127.0 secs

     total energy              =     -95.09283114 Ry
     Harris-Foulkes estimate   =     -95.09289400 Ry
     estimated scf accuracy    <       0.00008097 Ry

     iteration #  7     ecut=    40.00 Ry     beta=0.70
     Davidson diagonalization with overlap
     ethr =  9.00E-07,  avg # of iterations =  2.8

     total cpu time spent up to now is      128.8 secs

     total energy              =     -95.09286194 Ry
     Harris-Foulkes estimate   =     -95.09286997 Ry
     estimated scf accuracy    <       0.00000955 Ry

     iteration #  8     ecut=    40.00 Ry     beta=0.70
     Davidson diagonalization with overlap
     ethr =  1.06E-07,  avg # of iterations =  2.0

     total cpu time spent up to now is      130.4 secs

     total energy              =     -95.09286443 Ry
     Harris-Foulkes estimate   =     -95.09286873 Ry
     estimated scf accuracy    <       0.00000689 Ry

     iteration #  9     ecut=    40.00 Ry     beta=0.70
     Davidson diagonalization with overlap
     ethr =  7.66E-08,  avg # of iterations =  2.0

     total cpu time spent up to now is      132.0 secs

     total energy              =     -95.09286569 Ry
     Harris-Foulkes estimate   =     -95.09286570 Ry
     estimated scf accuracy    <       0.00000002 Ry

     iteration # 10     ecut=    40.00 Ry     beta=0.70
     Davidson diagonalization with overlap
     ethr =  1.95E-10,  avg # of iterations =  2.0

     total cpu time spent up to now is      133.6 secs

     total energy              =     -95.09286569 Ry
     Harris-Foulkes estimate   =     -95.09286570 Ry
     estimated scf accuracy    <          7.8E-10 Ry

     iteration # 11     ecut=    40.00 Ry     beta=0.70
     Davidson diagonalization with overlap
     ethr =  8.68E-12,  avg # of iterations =  2.0

     total cpu time spent up to now is      135.3 secs

     total energy              =     -95.09286569 Ry
     Harris-Foulkes estimate   =     -95.09286569 Ry
     estimated scf accuracy    <          1.2E-10 Ry

     iteration # 12     ecut=    40.00 Ry     beta=0.70
     Davidson diagonalization with overlap
     ethr =  1.33E-12,  avg # of iterations =  2.0

     total cpu time spent up to now is      136.7 secs

     End of self-consistent calculation

     Number of k-points >= 100: set verbosity='high' to print the bands.

     the Fermi energy is     3.7879 ev

!    total energy              =     -95.09286569 Ry
     Harris-Foulkes estimate   =     -95.09286569 Ry
     estimated scf accuracy    <          1.9E-12 Ry

     The total energy is the sum of the following terms:

     one-electron contribution =     -78.52629708 Ry
     hartree contribution      =      40.40759937 Ry
     xc contribution           =     -14.32979908 Ry
     ewald contribution        =     -42.64426330 Ry
     smearing contrib. (-TS)   =      -0.00010560 Ry

     convergence has been achieved in  12 iterations

     Forces acting on atoms (cartesian axes, Ry/au):

     atom    1 type  1   force =     0.00000000    0.00000000    0.00000000

     Total force =     0.000000     Total SCF correction =     0.000000


     Computing stress (Cartesian axis) and pressure

          total   stress  (Ry/bohr**3)                   (kbar)     P=   67.23
   0.00045700   0.00000000  -0.00000000         67.23      0.00     -0.00
   0.00000000   0.00045700   0.00000000          0.00     67.23      0.00
  -0.00000000   0.00000000   0.00045700         -0.00      0.00     67.23


     number of scf cycles    =   6
     number of bfgs steps    =   5

     enthalpy old            =     -95.0230958044 Ry
     enthalpy new            =     -95.0255065422 Ry

     CASE: enthalpy_new < enthalpy_old

     new trust radius        =       0.0259115743 bohr
     new conv_thr            =            1.0E-10 Ry

     new unit-cell volume =    170.19323 a.u.^3 (    25.22003 Ang^3 )
     density =      1.51371 g/cm^3

CELL_PARAMETERS (alat=  8.00000000)
   0.436385965   0.436385965   0.436385965
  -0.436385965   0.436385965   0.436385965
  -0.436385965  -0.436385965   0.436385965

ATOMIC_POSITIONS (crystal)
Na       0.000000000   0.000000000   0.000000000



     Writing output data file na.bcc.save
     NEW-OLD atomic charge density approx. for the potential
     extrapolated charge    9.26662, renormalised to    9.00000

     total cpu time spent up to now is      138.2 secs

     per-process dynamical memory:    31.4 Mb

     Self-consistent Calculation

     iteration #  1     ecut=    40.00 Ry     beta=0.70
     Davidson diagonalization with overlap
     ethr =  1.00E-06,  avg # of iterations =  3.8

     total cpu time spent up to now is      140.6 secs

     total energy              =     -95.04479780 Ry
     Harris-Foulkes estimate   =     -93.22727237 Ry
     estimated scf accuracy    <       0.02804696 Ry

     iteration #  2     ecut=    40.00 Ry     beta=0.70
     Davidson diagonalization with overlap
     ethr =  3.12E-04,  avg # of iterations =  3.0

     total cpu time spent up to now is      142.7 secs

     total energy              =     -95.09645880 Ry
     Harris-Foulkes estimate   =     -95.11708276 Ry
     estimated scf accuracy    <       0.04705924 Ry

     iteration #  3     ecut=    40.00 Ry     beta=0.70
     Davidson diagonalization with overlap
     ethr =  3.12E-04,  avg # of iterations =  1.2

     total cpu time spent up to now is      144.0 secs

     total energy              =     -95.09636187 Ry
     Harris-Foulkes estimate   =     -95.09936641 Ry
     estimated scf accuracy    <       0.00973162 Ry

     iteration #  4     ecut=    40.00 Ry     beta=0.70
     Davidson diagonalization with overlap
     ethr =  1.08E-04,  avg # of iterations =  1.0

     total cpu time spent up to now is      145.4 secs

     total energy              =     -95.09584015 Ry
     Harris-Foulkes estimate   =     -95.09673926 Ry
     estimated scf accuracy    <       0.00365573 Ry

     iteration #  5     ecut=    40.00 Ry     beta=0.70
     Davidson diagonalization with overlap
     ethr =  4.06E-05,  avg # of iterations =  1.0

     total cpu time spent up to now is      146.7 secs

     total energy              =     -95.09533400 Ry
     Harris-Foulkes estimate   =     -95.09591241 Ry
     estimated scf accuracy    <       0.00187264 Ry

     iteration #  6     ecut=    40.00 Ry     beta=0.70
     Davidson diagonalization with overlap
     ethr =  2.08E-05,  avg # of iterations =  1.0

     total cpu time spent up to now is      148.1 secs

     total energy              =     -95.09498569 Ry
     Harris-Foulkes estimate   =     -95.09538277 Ry
     estimated scf accuracy    <       0.00076810 Ry

     iteration #  7     ecut=    40.00 Ry     beta=0.70
     Davidson diagonalization with overlap
     ethr =  8.53E-06,  avg # of iterations =  1.3

     total cpu time spent up to now is      149.4 secs

     total energy              =     -95.09503939 Ry
     Harris-Foulkes estimate   =     -95.09506270 Ry
     estimated scf accuracy    <       0.00007643 Ry

     iteration #  8     ecut=    40.00 Ry     beta=0.70
     Davidson diagonalization with overlap
     ethr =  8.49E-07,  avg # of iterations =  1.5

     total cpu time spent up to now is      150.8 secs

     total energy              =     -95.09502719 Ry
     Harris-Foulkes estimate   =     -95.09504442 Ry
     estimated scf accuracy    <       0.00002964 Ry

     iteration #  9     ecut=    40.00 Ry     beta=0.70
     Davidson diagonalization with overlap
     ethr =  3.29E-07,  avg # of iterations =  2.0

     total cpu time spent up to now is      152.5 secs

     total energy              =     -95.09503076 Ry
     Harris-Foulkes estimate   =     -95.09503117 Ry
     estimated scf accuracy    <       0.00000123 Ry

     iteration # 10     ecut=    40.00 Ry     beta=0.70
     Davidson diagonalization with overlap
     ethr =  1.37E-08,  avg # of iterations =  1.9

     total cpu time spent up to now is      154.1 secs

     total energy              =     -95.09503057 Ry
     Harris-Foulkes estimate   =     -95.09503087 Ry
     estimated scf accuracy    <       0.00000041 Ry

     iteration # 11     ecut=    40.00 Ry     beta=0.70
     Davidson diagonalization with overlap
     ethr =  4.60E-09,  avg # of iterations =  2.0

     total cpu time spent up to now is      155.7 secs

     total energy              =     -95.09503069 Ry
     Harris-Foulkes estimate   =     -95.09503069 Ry
     estimated scf accuracy    <       0.00000001 Ry

     iteration # 12     ecut=    40.00 Ry     beta=0.70
     Davidson diagonalization with overlap
     ethr =  1.15E-10,  avg # of iterations =  1.0

     total cpu time spent up to now is      157.2 secs

     total energy              =     -95.09503069 Ry
     Harris-Foulkes estimate   =     -95.09503069 Ry
     estimated scf accuracy    <          7.9E-09 Ry

     iteration # 13     ecut=    40.00 Ry     beta=0.70
     Davidson diagonalization with overlap
     ethr =  8.78E-11,  avg # of iterations =  2.0

     total cpu time spent up to now is      158.8 secs

     total energy              =     -95.09503069 Ry
     Harris-Foulkes estimate   =     -95.09503069 Ry
     estimated scf accuracy    <          1.5E-09 Ry

     iteration # 14     ecut=    40.00 Ry     beta=0.70
     Davidson diagonalization with overlap
     ethr =  1.62E-11,  avg # of iterations =  2.0

     total cpu time spent up to now is      160.5 secs

     total energy              =     -95.09503069 Ry
     Harris-Foulkes estimate   =     -95.09503069 Ry
     estimated scf accuracy    <          1.4E-09 Ry

     iteration # 15     ecut=    40.00 Ry     beta=0.70
     Davidson diagonalization with overlap
     ethr =  1.57E-11,  avg # of iterations =  1.0

     total cpu time spent up to now is      161.8 secs

     total energy              =     -95.09503069 Ry
     Harris-Foulkes estimate   =     -95.09503069 Ry
     estimated scf accuracy    <          4.3E-10 Ry

     iteration # 16     ecut=    40.00 Ry     beta=0.70
     Davidson diagonalization with overlap
     ethr =  4.79E-12,  avg # of iterations =  1.0

     total cpu time spent up to now is      163.2 secs

     total energy              =     -95.09503069 Ry
     Harris-Foulkes estimate   =     -95.09503069 Ry
     estimated scf accuracy    <          1.2E-10 Ry

     iteration # 17     ecut=    40.00 Ry     beta=0.70
     Davidson diagonalization with overlap
     ethr =  1.33E-12,  avg # of iterations =  1.0

     total cpu time spent up to now is      164.5 secs

     End of self-consistent calculation

     Number of k-points >= 100: set verbosity='high' to print the bands.

     the Fermi energy is     3.5945 ev

!    total energy              =     -95.09503069 Ry
     Harris-Foulkes estimate   =     -95.09503069 Ry
     estimated scf accuracy    <          7.0E-11 Ry

     The total energy is the sum of the following terms:

     one-electron contribution =     -79.26361325 Ry
     hartree contribution      =      40.71213533 Ry
     xc contribution           =     -14.32481316 Ry
     ewald contribution        =     -42.21863401 Ry
     smearing contrib. (-TS)   =      -0.00010559 Ry

     convergence has been achieved in  17 iterations

     Forces acting on atoms (cartesian axes, Ry/au):

     atom    1 type  1   force =     0.00000000    0.00000000    0.00000000

     Total force =     0.000000     Total SCF correction =     0.000000


     Computing stress (Cartesian axis) and pressure

          total   stress  (Ry/bohr**3)                   (kbar)     P=   59.07
   0.00040155  -0.00000000   0.00000000         59.07     -0.00      0.00
  -0.00000000   0.00040155  -0.00000000         -0.00     59.07     -0.00
   0.00000000  -0.00000000   0.00040155          0.00     -0.00     59.07


     number of scf cycles    =   7
     number of bfgs steps    =   6

     enthalpy old            =     -95.0255065422 Ry
     enthalpy new            =     -95.0256136739 Ry

     CASE: enthalpy_new < enthalpy_old

     new trust radius        =       0.0030202185 bohr
     new conv_thr            =            1.0E-10 Ry

     new unit-cell volume =    169.60289 a.u.^3 (    25.13256 Ang^3 )
     density =      1.51898 g/cm^3

CELL_PARAMETERS (alat=  8.00000000)
   0.435880829   0.435880829   0.435880829
  -0.435880829   0.435880829   0.435880829
  -0.435880829  -0.435880829   0.435880829

ATOMIC_POSITIONS (crystal)
Na       0.000000000   0.000000000   0.000000000



     Writing output data file na.bcc.save
     NEW-OLD atomic charge density approx. for the potential
     extrapolated charge    8.96870, renormalised to    9.00000

     total cpu time spent up to now is      165.9 secs

     per-process dynamical memory:    31.4 Mb

     Self-consistent Calculation

     iteration #  1     ecut=    40.00 Ry     beta=0.70
     Davidson diagonalization with overlap
     ethr =  1.00E-06,  avg # of iterations =  2.0

     total cpu time spent up to now is      168.3 secs

     total energy              =     -95.09417571 Ry
     Harris-Foulkes estimate   =     -95.31291228 Ry
     estimated scf accuracy    <       0.00034573 Ry

     iteration #  2     ecut=    40.00 Ry     beta=0.70
     Davidson diagonalization with overlap
     ethr =  3.84E-06,  avg # of iterations =  2.9

     total cpu time spent up to now is      171.1 secs

     total energy              =     -95.09480206 Ry
     Harris-Foulkes estimate   =     -95.09505591 Ry
     estimated scf accuracy    <       0.00057901 Ry

     iteration #  3     ecut=    40.00 Ry     beta=0.70
     Davidson diagonalization with overlap
     ethr =  3.84E-06,  avg # of iterations =  1.4

     total cpu time spent up to now is      172.5 secs

     total energy              =     -95.09481118 Ry
     Harris-Foulkes estimate   =     -95.09484047 Ry
     estimated scf accuracy    <       0.00011167 Ry

     iteration #  4     ecut=    40.00 Ry     beta=0.70
     Davidson diagonalization with overlap
     ethr =  1.24E-06,  avg # of iterations =  1.0

     total cpu time spent up to now is      173.9 secs

     total energy              =     -95.09479999 Ry
     Harris-Foulkes estimate   =     -95.09481462 Ry
     estimated scf accuracy    <       0.00004999 Ry

     iteration #  5     ecut=    40.00 Ry     beta=0.70
     Davidson diagonalization with overlap
     ethr =  5.55E-07,  avg # of iterations =  1.0

     total cpu time spent up to now is      175.2 secs

     total energy              =     -95.09479490 Ry
     Harris-Foulkes estimate   =     -95.09480127 Ry
     estimated scf accuracy    <       0.00002132 Ry

     iteration #  6     ecut=    40.00 Ry     beta=0.70
     Davidson diagonalization with overlap
     ethr =  2.37E-07,  avg # of iterations =  1.0

     total cpu time spent up to now is      176.6 secs

     total energy              =     -95.09479172 Ry
     Harris-Foulkes estimate   =     -95.09479550 Ry
     estimated scf accuracy    <       0.00000878 Ry

     iteration #  7     ecut=    40.00 Ry     beta=0.70
     Davidson diagonalization with overlap
     ethr =  9.75E-08,  avg # of iterations =  1.0

     total cpu time spent up to now is      177.9 secs

     total energy              =     -95.09479109 Ry
     Harris-Foulkes estimate   =     -95.09479226 Ry
     estimated scf accuracy    <       0.00000182 Ry

     iteration #  8     ecut=    40.00 Ry     beta=0.70
     Davidson diagonalization with overlap
     ethr =  2.02E-08,  avg # of iterations =  2.0

     total cpu time spent up to now is      179.5 secs

     total energy              =     -95.09479146 Ry
     Harris-Foulkes estimate   =     -95.09479146 Ry
     estimated scf accuracy    <          4.6E-09 Ry

     iteration #  9     ecut=    40.00 Ry     beta=0.70
     Davidson diagonalization with overlap
     ethr =  5.08E-11,  avg # of iterations =  1.9

     total cpu time spent up to now is      181.0 secs

     total energy              =     -95.09479146 Ry
     Harris-Foulkes estimate   =     -95.09479146 Ry
     estimated scf accuracy    <          4.0E-09 Ry

     iteration # 10     ecut=    40.00 Ry     beta=0.70
     Davidson diagonalization with overlap
     ethr =  4.44E-11,  avg # of iterations =  2.0

     total cpu time spent up to now is      182.6 secs

     End of self-consistent calculation

     Number of k-points >= 100: set verbosity='high' to print the bands.

     the Fermi energy is     3.6165 ev

!    total energy              =     -95.09479146 Ry
     Harris-Foulkes estimate   =     -95.09479146 Ry
     estimated scf accuracy    <          8.9E-11 Ry

     The total energy is the sum of the following terms:

     one-electron contribution =     -79.17882781 Ry
     hartree contribution      =      40.67708872 Ry
     xc contribution           =     -14.32538623 Ry
     ewald contribution        =     -42.26756054 Ry
     smearing contrib. (-TS)   =      -0.00010560 Ry

     convergence has been achieved in  10 iterations

     Forces acting on atoms (cartesian axes, Ry/au):

     atom    1 type  1   force =     0.00000000    0.00000000    0.00000000

     Total force =     0.000000     Total SCF correction =     0.000000


     Computing stress (Cartesian axis) and pressure

          total   stress  (Ry/bohr**3)                   (kbar)     P=   60.03
   0.00040807  -0.00000000   0.00000000         60.03     -0.00      0.00
  -0.00000000   0.00040807  -0.00000000         -0.00     60.03     -0.00
   0.00000000  -0.00000000   0.00040807          0.00     -0.00     60.03


     bfgs converged in   8 scf cycles and   7 bfgs steps
     (criteria: energy <  1.0E-04 Ry, force <  1.0E-03Ry/Bohr, cell <  5.0E-01kbar)

     End of BFGS Geometry Optimization

     Final enthalpy =     -95.0256152275 Ry
Begin final coordinates
     new unit-cell volume =    169.60289 a.u.^3 (    25.13256 Ang^3 )
     density =      1.51898 g/cm^3

CELL_PARAMETERS (alat=  8.00000000)
   0.435880829   0.435880829   0.435880829
  -0.435880829   0.435880829   0.435880829
  -0.435880829  -0.435880829   0.435880829

ATOMIC_POSITIONS (crystal)
Na       0.000000000   0.000000000   0.000000000
End final coordinates



     A final scf calculation at the relaxed structure.
     The G-vectors are recalculated for the final unit cell
     Results may differ from those at the preceding step.

     Parallelization info
     --------------------
     sticks:   dense  smooth     PW     G-vecs:    dense   smooth      PW
     Min         218     109     34                 4103     1443     265
     Max         219     110     35                 4104     1444     266
     Sum         875     437    139                16415     5775    1061



     bravais-lattice index     =            3
     lattice parameter (alat)  =       8.0000  a.u.
     unit-cell volume          =     169.6029 (a.u.)^3
     number of atoms/cell      =            1
     number of atomic types    =            1
     number of electrons       =         9.00
     number of Kohn-Sham states=            9
     kinetic-energy cutoff     =      40.0000  Ry
     charge density cutoff     =     320.0000  Ry
     convergence threshold     =      1.0E-10
     mixing beta               =       0.7000
     number of iterations used =            8  plain     mixing
     Exchange-correlation      = SLA  PW   PBE  PBE ( 1  4  3  4 0 0)

     celldm(1)=   8.000000  celldm(2)=   0.000000  celldm(3)=   0.000000
     celldm(4)=   0.000000  celldm(5)=   0.000000  celldm(6)=   0.000000

     crystal axes: (cart. coord. in units of alat)
               a(1) = (   0.435881   0.435881   0.435881 )  
               a(2) = (  -0.435881   0.435881   0.435881 )  
               a(3) = (  -0.435881  -0.435881   0.435881 )  

     reciprocal axes: (cart. coord. in units 2 pi/alat)
               b(1) = (  1.147103  0.000000  1.147103 )  
               b(2) = ( -1.147103  1.147103 -0.000000 )  
               b(3) = (  0.000000 -1.147103  1.147103 )  


     PseudoPot. # 1 for Na read from file:
     /home/s1333534/quantum_espresso/qe-6.1/pseudo/Na_pbe_v1.uspp.F.UPF
     MD5 check sum: 76a99c7e9422403d3e93cbc85ab7bccb
     Pseudo is Ultrasoft, Zval =  9.0
     Generated by new atomic code, or converted to UPF format
     Using radial grid of  819 points,  5 beta functions with: 
                l(1) =   0
                l(2) =   0
                l(3) =   1
                l(4) =   1
                l(5) =   2
     Q(r) pseudized with  8 coefficients,  rinner =    1.250   1.250   1.250
                                                       1.250   1.250

     atomic species   valence    mass     pseudopotential
        Na             9.00    22.99000     Na( 1.00)

     48 Sym. Ops., with inversion, found



   Cartesian axes

     site n.     atom                  positions (alat units)
         1           Na  tau(   1) = (   0.0000000   0.0000000   0.0000000  )

     number of k points=   250  Marzari-Vanderbilt smearing, width (Ry)=  0.0200

     Number of k-points >= 100: set verbosity='high' to print them.

     Dense  grid:    16415 G-vectors     FFT dimensions: (  36,  36,  36)

     Smooth grid:     5775 G-vectors     FFT dimensions: (  25,  25,  25)

     Estimated max dynamical RAM per process >       8.94MB

     Estimated total allocated dynamical RAM >      35.76MB

     Initial potential from superposition of free atoms

     starting charge    8.99371, renormalised to    9.00000
     Starting wfc are    5 randomized atomic wfcs +    4 random wfc

     Writing output data file na.bcc.save

     total cpu time spent up to now is      184.3 secs

     per-process dynamical memory:    20.7 Mb

     Self-consistent Calculation

     iteration #  1     ecut=    40.00 Ry     beta=0.70
     Davidson diagonalization with overlap
     c_bands:  1 eigenvalues not converged
     ethr =  1.00E-06,  avg # of iterations = 10.9

     total cpu time spent up to now is      187.2 secs

     total energy              =     -95.09406110 Ry
     Harris-Foulkes estimate   =     -95.09451591 Ry
     estimated scf accuracy    <       0.00129878 Ry

     iteration #  2     ecut=    40.00 Ry     beta=0.70
     Davidson diagonalization with overlap
     ethr =  1.44E-05,  avg # of iterations =  2.0

     total cpu time spent up to now is      188.1 secs

     total energy              =     -95.09423910 Ry
     Harris-Foulkes estimate   =     -95.09427844 Ry
     estimated scf accuracy    <       0.00015128 Ry

     iteration #  3     ecut=    40.00 Ry     beta=0.70
     Davidson diagonalization with overlap
     ethr =  1.68E-06,  avg # of iterations =  2.0

     total cpu time spent up to now is      189.1 secs

     total energy              =     -95.09425687 Ry
     Harris-Foulkes estimate   =     -95.09425811 Ry
     estimated scf accuracy    <       0.00000907 Ry

     iteration #  4     ecut=    40.00 Ry     beta=0.70
     Davidson diagonalization with overlap
     ethr =  1.01E-07,  avg # of iterations =  1.0

     total cpu time spent up to now is      189.9 secs

     total energy              =     -95.09425765 Ry
     Harris-Foulkes estimate   =     -95.09425759 Ry
     estimated scf accuracy    <       0.00000001 Ry

     iteration #  5     ecut=    40.00 Ry     beta=0.70
     Davidson diagonalization with overlap
     ethr =  1.26E-10,  avg # of iterations =  3.0

     total cpu time spent up to now is      191.0 secs

     total energy              =     -95.09425767 Ry
     Harris-Foulkes estimate   =     -95.09425767 Ry
     estimated scf accuracy    <          1.1E-09 Ry

     iteration #  6     ecut=    40.00 Ry     beta=0.70
     Davidson diagonalization with overlap
     ethr =  1.20E-11,  avg # of iterations =  1.5

     total cpu time spent up to now is      191.8 secs

     End of self-consistent calculation

     Number of k-points >= 100: set verbosity='high' to print the bands.

     the Fermi energy is     3.6153 ev

!    total energy              =     -95.09425767 Ry
     Harris-Foulkes estimate   =     -95.09425767 Ry
     estimated scf accuracy    <          5.5E-11 Ry

     The total energy is the sum of the following terms:

     one-electron contribution =     -79.17813833 Ry
     hartree contribution      =      40.67685954 Ry
     xc contribution           =     -14.32531275 Ry
     ewald contribution        =     -42.26756054 Ry
     smearing contrib. (-TS)   =      -0.00010559 Ry

     convergence has been achieved in   6 iterations

     Forces acting on atoms (cartesian axes, Ry/au):

     atom    1 type  1   force =     0.00000000    0.00000000    0.00000000

     Total force =     0.000000     Total SCF correction =     0.000000


     Computing stress (Cartesian axis) and pressure

          total   stress  (Ry/bohr**3)                   (kbar)     P=   57.53
   0.00039106   0.00000000  -0.00000000         57.53      0.00     -0.00
   0.00000000   0.00039106   0.00000000          0.00     57.53      0.00
  -0.00000000   0.00000000   0.00039106         -0.00      0.00     57.53


     Writing output data file na.bcc.save

     init_run     :      1.48s CPU      1.55s WALL (       2 calls)
     electrons    :    169.40s CPU    179.28s WALL (       9 calls)
     update_pot   :      1.60s CPU      1.62s WALL (       7 calls)
     forces       :      1.32s CPU      1.34s WALL (       9 calls)
     stress       :      6.33s CPU      6.37s WALL (       9 calls)

     Called by init_run:
     wfcinit      :      0.80s CPU      0.85s WALL (       2 calls)
     potinit      :      0.10s CPU      0.10s WALL (       2 calls)

     Called by electrons:
     c_bands      :    137.44s CPU    145.72s WALL (     111 calls)
     sum_band     :     28.94s CPU     30.50s WALL (     111 calls)
     v_of_rho     :      1.35s CPU      1.36s WALL (     119 calls)
     newd         :      1.64s CPU      1.65s WALL (     119 calls)
     mix_rho      :      0.13s CPU      0.13s WALL (     111 calls)

     Called by c_bands:
     init_us_2    :      7.34s CPU      7.32s WALL (   60500 calls)
     cegterg      :    130.22s CPU    138.42s WALL (   27750 calls)

     Called by sum_band:
     sum_band:bec :      0.08s CPU      0.09s WALL (   27750 calls)
     addusdens    :      2.08s CPU      2.09s WALL (     111 calls)

     Called by *egterg:
     h_psi        :    108.20s CPU    115.21s WALL (   85490 calls)
     s_psi        :      1.70s CPU      1.30s WALL (   85490 calls)
     g_psi        :      0.88s CPU      0.83s WALL (   57240 calls)
     cdiaghg      :     10.88s CPU     11.35s WALL (   82990 calls)

     Called by h_psi:
     h_psi:pot    :    107.84s CPU    114.65s WALL (   85490 calls)
     h_psi:calbec :      2.69s CPU      2.17s WALL (   85490 calls)
     vloc_psi     :    104.19s CPU    110.86s WALL (   85490 calls)
     add_vuspsi   :      0.84s CPU      1.40s WALL (   85490 calls)

     General routines
     calbec       :      3.55s CPU      3.16s WALL (  124490 calls)
     fft          :      0.64s CPU      0.65s WALL (    1951 calls)
     ffts         :      0.03s CPU      0.03s WALL (     230 calls)
     fftw         :    117.32s CPU    118.58s WALL ( 1496698 calls)
     interpolate  :      0.11s CPU      0.12s WALL (     230 calls)
     davcio       :      0.00s CPU      0.01s WALL (     500 calls)

     Parallel routines
     fft_scatter  :     20.02s CPU     24.05s WALL ( 1498879 calls)

     PWSCF        :  3m 2.42s CPU     3m12.56s WALL


   This run was terminated on:  15:54:27  20Dec2017            

=------------------------------------------------------------------------------=
   JOB DONE.
=------------------------------------------------------------------------------=
