
     Program PWSCF v.6.1 (svn rev. 13369) starts on 20Dec2017 at 15:45:41 

     This program is part of the open-source Quantum ESPRESSO suite
     for quantum simulation of materials; please cite
         "P. Giannozzi et al., J. Phys.:Condens. Matter 21 395502 (2009);
          URL http://www.quantum-espresso.org", 
     in publications or presentations arising from this work. More details at
     http://www.quantum-espresso.org/quote

     Parallel version (MPI), running on     4 processors
     R & G space division:  proc/nbgrp/npool/nimage =       4
     Waiting for input...
     Reading input from standard input

     Current dimensions of program PWSCF are:
     Max number of different atomic species (ntypx) = 10
     Max number of k-points (npk) =  40000
     Max angular momentum in pseudopotentials (lmaxx) =  3

     Subspace diagonalization in iterative solution of the eigenvalue problem:
     a serial algorithm will be used


     Parallelization info
     --------------------
     sticks:   dense  smooth     PW     G-vecs:    dense   smooth      PW
     Min         204     102     37                 3796     1332     284
     Max         205     103     38                 3797     1333     285
     Sum         817     409    151                15185     5329    1139



     bravais-lattice index     =            2
     lattice parameter (alat)  =       8.5720  a.u.
     unit-cell volume          =     157.4681 (a.u.)^3
     number of atoms/cell      =            1
     number of atomic types    =            1
     number of electrons       =         9.00
     number of Kohn-Sham states=            9
     kinetic-energy cutoff     =      40.0000  Ry
     charge density cutoff     =     320.0000  Ry
     convergence threshold     =      1.0E-08
     mixing beta               =       0.7000
     number of iterations used =            8  plain     mixing
     Exchange-correlation      = SLA  PW   PBE  PBE ( 1  4  3  4 0 0)
     nstep                     =           50


     celldm(1)=   8.572041  celldm(2)=   0.000000  celldm(3)=   0.000000
     celldm(4)=   0.000000  celldm(5)=   0.000000  celldm(6)=   0.000000

     crystal axes: (cart. coord. in units of alat)
               a(1) = (  -0.500000   0.000000   0.500000 )  
               a(2) = (   0.000000   0.500000   0.500000 )  
               a(3) = (  -0.500000   0.500000   0.000000 )  

     reciprocal axes: (cart. coord. in units 2 pi/alat)
               b(1) = ( -1.000000 -1.000000  1.000000 )  
               b(2) = (  1.000000  1.000000  1.000000 )  
               b(3) = ( -1.000000  1.000000 -1.000000 )  


     PseudoPot. # 1 for Na read from file:
     /home/s1333534/quantum_espresso/qe-6.1/pseudo/Na_pbe_v1.uspp.F.UPF
     MD5 check sum: 76a99c7e9422403d3e93cbc85ab7bccb
     Pseudo is Ultrasoft, Zval =  9.0
     Generated by new atomic code, or converted to UPF format
     Using radial grid of  819 points,  5 beta functions with: 
                l(1) =   0
                l(2) =   0
                l(3) =   1
                l(4) =   1
                l(5) =   2
     Q(r) pseudized with  8 coefficients,  rinner =    1.250   1.250   1.250
                                                       1.250   1.250

     atomic species   valence    mass     pseudopotential
        Na             9.00    22.99000     Na( 1.00)

     48 Sym. Ops., with inversion, found



   Cartesian axes

     site n.     atom                  positions (alat units)
         1           Na  tau(   1) = (   0.0000000   0.0000000   0.0000000  )

     number of k points=   770  Marzari-Vanderbilt smearing, width (Ry)=  0.0200

     Number of k-points >= 100: set verbosity='high' to print them.

     Dense  grid:    15185 G-vectors     FFT dimensions: (  36,  36,  36)

     Smooth grid:     5329 G-vectors     FFT dimensions: (  25,  25,  25)

     Estimated max dynamical RAM per process >      20.35MB

     Estimated total allocated dynamical RAM >      81.40MB

     Initial potential from superposition of free atoms

     starting charge    8.99371, renormalised to    9.00000
     Starting wfc are    5 randomized atomic wfcs +    4 random wfc

     total cpu time spent up to now is        1.4 secs

     per-process dynamical memory:    28.1 Mb

     Self-consistent Calculation

     iteration #  1     ecut=    40.00 Ry     beta=0.70
     Davidson diagonalization with overlap
     ethr =  1.00E-02,  avg # of iterations =  5.3

     Threshold (ethr) on eigenvalues was too large:
     Diagonalizing with lowered threshold

     Davidson diagonalization with overlap
     ethr =  1.67E-05,  avg # of iterations =  3.0

     total cpu time spent up to now is        9.7 secs

     total energy              =     -95.08802333 Ry
     Harris-Foulkes estimate   =     -95.08857293 Ry
     estimated scf accuracy    <       0.00149833 Ry

     iteration #  2     ecut=    40.00 Ry     beta=0.70
     Davidson diagonalization with overlap
     ethr =  1.66E-05,  avg # of iterations =  2.0

     total cpu time spent up to now is       12.6 secs

     total energy              =     -95.08821820 Ry
     Harris-Foulkes estimate   =     -95.08826247 Ry
     estimated scf accuracy    <       0.00016854 Ry

     iteration #  3     ecut=    40.00 Ry     beta=0.70
     Davidson diagonalization with overlap
     ethr =  1.87E-06,  avg # of iterations =  2.2

     total cpu time spent up to now is       15.7 secs

     total energy              =     -95.08823968 Ry
     Harris-Foulkes estimate   =     -95.08824097 Ry
     estimated scf accuracy    <       0.00000974 Ry

     iteration #  4     ecut=    40.00 Ry     beta=0.70
     Davidson diagonalization with overlap
     ethr =  1.08E-07,  avg # of iterations =  1.0

     total cpu time spent up to now is       18.2 secs

     total energy              =     -95.08824057 Ry
     Harris-Foulkes estimate   =     -95.08824051 Ry
     estimated scf accuracy    <       0.00000001 Ry

     iteration #  5     ecut=    40.00 Ry     beta=0.70
     Davidson diagonalization with overlap
     ethr =  1.50E-10,  avg # of iterations =  3.0

     total cpu time spent up to now is       21.9 secs

     End of self-consistent calculation

     Number of k-points >= 100: set verbosity='high' to print the bands.

     the Fermi energy is     4.1049 ev

!    total energy              =     -95.08824061 Ry
     Harris-Foulkes estimate   =     -95.08824061 Ry
     estimated scf accuracy    <          2.0E-09 Ry

     The total energy is the sum of the following terms:

     one-electron contribution =     -77.35139393 Ry
     hartree contribution      =      39.92506400 Ry
     xc contribution           =     -14.33802428 Ry
     ewald contribution        =     -43.32385298 Ry
     smearing contrib. (-TS)   =      -0.00003342 Ry

     convergence has been achieved in   5 iterations

     Forces acting on atoms (cartesian axes, Ry/au):

     atom    1 type  1   force =     0.00000000    0.00000000    0.00000000

     Total force =     0.000000     Total SCF correction =     0.000000


     Computing stress (Cartesian axis) and pressure

          total   stress  (Ry/bohr**3)                   (kbar)     P=   80.11
   0.00054457   0.00000000   0.00000000         80.11      0.00      0.00
   0.00000000   0.00054457  -0.00000000          0.00     80.11     -0.00
   0.00000000  -0.00000000   0.00054457          0.00     -0.00     80.11


     BFGS Geometry Optimization

     bfgs converged in   1 scf cycles and   0 bfgs steps
     (criteria: energy <  1.0E-04 Ry, force <  1.0E-03Ry/Bohr, cell <  5.0E-01kbar)

     End of BFGS Geometry Optimization

     Final enthalpy =     -95.0026048687 Ry
Begin final coordinates
     new unit-cell volume =    157.46813 a.u.^3 (    23.33437 Ang^3 )
     density =      1.63603 g/cm^3

CELL_PARAMETERS (alat=  8.57204063)
  -0.500000000   0.000000000   0.500000000
   0.000000000   0.500000000   0.500000000
  -0.500000000   0.500000000   0.000000000

ATOMIC_POSITIONS (crystal)
Na       0.000000000   0.000000000   0.000000000
End final coordinates



     A final scf calculation at the relaxed structure.
     The G-vectors are recalculated for the final unit cell
     Results may differ from those at the preceding step.

     Parallelization info
     --------------------
     sticks:   dense  smooth     PW     G-vecs:    dense   smooth      PW
     Min         204     102     37                 3796     1332     284
     Max         205     103     38                 3797     1333     285
     Sum         817     409    151                15185     5329    1139



     bravais-lattice index     =            2
     lattice parameter (alat)  =       8.5720  a.u.
     unit-cell volume          =     157.4681 (a.u.)^3
     number of atoms/cell      =            1
     number of atomic types    =            1
     number of electrons       =         9.00
     number of Kohn-Sham states=            9
     kinetic-energy cutoff     =      40.0000  Ry
     charge density cutoff     =     320.0000  Ry
     convergence threshold     =      1.0E-08
     mixing beta               =       0.7000
     number of iterations used =            8  plain     mixing
     Exchange-correlation      = SLA  PW   PBE  PBE ( 1  4  3  4 0 0)

     celldm(1)=   8.572041  celldm(2)=   0.000000  celldm(3)=   0.000000
     celldm(4)=   0.000000  celldm(5)=   0.000000  celldm(6)=   0.000000

     crystal axes: (cart. coord. in units of alat)
               a(1) = (  -0.500000   0.000000   0.500000 )  
               a(2) = (   0.000000   0.500000   0.500000 )  
               a(3) = (  -0.500000   0.500000   0.000000 )  

     reciprocal axes: (cart. coord. in units 2 pi/alat)
               b(1) = ( -1.000000 -1.000000  1.000000 )  
               b(2) = (  1.000000  1.000000  1.000000 )  
               b(3) = ( -1.000000  1.000000 -1.000000 )  


     PseudoPot. # 1 for Na read from file:
     /home/s1333534/quantum_espresso/qe-6.1/pseudo/Na_pbe_v1.uspp.F.UPF
     MD5 check sum: 76a99c7e9422403d3e93cbc85ab7bccb
     Pseudo is Ultrasoft, Zval =  9.0
     Generated by new atomic code, or converted to UPF format
     Using radial grid of  819 points,  5 beta functions with: 
                l(1) =   0
                l(2) =   0
                l(3) =   1
                l(4) =   1
                l(5) =   2
     Q(r) pseudized with  8 coefficients,  rinner =    1.250   1.250   1.250
                                                       1.250   1.250

     atomic species   valence    mass     pseudopotential
        Na             9.00    22.99000     Na( 1.00)

     48 Sym. Ops., with inversion, found



   Cartesian axes

     site n.     atom                  positions (alat units)
         1           Na  tau(   1) = (   0.0000000   0.0000000   0.0000000  )

     number of k points=   770  Marzari-Vanderbilt smearing, width (Ry)=  0.0200

     Number of k-points >= 100: set verbosity='high' to print them.

     Dense  grid:    15185 G-vectors     FFT dimensions: (  36,  36,  36)

     Smooth grid:     5329 G-vectors     FFT dimensions: (  25,  25,  25)

     Estimated max dynamical RAM per process >      20.35MB

     Estimated total allocated dynamical RAM >      81.40MB

     Initial potential from superposition of free atoms

     starting charge    8.99371, renormalised to    9.00000
     Starting wfc are    5 randomized atomic wfcs +    4 random wfc

     Writing output data file na.fcc.save

     total cpu time spent up to now is       25.1 secs

     per-process dynamical memory:    34.9 Mb

     Self-consistent Calculation

     iteration #  1     ecut=    40.00 Ry     beta=0.70
     Davidson diagonalization with overlap
     ethr =  1.00E-06,  avg # of iterations = 10.3

     total cpu time spent up to now is       33.7 secs

     total energy              =     -95.08801633 Ry
     Harris-Foulkes estimate   =     -95.08857333 Ry
     estimated scf accuracy    <       0.00150560 Ry

     iteration #  2     ecut=    40.00 Ry     beta=0.70
     Davidson diagonalization with overlap
     ethr =  1.67E-05,  avg # of iterations =  2.0

     total cpu time spent up to now is       36.7 secs

     total energy              =     -95.08821816 Ry
     Harris-Foulkes estimate   =     -95.08826526 Ry
     estimated scf accuracy    <       0.00017370 Ry

     iteration #  3     ecut=    40.00 Ry     beta=0.70
     Davidson diagonalization with overlap
     ethr =  1.93E-06,  avg # of iterations =  2.0

     total cpu time spent up to now is       39.7 secs

     total energy              =     -95.08823969 Ry
     Harris-Foulkes estimate   =     -95.08824110 Ry
     estimated scf accuracy    <       0.00001013 Ry

     iteration #  4     ecut=    40.00 Ry     beta=0.70
     Davidson diagonalization with overlap
     ethr =  1.13E-07,  avg # of iterations =  1.0

     total cpu time spent up to now is       42.2 secs

     total energy              =     -95.08824057 Ry
     Harris-Foulkes estimate   =     -95.08824051 Ry
     estimated scf accuracy    <       0.00000001 Ry

     iteration #  5     ecut=    40.00 Ry     beta=0.70
     Davidson diagonalization with overlap
     ethr =  1.42E-10,  avg # of iterations =  3.0

     total cpu time spent up to now is       45.8 secs

     End of self-consistent calculation

     Number of k-points >= 100: set verbosity='high' to print the bands.

     the Fermi energy is     4.1049 ev

!    total energy              =     -95.08824061 Ry
     Harris-Foulkes estimate   =     -95.08824061 Ry
     estimated scf accuracy    <          1.7E-09 Ry

     The total energy is the sum of the following terms:

     one-electron contribution =     -77.35141169 Ry
     hartree contribution      =      39.92508593 Ry
     xc contribution           =     -14.33802845 Ry
     ewald contribution        =     -43.32385298 Ry
     smearing contrib. (-TS)   =      -0.00003342 Ry

     convergence has been achieved in   5 iterations

     Forces acting on atoms (cartesian axes, Ry/au):

     atom    1 type  1   force =     0.00000000    0.00000000    0.00000000

     Total force =     0.000000     Total SCF correction =     0.000000


     Computing stress (Cartesian axis) and pressure

          total   stress  (Ry/bohr**3)                   (kbar)     P=   80.15
   0.00054486   0.00000000   0.00000000         80.15      0.00      0.00
   0.00000000   0.00054486  -0.00000000          0.00     80.15     -0.00
   0.00000000  -0.00000000   0.00054486          0.00     -0.00     80.15


     Writing output data file na.fcc.save

     init_run     :      2.48s CPU      2.67s WALL (       2 calls)
     electrons    :     38.35s CPU     41.15s WALL (       2 calls)
     forces       :      0.34s CPU      0.35s WALL (       2 calls)
     stress       :      1.96s CPU      1.97s WALL (       2 calls)

     Called by init_run:
     wfcinit      :      1.85s CPU      2.03s WALL (       2 calls)
     potinit      :      0.06s CPU      0.06s WALL (       2 calls)

     Called by electrons:
     c_bands      :     32.93s CPU     35.36s WALL (      11 calls)
     sum_band     :      5.24s CPU      5.61s WALL (      11 calls)
     v_of_rho     :      0.09s CPU      0.10s WALL (      12 calls)
     newd         :      0.11s CPU      0.11s WALL (      12 calls)
     mix_rho      :      0.00s CPU      0.00s WALL (      11 calls)

     Called by c_bands:
     init_us_2    :      1.69s CPU      1.51s WALL (   21560 calls)
     cegterg      :     31.54s CPU     34.00s WALL (    8470 calls)

     Called by sum_band:
     sum_band:bec :      0.02s CPU      0.03s WALL (    8470 calls)
     addusdens    :      0.13s CPU      0.13s WALL (      11 calls)

     Called by *egterg:
     h_psi        :     24.94s CPU     26.89s WALL (   36708 calls)
     s_psi        :      0.41s CPU      0.35s WALL (   36708 calls)
     g_psi        :      0.14s CPU      0.20s WALL (   26698 calls)
     cdiaghg      :      5.28s CPU      5.43s WALL (   34398 calls)

     Called by h_psi:
     h_psi:pot    :     24.81s CPU     26.74s WALL (   36708 calls)
     h_psi:calbec :      0.61s CPU      0.60s WALL (   36708 calls)
     vloc_psi     :     23.88s CPU     25.65s WALL (   36708 calls)
     add_vuspsi   :      0.26s CPU      0.40s WALL (   36708 calls)

     General routines
     calbec       :      0.90s CPU      0.94s WALL (   52878 calls)
     fft          :      0.05s CPU      0.05s WALL (     204 calls)
     ffts         :      0.00s CPU      0.00s WALL (      23 calls)
     fftw         :     24.68s CPU     25.97s WALL (  537808 calls)
     interpolate  :      0.01s CPU      0.01s WALL (      23 calls)
     davcio       :      0.00s CPU      0.01s WALL (    1540 calls)

     Parallel routines
     fft_scatter  :      5.71s CPU      7.18s WALL (  538035 calls)

     PWSCF        :    44.55s CPU        47.62s WALL


   This run was terminated on:  15:46:29  20Dec2017            

=------------------------------------------------------------------------------=
   JOB DONE.
=------------------------------------------------------------------------------=
