
     Program PWSCF v.6.1 (svn rev. 13369) starts on 20Dec2017 at 15:44: 4 

     This program is part of the open-source Quantum ESPRESSO suite
     for quantum simulation of materials; please cite
         "P. Giannozzi et al., J. Phys.:Condens. Matter 21 395502 (2009);
          URL http://www.quantum-espresso.org", 
     in publications or presentations arising from this work. More details at
     http://www.quantum-espresso.org/quote

     Parallel version (MPI), running on     4 processors
     R & G space division:  proc/nbgrp/npool/nimage =       4
     Waiting for input...
     Reading input from standard input

     Current dimensions of program PWSCF are:
     Max number of different atomic species (ntypx) = 10
     Max number of k-points (npk) =  40000
     Max angular momentum in pseudopotentials (lmaxx) =  3

     Subspace diagonalization in iterative solution of the eigenvalue problem:
     a serial algorithm will be used


     Parallelization info
     --------------------
     sticks:   dense  smooth     PW     G-vecs:    dense   smooth      PW
     Min         211     105     37                 4088     1441     309
     Max         212     106     38                 4091     1445     312
     Sum         847     421    151                16361     5769    1243



     bravais-lattice index     =            2
     lattice parameter (alat)  =       8.7602  a.u.
     unit-cell volume          =     168.0655 (a.u.)^3
     number of atoms/cell      =            1
     number of atomic types    =            1
     number of electrons       =         9.00
     number of Kohn-Sham states=            9
     kinetic-energy cutoff     =      40.0000  Ry
     charge density cutoff     =     320.0000  Ry
     convergence threshold     =      1.0E-08
     mixing beta               =       0.7000
     number of iterations used =            8  plain     mixing
     Exchange-correlation      = SLA  PW   PBE  PBE ( 1  4  3  4 0 0)
     nstep                     =           50


     celldm(1)=   8.760177  celldm(2)=   0.000000  celldm(3)=   0.000000
     celldm(4)=   0.000000  celldm(5)=   0.000000  celldm(6)=   0.000000

     crystal axes: (cart. coord. in units of alat)
               a(1) = (  -0.500000   0.000000   0.500000 )  
               a(2) = (   0.000000   0.500000   0.500000 )  
               a(3) = (  -0.500000   0.500000   0.000000 )  

     reciprocal axes: (cart. coord. in units 2 pi/alat)
               b(1) = ( -1.000000 -1.000000  1.000000 )  
               b(2) = (  1.000000  1.000000  1.000000 )  
               b(3) = ( -1.000000  1.000000 -1.000000 )  


     PseudoPot. # 1 for Na read from file:
     /home/s1333534/quantum_espresso/qe-6.1/pseudo/Na_pbe_v1.uspp.F.UPF
     MD5 check sum: 76a99c7e9422403d3e93cbc85ab7bccb
     Pseudo is Ultrasoft, Zval =  9.0
     Generated by new atomic code, or converted to UPF format
     Using radial grid of  819 points,  5 beta functions with: 
                l(1) =   0
                l(2) =   0
                l(3) =   1
                l(4) =   1
                l(5) =   2
     Q(r) pseudized with  8 coefficients,  rinner =    1.250   1.250   1.250
                                                       1.250   1.250

     atomic species   valence    mass     pseudopotential
        Na             9.00    22.99000     Na( 1.00)

     48 Sym. Ops., with inversion, found



   Cartesian axes

     site n.     atom                  positions (alat units)
         1           Na  tau(   1) = (   0.0000000   0.0000000   0.0000000  )

     number of k points=   770  Marzari-Vanderbilt smearing, width (Ry)=  0.0200

     Number of k-points >= 100: set verbosity='high' to print them.

     Dense  grid:    16361 G-vectors     FFT dimensions: (  36,  36,  36)

     Smooth grid:     5769 G-vectors     FFT dimensions: (  25,  25,  25)

     Estimated max dynamical RAM per process >      21.64MB

     Estimated total allocated dynamical RAM >      86.58MB

     Initial potential from superposition of free atoms

     starting charge    8.99371, renormalised to    9.00000
     Starting wfc are    5 randomized atomic wfcs +    4 random wfc

     total cpu time spent up to now is        1.5 secs

     per-process dynamical memory:    31.0 Mb

     Self-consistent Calculation

     iteration #  1     ecut=    40.00 Ry     beta=0.70
     Davidson diagonalization with overlap
     ethr =  1.00E-02,  avg # of iterations =  5.3

     Threshold (ethr) on eigenvalues was too large:
     Diagonalizing with lowered threshold

     Davidson diagonalization with overlap
     ethr =  1.49E-05,  avg # of iterations =  3.2

     total cpu time spent up to now is       10.0 secs

     total energy              =     -95.09336474 Ry
     Harris-Foulkes estimate   =     -95.09384262 Ry
     estimated scf accuracy    <       0.00133897 Ry

     iteration #  2     ecut=    40.00 Ry     beta=0.70
     Davidson diagonalization with overlap
     ethr =  1.49E-05,  avg # of iterations =  2.0

     total cpu time spent up to now is       12.9 secs

     total energy              =     -95.09353646 Ry
     Harris-Foulkes estimate   =     -95.09357583 Ry
     estimated scf accuracy    <       0.00015029 Ry

     iteration #  3     ecut=    40.00 Ry     beta=0.70
     Davidson diagonalization with overlap
     ethr =  1.67E-06,  avg # of iterations =  2.1

     total cpu time spent up to now is       16.0 secs

     total energy              =     -95.09355528 Ry
     Harris-Foulkes estimate   =     -95.09355656 Ry
     estimated scf accuracy    <       0.00000872 Ry

     iteration #  4     ecut=    40.00 Ry     beta=0.70
     Davidson diagonalization with overlap
     ethr =  9.69E-08,  avg # of iterations =  1.0

     total cpu time spent up to now is       18.6 secs

     total energy              =     -95.09355608 Ry
     Harris-Foulkes estimate   =     -95.09355602 Ry
     estimated scf accuracy    <       0.00000001 Ry

     iteration #  5     ecut=    40.00 Ry     beta=0.70
     Davidson diagonalization with overlap
     ethr =  1.33E-10,  avg # of iterations =  3.0

     total cpu time spent up to now is       22.3 secs

     End of self-consistent calculation

     Number of k-points >= 100: set verbosity='high' to print the bands.

     the Fermi energy is     3.6718 ev

!    total energy              =     -95.09355612 Ry
     Harris-Foulkes estimate   =     -95.09355611 Ry
     estimated scf accuracy    <          1.8E-09 Ry

     The total energy is the sum of the following terms:

     one-electron contribution =     -78.96163835 Ry
     hartree contribution      =      40.58839507 Ry
     xc contribution           =     -14.32686192 Ry
     ewald contribution        =     -42.39341627 Ry
     smearing contrib. (-TS)   =      -0.00003464 Ry

     convergence has been achieved in   5 iterations

     Forces acting on atoms (cartesian axes, Ry/au):

     atom    1 type  1   force =     0.00000000    0.00000000    0.00000000

     Total force =     0.000000     Total SCF correction =     0.000000


     Computing stress (Cartesian axis) and pressure

          total   stress  (Ry/bohr**3)                   (kbar)     P=   60.16
   0.00040898  -0.00000000  -0.00000000         60.16     -0.00     -0.00
  -0.00000000   0.00040898   0.00000000         -0.00     60.16      0.00
  -0.00000000   0.00000000   0.00040898         -0.00      0.00     60.16


     BFGS Geometry Optimization

     bfgs converged in   1 scf cycles and   0 bfgs steps
     (criteria: energy <  1.0E-04 Ry, force <  1.0E-03Ry/Bohr, cell <  5.0E-01kbar)

     End of BFGS Geometry Optimization

     Final enthalpy =     -95.0250069306 Ry
Begin final coordinates
     new unit-cell volume =    168.06553 a.u.^3 (    24.90474 Ang^3 )
     density =      1.53287 g/cm^3

CELL_PARAMETERS (alat=  8.76017695)
  -0.500000000   0.000000000   0.500000000
   0.000000000   0.500000000   0.500000000
  -0.500000000   0.500000000   0.000000000

ATOMIC_POSITIONS (crystal)
Na       0.000000000   0.000000000   0.000000000
End final coordinates



     A final scf calculation at the relaxed structure.
     The G-vectors are recalculated for the final unit cell
     Results may differ from those at the preceding step.

     Parallelization info
     --------------------
     sticks:   dense  smooth     PW     G-vecs:    dense   smooth      PW
     Min         211     105     37                 4088     1441     309
     Max         212     106     38                 4091     1445     312
     Sum         847     421    151                16361     5769    1243



     bravais-lattice index     =            2
     lattice parameter (alat)  =       8.7602  a.u.
     unit-cell volume          =     168.0655 (a.u.)^3
     number of atoms/cell      =            1
     number of atomic types    =            1
     number of electrons       =         9.00
     number of Kohn-Sham states=            9
     kinetic-energy cutoff     =      40.0000  Ry
     charge density cutoff     =     320.0000  Ry
     convergence threshold     =      1.0E-08
     mixing beta               =       0.7000
     number of iterations used =            8  plain     mixing
     Exchange-correlation      = SLA  PW   PBE  PBE ( 1  4  3  4 0 0)

     celldm(1)=   8.760177  celldm(2)=   0.000000  celldm(3)=   0.000000
     celldm(4)=   0.000000  celldm(5)=   0.000000  celldm(6)=   0.000000

     crystal axes: (cart. coord. in units of alat)
               a(1) = (  -0.500000   0.000000   0.500000 )  
               a(2) = (   0.000000   0.500000   0.500000 )  
               a(3) = (  -0.500000   0.500000   0.000000 )  

     reciprocal axes: (cart. coord. in units 2 pi/alat)
               b(1) = ( -1.000000 -1.000000  1.000000 )  
               b(2) = (  1.000000  1.000000  1.000000 )  
               b(3) = ( -1.000000  1.000000 -1.000000 )  


     PseudoPot. # 1 for Na read from file:
     /home/s1333534/quantum_espresso/qe-6.1/pseudo/Na_pbe_v1.uspp.F.UPF
     MD5 check sum: 76a99c7e9422403d3e93cbc85ab7bccb
     Pseudo is Ultrasoft, Zval =  9.0
     Generated by new atomic code, or converted to UPF format
     Using radial grid of  819 points,  5 beta functions with: 
                l(1) =   0
                l(2) =   0
                l(3) =   1
                l(4) =   1
                l(5) =   2
     Q(r) pseudized with  8 coefficients,  rinner =    1.250   1.250   1.250
                                                       1.250   1.250

     atomic species   valence    mass     pseudopotential
        Na             9.00    22.99000     Na( 1.00)

     48 Sym. Ops., with inversion, found



   Cartesian axes

     site n.     atom                  positions (alat units)
         1           Na  tau(   1) = (   0.0000000   0.0000000   0.0000000  )

     number of k points=   770  Marzari-Vanderbilt smearing, width (Ry)=  0.0200

     Number of k-points >= 100: set verbosity='high' to print them.

     Dense  grid:    16361 G-vectors     FFT dimensions: (  36,  36,  36)

     Smooth grid:     5769 G-vectors     FFT dimensions: (  25,  25,  25)

     Estimated max dynamical RAM per process >      21.64MB

     Estimated total allocated dynamical RAM >      86.58MB

     Initial potential from superposition of free atoms

     starting charge    8.99371, renormalised to    9.00000
     Starting wfc are    5 randomized atomic wfcs +    4 random wfc

     Writing output data file na.fcc.save

     total cpu time spent up to now is       25.6 secs

     per-process dynamical memory:    38.1 Mb

     Self-consistent Calculation

     iteration #  1     ecut=    40.00 Ry     beta=0.70
     Davidson diagonalization with overlap
     c_bands:  1 eigenvalues not converged
     ethr =  1.00E-06,  avg # of iterations = 10.5

     total cpu time spent up to now is       34.4 secs

     total energy              =     -95.09335855 Ry
     Harris-Foulkes estimate   =     -95.09384296 Ry
     estimated scf accuracy    <       0.00134539 Ry

     iteration #  2     ecut=    40.00 Ry     beta=0.70
     Davidson diagonalization with overlap
     ethr =  1.49E-05,  avg # of iterations =  2.0

     total cpu time spent up to now is       37.4 secs

     total energy              =     -95.09353657 Ry
     Harris-Foulkes estimate   =     -95.09357844 Ry
     estimated scf accuracy    <       0.00015487 Ry

     iteration #  3     ecut=    40.00 Ry     beta=0.70
     Davidson diagonalization with overlap
     ethr =  1.72E-06,  avg # of iterations =  2.0

     total cpu time spent up to now is       40.5 secs

     total energy              =     -95.09355528 Ry
     Harris-Foulkes estimate   =     -95.09355671 Ry
     estimated scf accuracy    <       0.00000911 Ry

     iteration #  4     ecut=    40.00 Ry     beta=0.70
     Davidson diagonalization with overlap
     ethr =  1.01E-07,  avg # of iterations =  1.0

     total cpu time spent up to now is       43.1 secs

     total energy              =     -95.09355608 Ry
     Harris-Foulkes estimate   =     -95.09355603 Ry
     estimated scf accuracy    <       0.00000001 Ry

     iteration #  5     ecut=    40.00 Ry     beta=0.70
     Davidson diagonalization with overlap
     ethr =  1.23E-10,  avg # of iterations =  3.0

     total cpu time spent up to now is       46.7 secs

     End of self-consistent calculation

     Number of k-points >= 100: set verbosity='high' to print the bands.

     the Fermi energy is     3.6718 ev

!    total energy              =     -95.09355612 Ry
     Harris-Foulkes estimate   =     -95.09355611 Ry
     estimated scf accuracy    <          1.5E-09 Ry

     The total energy is the sum of the following terms:

     one-electron contribution =     -78.96165928 Ry
     hartree contribution      =      40.58842089 Ry
     xc contribution           =     -14.32686681 Ry
     ewald contribution        =     -42.39341627 Ry
     smearing contrib. (-TS)   =      -0.00003464 Ry

     convergence has been achieved in   5 iterations

     Forces acting on atoms (cartesian axes, Ry/au):

     atom    1 type  1   force =     0.00000000    0.00000000    0.00000000

     Total force =     0.000000     Total SCF correction =     0.000000


     Computing stress (Cartesian axis) and pressure

          total   stress  (Ry/bohr**3)                   (kbar)     P=   60.21
   0.00040932   0.00000000   0.00000000         60.21      0.00      0.00
   0.00000000   0.00040932  -0.00000000          0.00     60.21     -0.00
   0.00000000  -0.00000000   0.00040932          0.00     -0.00     60.21


     Writing output data file na.fcc.save

     init_run     :      2.58s CPU      2.74s WALL (       2 calls)
     electrons    :     38.88s CPU     41.85s WALL (       2 calls)
     forces       :      0.37s CPU      0.37s WALL (       2 calls)
     stress       :      2.13s CPU      2.14s WALL (       2 calls)

     Called by init_run:
     wfcinit      :      1.91s CPU      2.07s WALL (       2 calls)
     potinit      :      0.07s CPU      0.07s WALL (       2 calls)

     Called by electrons:
     c_bands      :     33.39s CPU     35.97s WALL (      11 calls)
     sum_band     :      5.29s CPU      5.67s WALL (      11 calls)
     v_of_rho     :      0.10s CPU      0.10s WALL (      12 calls)
     newd         :      0.13s CPU      0.13s WALL (      12 calls)
     mix_rho      :      0.01s CPU      0.01s WALL (      11 calls)

     Called by c_bands:
     init_us_2    :      1.88s CPU      1.69s WALL (   21560 calls)
     cegterg      :     31.87s CPU     34.48s WALL (    8470 calls)

     Called by sum_band:
     sum_band:bec :      0.02s CPU      0.03s WALL (    8470 calls)
     addusdens    :      0.14s CPU      0.14s WALL (      11 calls)

     Called by *egterg:
     h_psi        :     24.97s CPU     26.99s WALL (   36953 calls)
     s_psi        :      0.44s CPU      0.40s WALL (   36953 calls)
     g_psi        :      0.16s CPU      0.23s WALL (   26943 calls)
     cdiaghg      :      5.28s CPU      5.45s WALL (   34643 calls)

     Called by h_psi:
     h_psi:pot    :     24.84s CPU     26.82s WALL (   36953 calls)
     h_psi:calbec :      0.63s CPU      0.64s WALL (   36953 calls)
     vloc_psi     :     23.84s CPU     25.66s WALL (   36953 calls)
     add_vuspsi   :      0.32s CPU      0.44s WALL (   36953 calls)

     General routines
     calbec       :      0.87s CPU      0.91s WALL (   53123 calls)
     fft          :      0.05s CPU      0.05s WALL (     204 calls)
     ffts         :      0.00s CPU      0.00s WALL (      23 calls)
     fftw         :     24.53s CPU     25.90s WALL (  539750 calls)
     interpolate  :      0.01s CPU      0.01s WALL (      23 calls)
     davcio       :      0.00s CPU      0.01s WALL (    1540 calls)

     Parallel routines
     fft_scatter  :      5.55s CPU      7.07s WALL (  539977 calls)

     PWSCF        :    45.36s CPU        48.58s WALL


   This run was terminated on:  15:44:53  20Dec2017            

=------------------------------------------------------------------------------=
   JOB DONE.
=------------------------------------------------------------------------------=
