
     Program PWSCF v.6.1 (svn rev. 13369) starts on 20Dec2017 at 15:33:39 

     This program is part of the open-source Quantum ESPRESSO suite
     for quantum simulation of materials; please cite
         "P. Giannozzi et al., J. Phys.:Condens. Matter 21 395502 (2009);
          URL http://www.quantum-espresso.org", 
     in publications or presentations arising from this work. More details at
     http://www.quantum-espresso.org/quote

     Parallel version (MPI), running on     4 processors
     R & G space division:  proc/nbgrp/npool/nimage =       4
     Waiting for input...
     Reading input from standard input

     Current dimensions of program PWSCF are:
     Max number of different atomic species (ntypx) = 10
     Max number of k-points (npk) =  40000
     Max angular momentum in pseudopotentials (lmaxx) =  3

     Subspace diagonalization in iterative solution of the eigenvalue problem:
     a serial algorithm will be used


     Parallelization info
     --------------------
     sticks:   dense  smooth     PW     G-vecs:    dense   smooth      PW
     Min         253     127     40                 5296     1895     362
     Max         254     130     41                 5298     1896     366
     Sum        1015     511    163                21187     7583    1459



     bravais-lattice index     =            2
     lattice parameter (alat)  =       9.5786  a.u.
     unit-cell volume          =     219.7049 (a.u.)^3
     number of atoms/cell      =            1
     number of atomic types    =            1
     number of electrons       =         9.00
     number of Kohn-Sham states=            9
     kinetic-energy cutoff     =      40.0000  Ry
     charge density cutoff     =     320.0000  Ry
     convergence threshold     =      1.0E-08
     mixing beta               =       0.7000
     number of iterations used =            8  plain     mixing
     Exchange-correlation      = SLA  PW   PBE  PBE ( 1  4  3  4 0 0)
     nstep                     =           50


     celldm(1)=   9.578554  celldm(2)=   0.000000  celldm(3)=   0.000000
     celldm(4)=   0.000000  celldm(5)=   0.000000  celldm(6)=   0.000000

     crystal axes: (cart. coord. in units of alat)
               a(1) = (  -0.500000   0.000000   0.500000 )  
               a(2) = (   0.000000   0.500000   0.500000 )  
               a(3) = (  -0.500000   0.500000   0.000000 )  

     reciprocal axes: (cart. coord. in units 2 pi/alat)
               b(1) = ( -1.000000 -1.000000  1.000000 )  
               b(2) = (  1.000000  1.000000  1.000000 )  
               b(3) = ( -1.000000  1.000000 -1.000000 )  


     PseudoPot. # 1 for Na read from file:
     /home/s1333534/quantum_espresso/qe-6.1/pseudo/Na_pbe_v1.uspp.F.UPF
     MD5 check sum: 76a99c7e9422403d3e93cbc85ab7bccb
     Pseudo is Ultrasoft, Zval =  9.0
     Generated by new atomic code, or converted to UPF format
     Using radial grid of  819 points,  5 beta functions with: 
                l(1) =   0
                l(2) =   0
                l(3) =   1
                l(4) =   1
                l(5) =   2
     Q(r) pseudized with  8 coefficients,  rinner =    1.250   1.250   1.250
                                                       1.250   1.250

     atomic species   valence    mass     pseudopotential
        Na             9.00    22.99000     Na( 1.00)

     48 Sym. Ops., with inversion, found



   Cartesian axes

     site n.     atom                  positions (alat units)
         1           Na  tau(   1) = (   0.0000000   0.0000000   0.0000000  )

     number of k points=   770  Marzari-Vanderbilt smearing, width (Ry)=  0.0200

     Number of k-points >= 100: set verbosity='high' to print them.

     Dense  grid:    21187 G-vectors     FFT dimensions: (  40,  40,  40)

     Smooth grid:     7583 G-vectors     FFT dimensions: (  27,  27,  27)

     Estimated max dynamical RAM per process >      28.31MB

     Estimated total allocated dynamical RAM >     113.26MB

     Initial potential from superposition of free atoms

     starting charge    8.99371, renormalised to    9.00000
     Starting wfc are    5 randomized atomic wfcs +    4 random wfc

     total cpu time spent up to now is        2.2 secs

     per-process dynamical memory:    37.3 Mb

     Self-consistent Calculation

     iteration #  1     ecut=    40.00 Ry     beta=0.70
     Davidson diagonalization with overlap
     ethr =  1.00E-02,  avg # of iterations =  5.3

     Threshold (ethr) on eigenvalues was too large:
     Diagonalizing with lowered threshold

     Davidson diagonalization with overlap
     ethr =  1.06E-05,  avg # of iterations =  3.7

     total cpu time spent up to now is       15.6 secs

     total energy              =     -95.10526940 Ry
     Harris-Foulkes estimate   =     -95.10555823 Ry
     estimated scf accuracy    <       0.00094930 Ry

     iteration #  2     ecut=    40.00 Ry     beta=0.70
     Davidson diagonalization with overlap
     ethr =  1.05E-05,  avg # of iterations =  2.0

     total cpu time spent up to now is       20.2 secs

     total energy              =     -95.10537992 Ry
     Harris-Foulkes estimate   =     -95.10540621 Ry
     estimated scf accuracy    <       0.00010469 Ry

     iteration #  3     ecut=    40.00 Ry     beta=0.70
     Davidson diagonalization with overlap
     ethr =  1.16E-06,  avg # of iterations =  2.1

     total cpu time spent up to now is       25.0 secs

     total energy              =     -95.10539221 Ry
     Harris-Foulkes estimate   =     -95.10539347 Ry
     estimated scf accuracy    <       0.00000627 Ry

     iteration #  4     ecut=    40.00 Ry     beta=0.70
     Davidson diagonalization with overlap
     ethr =  6.97E-08,  avg # of iterations =  1.0

     total cpu time spent up to now is       29.1 secs

     End of self-consistent calculation

     Number of k-points >= 100: set verbosity='high' to print the bands.

     the Fermi energy is     2.1833 ev

!    total energy              =     -95.10539279 Ry
     Harris-Foulkes estimate   =     -95.10539274 Ry
     estimated scf accuracy    <          9.2E-09 Ry

     The total energy is the sum of the following terms:

     one-electron contribution =     -85.26688674 Ry
     hartree contribution      =      43.21876993 Ry
     xc contribution           =     -14.28584446 Ry
     ewald contribution        =     -38.77138937 Ry
     smearing contrib. (-TS)   =      -0.00004216 Ry

     convergence has been achieved in   4 iterations

     Forces acting on atoms (cartesian axes, Ry/au):

     atom    1 type  1   force =     0.00000000    0.00000000    0.00000000

     Total force =     0.000000     Total SCF correction =     0.000000


     Computing stress (Cartesian axis) and pressure

          total   stress  (Ry/bohr**3)                   (kbar)     P=    9.43
   0.00006410   0.00000000   0.00000000          9.43      0.00      0.00
  -0.00000000   0.00006410  -0.00000000         -0.00      9.43     -0.00
   0.00000000   0.00000000   0.00006410          0.00      0.00      9.43


     BFGS Geometry Optimization

     number of scf cycles    =   1
     number of bfgs steps    =   0

     enthalpy new            =     -95.0904575520 Ry

     new trust radius        =       0.0002873265 bohr
     new conv_thr            =       0.0000000100 Ry

     new unit-cell volume =    219.64105 a.u.^3 (    32.54745 Ang^3 )
     density =      1.17293 g/cm^3

CELL_PARAMETERS (alat=  9.57855352)
  -0.499951539   0.000000000   0.499951539
   0.000000000   0.499951539   0.499951539
  -0.499951539   0.499951539  -0.000000000

ATOMIC_POSITIONS (crystal)
Na       0.000000000   0.000000000   0.000000000



     Writing output data file na.fcc.save
     NEW-OLD atomic charge density approx. for the potential
     extrapolated charge    8.99738, renormalised to    9.00000

     total cpu time spent up to now is       31.8 secs

     per-process dynamical memory:    47.6 Mb

     Self-consistent Calculation

     iteration #  1     ecut=    40.00 Ry     beta=0.70
     Davidson diagonalization with overlap
     ethr =  1.00E-06,  avg # of iterations =  2.1

     Threshold (ethr) on eigenvalues was too large:
     Diagonalizing with lowered threshold

     Davidson diagonalization with overlap
     ethr =  2.86E-08,  avg # of iterations =  1.0

     total cpu time spent up to now is       40.7 secs

     total energy              =     -95.10538413 Ry
     Harris-Foulkes estimate   =     -95.12511307 Ry
     estimated scf accuracy    <       0.00000258 Ry

     iteration #  2     ecut=    40.00 Ry     beta=0.70
     Davidson diagonalization with overlap
     ethr =  2.86E-08,  avg # of iterations =  2.9

     total cpu time spent up to now is       46.2 secs

     total energy              =     -95.10538873 Ry
     Harris-Foulkes estimate   =     -95.10539059 Ry
     estimated scf accuracy    <       0.00000422 Ry

     iteration #  3     ecut=    40.00 Ry     beta=0.70
     Davidson diagonalization with overlap
     ethr =  2.86E-08,  avg # of iterations =  1.5

     total cpu time spent up to now is       50.5 secs

     total energy              =     -95.10538868 Ry
     Harris-Foulkes estimate   =     -95.10538901 Ry
     estimated scf accuracy    <       0.00000081 Ry

     iteration #  4     ecut=    40.00 Ry     beta=0.70
     Davidson diagonalization with overlap
     ethr =  9.03E-09,  avg # of iterations =  1.0

     total cpu time spent up to now is       54.5 secs

     total energy              =     -95.10538871 Ry
     Harris-Foulkes estimate   =     -95.10538874 Ry
     estimated scf accuracy    <       0.00000018 Ry

     iteration #  5     ecut=    40.00 Ry     beta=0.70
     Davidson diagonalization with overlap
     ethr =  1.99E-09,  avg # of iterations =  1.0

     total cpu time spent up to now is       58.6 secs

     total energy              =     -95.10538871 Ry
     Harris-Foulkes estimate   =     -95.10538872 Ry
     estimated scf accuracy    <       0.00000013 Ry

     iteration #  6     ecut=    40.00 Ry     beta=0.70
     Davidson diagonalization with overlap
     ethr =  1.42E-09,  avg # of iterations =  1.0

     total cpu time spent up to now is       62.7 secs

     total energy              =     -95.10538871 Ry
     Harris-Foulkes estimate   =     -95.10538871 Ry
     estimated scf accuracy    <       0.00000011 Ry

     iteration #  7     ecut=    40.00 Ry     beta=0.70
     Davidson diagonalization with overlap
     ethr =  1.25E-09,  avg # of iterations =  1.0

     total cpu time spent up to now is       66.7 secs

     total energy              =     -95.10538863 Ry
     Harris-Foulkes estimate   =     -95.10538871 Ry
     estimated scf accuracy    <       0.00000010 Ry

     iteration #  8     ecut=    40.00 Ry     beta=0.70
     Davidson diagonalization with overlap
     ethr =  1.14E-09,  avg # of iterations =  2.0

     total cpu time spent up to now is       71.6 secs

     total energy              =     -95.10538866 Ry
     Harris-Foulkes estimate   =     -95.10538867 Ry
     estimated scf accuracy    <       0.00000002 Ry

     iteration #  9     ecut=    40.00 Ry     beta=0.70
     Davidson diagonalization with overlap
     ethr =  2.34E-10,  avg # of iterations =  1.0

     total cpu time spent up to now is       75.7 secs

     End of self-consistent calculation

     Number of k-points >= 100: set verbosity='high' to print the bands.

     the Fermi energy is     2.1844 ev

!    total energy              =     -95.10538866 Ry
     Harris-Foulkes estimate   =     -95.10538866 Ry
     estimated scf accuracy    <          2.6E-09 Ry

     The total energy is the sum of the following terms:

     one-electron contribution =     -85.26066451 Ry
     hartree contribution      =      43.21642829 Ry
     xc contribution           =     -14.28596273 Ry
     ewald contribution        =     -38.77514757 Ry
     smearing contrib. (-TS)   =      -0.00004215 Ry

     convergence has been achieved in   9 iterations

     Forces acting on atoms (cartesian axes, Ry/au):

     atom    1 type  1   force =     0.00000000    0.00000000    0.00000000

     Total force =     0.000000     Total SCF correction =     0.000000


     Computing stress (Cartesian axis) and pressure

          total   stress  (Ry/bohr**3)                   (kbar)     P=    9.80
   0.00006659  -0.00000000  -0.00000000          9.80     -0.00     -0.00
   0.00000000   0.00006659   0.00000000          0.00      9.80      0.00
  -0.00000000   0.00000000   0.00006659         -0.00      0.00      9.80


     bfgs converged in   2 scf cycles and   1 bfgs steps
     (criteria: energy <  1.0E-04 Ry, force <  1.0E-03Ry/Bohr, cell <  5.0E-01kbar)

     End of BFGS Geometry Optimization

     Final enthalpy =     -95.0904577615 Ry
Begin final coordinates
     new unit-cell volume =    219.64105 a.u.^3 (    32.54745 Ang^3 )
     density =      1.17293 g/cm^3

CELL_PARAMETERS (alat=  9.57855352)
  -0.499951539   0.000000000   0.499951539
   0.000000000   0.499951539   0.499951539
  -0.499951539   0.499951539  -0.000000000

ATOMIC_POSITIONS (crystal)
Na       0.000000000   0.000000000   0.000000000
End final coordinates



     A final scf calculation at the relaxed structure.
     The G-vectors are recalculated for the final unit cell
     Results may differ from those at the preceding step.

     Parallelization info
     --------------------
     sticks:   dense  smooth     PW     G-vecs:    dense   smooth      PW
     Min         253     127     40                 5296     1895     362
     Max         254     130     41                 5298     1896     366
     Sum        1015     511    163                21187     7583    1459



     bravais-lattice index     =            2
     lattice parameter (alat)  =       9.5786  a.u.
     unit-cell volume          =     219.6411 (a.u.)^3
     number of atoms/cell      =            1
     number of atomic types    =            1
     number of electrons       =         9.00
     number of Kohn-Sham states=            9
     kinetic-energy cutoff     =      40.0000  Ry
     charge density cutoff     =     320.0000  Ry
     convergence threshold     =      1.0E-08
     mixing beta               =       0.7000
     number of iterations used =            8  plain     mixing
     Exchange-correlation      = SLA  PW   PBE  PBE ( 1  4  3  4 0 0)

     celldm(1)=   9.578554  celldm(2)=   0.000000  celldm(3)=   0.000000
     celldm(4)=   0.000000  celldm(5)=   0.000000  celldm(6)=   0.000000

     crystal axes: (cart. coord. in units of alat)
               a(1) = (  -0.499952   0.000000   0.499952 )  
               a(2) = (   0.000000   0.499952   0.499952 )  
               a(3) = (  -0.499952   0.499952  -0.000000 )  

     reciprocal axes: (cart. coord. in units 2 pi/alat)
               b(1) = ( -1.000097 -1.000097  1.000097 )  
               b(2) = (  1.000097  1.000097  1.000097 )  
               b(3) = ( -1.000097  1.000097 -1.000097 )  


     PseudoPot. # 1 for Na read from file:
     /home/s1333534/quantum_espresso/qe-6.1/pseudo/Na_pbe_v1.uspp.F.UPF
     MD5 check sum: 76a99c7e9422403d3e93cbc85ab7bccb
     Pseudo is Ultrasoft, Zval =  9.0
     Generated by new atomic code, or converted to UPF format
     Using radial grid of  819 points,  5 beta functions with: 
                l(1) =   0
                l(2) =   0
                l(3) =   1
                l(4) =   1
                l(5) =   2
     Q(r) pseudized with  8 coefficients,  rinner =    1.250   1.250   1.250
                                                       1.250   1.250

     atomic species   valence    mass     pseudopotential
        Na             9.00    22.99000     Na( 1.00)

     48 Sym. Ops., with inversion, found



   Cartesian axes

     site n.     atom                  positions (alat units)
         1           Na  tau(   1) = (   0.0000000   0.0000000   0.0000000  )

     number of k points=   770  Marzari-Vanderbilt smearing, width (Ry)=  0.0200

     Number of k-points >= 100: set verbosity='high' to print them.

     Dense  grid:    21187 G-vectors     FFT dimensions: (  40,  40,  40)

     Smooth grid:     7583 G-vectors     FFT dimensions: (  27,  27,  27)

     Estimated max dynamical RAM per process >      28.31MB

     Estimated total allocated dynamical RAM >     113.26MB

     Initial potential from superposition of free atoms

     starting charge    8.99371, renormalised to    9.00000
     Starting wfc are    5 randomized atomic wfcs +    4 random wfc

     Writing output data file na.fcc.save

     total cpu time spent up to now is       80.1 secs

     per-process dynamical memory:    45.1 Mb

     Self-consistent Calculation

     iteration #  1     ecut=    40.00 Ry     beta=0.70
     Davidson diagonalization with overlap
     c_bands:  1 eigenvalues not converged
     c_bands:  1 eigenvalues not converged
     c_bands:  1 eigenvalues not converged
     c_bands:  1 eigenvalues not converged
     c_bands:  1 eigenvalues not converged
     c_bands:  1 eigenvalues not converged
     c_bands:  1 eigenvalues not converged
     c_bands:  1 eigenvalues not converged
     ethr =  1.00E-06,  avg # of iterations = 11.0

     total cpu time spent up to now is       93.6 secs

     total energy              =     -95.10526010 Ry
     Harris-Foulkes estimate   =     -95.10555296 Ry
     estimated scf accuracy    <       0.00095352 Ry

     iteration #  2     ecut=    40.00 Ry     beta=0.70
     Davidson diagonalization with overlap
     ethr =  1.06E-05,  avg # of iterations =  2.0

     total cpu time spent up to now is       98.3 secs

     total energy              =     -95.10537504 Ry
     Harris-Foulkes estimate   =     -95.10540297 Ry
     estimated scf accuracy    <       0.00010776 Ry

     iteration #  3     ecut=    40.00 Ry     beta=0.70
     Davidson diagonalization with overlap
     ethr =  1.20E-06,  avg # of iterations =  2.0

     total cpu time spent up to now is      103.1 secs

     total energy              =     -95.10538695 Ry
     Harris-Foulkes estimate   =     -95.10538838 Ry
     estimated scf accuracy    <       0.00000664 Ry

     iteration #  4     ecut=    40.00 Ry     beta=0.70
     Davidson diagonalization with overlap
     ethr =  7.37E-08,  avg # of iterations =  1.0

     total cpu time spent up to now is      107.1 secs

     End of self-consistent calculation

     Number of k-points >= 100: set verbosity='high' to print the bands.

     the Fermi energy is     2.1846 ev

!    total energy              =     -95.10538755 Ry
     Harris-Foulkes estimate   =     -95.10538750 Ry
     estimated scf accuracy    <          7.7E-09 Ry

     The total energy is the sum of the following terms:

     one-electron contribution =     -85.26028844 Ry
     hartree contribution      =      43.21597013 Ry
     xc contribution           =     -14.28587952 Ry
     ewald contribution        =     -38.77514757 Ry
     smearing contrib. (-TS)   =      -0.00004215 Ry

     convergence has been achieved in   4 iterations

     Forces acting on atoms (cartesian axes, Ry/au):

     atom    1 type  1   force =     0.00000000    0.00000000    0.00000000

     Total force =     0.000000     Total SCF correction =     0.000000


     Computing stress (Cartesian axis) and pressure

          total   stress  (Ry/bohr**3)                   (kbar)     P=    9.42
   0.00006402   0.00000000  -0.00000000          9.42      0.00     -0.00
   0.00000000   0.00006402   0.00000000          0.00      9.42      0.00
  -0.00000000   0.00000000   0.00006402         -0.00      0.00      9.42


     Writing output data file na.fcc.save

     init_run     :      3.71s CPU      4.12s WALL (       2 calls)
     electrons    :     89.26s CPU     97.76s WALL (       3 calls)
     update_pot   :      0.20s CPU      0.20s WALL (       1 calls)
     forces       :      0.70s CPU      0.73s WALL (       3 calls)
     stress       :      4.17s CPU      4.32s WALL (       3 calls)

     Called by init_run:
     wfcinit      :      2.97s CPU      3.25s WALL (       2 calls)
     potinit      :      0.09s CPU      0.20s WALL (       2 calls)

     Called by electrons:
     c_bands      :     74.71s CPU     81.94s WALL (      19 calls)
     sum_band     :     14.13s CPU     15.37s WALL (      19 calls)
     v_of_rho     :      0.23s CPU      0.24s WALL (      20 calls)
     newd         :      0.24s CPU      0.25s WALL (      20 calls)
     mix_rho      :      0.01s CPU      0.01s WALL (      19 calls)

     Called by c_bands:
     init_us_2    :      3.95s CPU      3.66s WALL (   35420 calls)
     cegterg      :     71.33s CPU     78.49s WALL (   14630 calls)

     Called by sum_band:
     sum_band:bec :      0.03s CPU      0.05s WALL (   14630 calls)
     addusdens    :      0.29s CPU      0.32s WALL (      19 calls)

     Called by *egterg:
     h_psi        :     61.24s CPU     67.16s WALL (   50590 calls)
     s_psi        :      0.81s CPU      0.71s WALL (   50590 calls)
     g_psi        :      0.34s CPU      0.42s WALL (   34420 calls)
     cdiaghg      :      6.99s CPU      7.38s WALL (   46740 calls)

     Called by h_psi:
     h_psi:pot    :     61.02s CPU     66.85s WALL (   50590 calls)
     h_psi:calbec :      0.97s CPU      1.16s WALL (   50590 calls)
     vloc_psi     :     59.19s CPU     64.76s WALL (   50590 calls)
     add_vuspsi   :      0.77s CPU      0.79s WALL (   50590 calls)

     General routines
     calbec       :      1.44s CPU      1.83s WALL (   76770 calls)
     fft          :      0.10s CPU      0.11s WALL (     341 calls)
     ffts         :      0.01s CPU      0.12s WALL (      39 calls)
     fftw         :     66.92s CPU     68.57s WALL (  827540 calls)
     interpolate  :      0.02s CPU      0.13s WALL (      39 calls)
     davcio       :      0.01s CPU      0.02s WALL (    1540 calls)

     Parallel routines
     fft_scatter  :      9.13s CPU     12.64s WALL (  827920 calls)

     PWSCF        :  1m40.14s CPU     1m49.56s WALL


   This run was terminated on:  15:35:29  20Dec2017            

=------------------------------------------------------------------------------=
   JOB DONE.
=------------------------------------------------------------------------------=
