
     Program PWSCF v.5.2.0 starts on 23Jun2016 at 20:44:11 

     This program is part of the open-source Quantum ESPRESSO suite
     for quantum simulation of materials; please cite
         "P. Giannozzi et al., J. Phys.:Condens. Matter 21 395502 (2009);
          URL http://www.quantum-espresso.org", 
     in publications or presentations arising from this work. More details at
     http://www.quantum-espresso.org/quote

     Parallel version (MPI), running on   576 processors
     K-points division:     npool     =     576
     Waiting for input...
     Reading input from standard input
     Message from routine read_cards :
     DEPRECATED: no units specified in ATOMIC_POSITIONS card
     Message from routine read_cards :
     ATOMIC_POSITIONS: units set to alat

     Current dimensions of program PWSCF are:
     Max number of different atomic species (ntypx) = 10
     Max number of k-points (npk) = 400000
     Max angular momentum in pseudopotentials (lmaxx) =  3

     Subspace diagonalization in iterative solution of the eigenvalue problem:
     a serial algorithm will be used

 
     G-vector sticks info
     --------------------
     sticks:   dense  smooth     PW     G-vecs:    dense   smooth      PW
     Sum        1155     579    181                25123     8853    1553
 


     bravais-lattice index     =            3
     lattice parameter (alat)  =       6.5749  a.u.
     unit-cell volume          =     142.1128 (a.u.)^3
     number of atoms/cell      =            1
     number of atomic types    =            1
     number of electrons       =         3.00
     number of Kohn-Sham states=            6
     kinetic-energy cutoff     =      60.0000  Ry
     charge density cutoff     =     480.0000  Ry
     convergence threshold     =      1.0E-11
     mixing beta               =       0.7000
     number of iterations used =            8  plain     mixing
     Exchange-correlation      =  SLA  PW   PBX  PBC ( 1  4  3  4 0 0)

     celldm(1)=   6.574879  celldm(2)=   0.000000  celldm(3)=   0.000000
     celldm(4)=   0.000000  celldm(5)=   0.000000  celldm(6)=   0.000000

     crystal axes: (cart. coord. in units of alat)
               a(1) = (   0.500000   0.500000   0.500000 )  
               a(2) = (  -0.500000   0.500000   0.500000 )  
               a(3) = (  -0.500000  -0.500000   0.500000 )  

     reciprocal axes: (cart. coord. in units 2 pi/alat)
               b(1) = (  1.000000  0.000000  1.000000 )  
               b(2) = ( -1.000000  1.000000  0.000000 )  
               b(3) = (  0.000000 -1.000000  1.000000 )  


     PseudoPot. # 1 for Li read from file:
     ../Li.pbe-s-gbrv14.UPF
     MD5 check sum: 7ca33c4f951f001da2db5c8738379802
     Pseudo is Ultrasoft, Zval =  3.0
     Generated by new atomic code, or converted to UPF format
     Using radial grid of  751 points,  5 beta functions with: 
                l(1) =   0
                l(2) =   0
                l(3) =   0
                l(4) =   1
                l(5) =   1
     Q(r) pseudized with 10 coefficients,  rinner =    1.150   1.150   1.150


     atomic species   valence    mass     pseudopotential
        Li             3.00     6.94100     Li( 1.00)

     48 Sym. Ops., with inversion, found



   Cartesian axes

     site n.     atom                  positions (alat units)
         1           Li  tau(   1) = (   0.0000000   0.0000000   0.0000000  )

     number of k points=   616  Marzari-Vanderbilt smearing, width (Ry)=  0.0200

     Number of k-points >= 100: set verbosity='high' to print them.

     Dense  grid:    25123 G-vectors     FFT dimensions: (  40,  40,  40)

     Smooth grid:     8853 G-vectors     FFT dimensions: (  30,  30,  30)

     Largest allocated arrays     est. size (Mb)     dimensions
        Kohn-Sham Wavefunctions         0.10 Mb     (    1144,    6)
        NL pseudopotentials             0.16 Mb     (    1144,    9)
        Each V/rho on FFT grid          0.98 Mb     (   64000)
        Each G-vector array             0.19 Mb     (   25123)
        G-vector shells                 0.00 Mb     (     242)
     Largest temporary arrays     est. size (Mb)     dimensions
        Auxiliary wavefunctions         0.42 Mb     (    1144,   24)
        Each subspace H/S matrix        0.01 Mb     (      24,   24)
        Each <psi_i|beta_j> matrix      0.00 Mb     (       9,    6)
        Arrays for rho mixing           7.81 Mb     (   64000,    8)

     Initial potential from superposition of free atoms

     starting charge    2.54926, renormalised to    3.00000
     Starting wfc are    5 randomized atomic wfcs +    1 random wfc

     total cpu time spent up to now is        1.0 secs

     per-process dynamical memory:    20.0 Mb

     Self-consistent Calculation

     iteration #  1     ecut=    60.00 Ry     beta=0.70
     Davidson diagonalization with overlap
     ethr =  1.00E-02,  avg # of iterations =  5.3

     total cpu time spent up to now is        1.5 secs

     total energy              =     -14.46676072 Ry
     Harris-Foulkes estimate   =     -14.58682917 Ry
     estimated scf accuracy    <       0.16518156 Ry

     iteration #  2     ecut=    60.00 Ry     beta=0.70
     Davidson diagonalization with overlap
     ethr =  5.51E-03,  avg # of iterations =  1.0

     total cpu time spent up to now is        1.7 secs

     total energy              =     -14.47021577 Ry
     Harris-Foulkes estimate   =     -14.47581765 Ry
     estimated scf accuracy    <       0.00742397 Ry

     iteration #  3     ecut=    60.00 Ry     beta=0.70
     Davidson diagonalization with overlap
     ethr =  2.47E-04,  avg # of iterations =  2.2

     total cpu time spent up to now is        1.8 secs

     total energy              =     -14.47196004 Ry
     Harris-Foulkes estimate   =     -14.47195450 Ry
     estimated scf accuracy    <       0.00003687 Ry

     iteration #  4     ecut=    60.00 Ry     beta=0.70
     Davidson diagonalization with overlap
     ethr =  1.23E-06,  avg # of iterations =  4.3

     total cpu time spent up to now is        2.0 secs

     total energy              =     -14.47196664 Ry
     Harris-Foulkes estimate   =     -14.47196676 Ry
     estimated scf accuracy    <       0.00000084 Ry

     iteration #  5     ecut=    60.00 Ry     beta=0.70
     Davidson diagonalization with overlap
     ethr =  2.79E-08,  avg # of iterations =  2.0

     total cpu time spent up to now is        2.2 secs

     total energy              =     -14.47196691 Ry
     Harris-Foulkes estimate   =     -14.47196691 Ry
     estimated scf accuracy    <       0.00000001 Ry

     iteration #  6     ecut=    60.00 Ry     beta=0.70
     Davidson diagonalization with overlap
     ethr =  3.46E-10,  avg # of iterations =  2.4

     total cpu time spent up to now is        2.4 secs

     total energy              =     -14.47196692 Ry
     Harris-Foulkes estimate   =     -14.47196692 Ry
     estimated scf accuracy    <          1.2E-09 Ry

     iteration #  7     ecut=    60.00 Ry     beta=0.70
     Davidson diagonalization with overlap
     ethr =  4.06E-11,  avg # of iterations =  1.1

     total cpu time spent up to now is        2.5 secs

     End of self-consistent calculation

     Number of k-points >= 100: set verbosity='high' to print the bands.

     the Fermi energy is     0.8344 ev

!    total energy              =     -14.47196692 Ry
     Harris-Foulkes estimate   =     -14.47196692 Ry
     estimated scf accuracy    <          2.4E-12 Ry

     The total energy is the sum of the following terms:

     one-electron contribution =      -9.80778629 Ry
     hartree contribution      =       3.68920345 Ry
     xc contribution           =      -3.37173358 Ry
     ewald contribution        =      -4.98155191 Ry
     smearing contrib. (-TS)   =      -0.00009859 Ry

     convergence has been achieved in   7 iterations


     entering subroutine stress ...

          total   stress  (Ry/bohr**3)                   (kbar)     P=   -5.03
  -0.00003416  -0.00000000   0.00000000         -5.03     -0.00      0.00
  -0.00000000  -0.00003416  -0.00000000         -0.00     -5.03     -0.00
   0.00000000  -0.00000000  -0.00003416          0.00     -0.00     -5.03


     Writing output data file li-bcc.save
 
     init_run     :      0.44s CPU      0.55s WALL (       1 calls)
     electrons    :      1.43s CPU      1.53s WALL (       1 calls)
     stress       :      0.12s CPU      0.13s WALL (       1 calls)

     Called by init_run:
     wfcinit      :      0.01s CPU      0.04s WALL (       1 calls)
     potinit      :      0.24s CPU      0.25s WALL (       1 calls)

     Called by electrons:
     c_bands      :      0.31s CPU      0.31s WALL (       7 calls)
     sum_band     :      0.29s CPU      0.32s WALL (       7 calls)
     v_of_rho     :      0.34s CPU      0.34s WALL (       8 calls)
     newd         :      0.16s CPU      0.16s WALL (       8 calls)
     mix_rho      :      0.04s CPU      0.04s WALL (       7 calls)

     Called by c_bands:
     init_us_2    :      0.02s CPU      0.01s WALL (      32 calls)
     cegterg      :      0.25s CPU      0.24s WALL (      14 calls)

     Called by sum_band:
     sum_band:bec :      0.00s CPU      0.00s WALL (      14 calls)
     addusdens    :      0.15s CPU      0.16s WALL (       7 calls)

     Called by *egterg:
     h_psi        :      0.21s CPU      0.23s WALL (      65 calls)
     s_psi        :      0.00s CPU      0.00s WALL (      65 calls)
     g_psi        :      0.00s CPU      0.00s WALL (      49 calls)
     cdiaghg      :      0.02s CPU      0.01s WALL (      63 calls)

     Called by h_psi:
     add_vuspsi   :      0.00s CPU      0.00s WALL (      65 calls)

     General routines
     calbec       :      0.00s CPU      0.00s WALL (      81 calls)
     fft          :      0.20s CPU      0.23s WALL (     129 calls)
     ffts         :      0.01s CPU      0.01s WALL (      15 calls)
     fftw         :      0.20s CPU      0.23s WALL (     564 calls)
     interpolate  :      0.04s CPU      0.04s WALL (      15 calls)
     davcio       :      0.00s CPU      0.00s WALL (       2 calls)
 
     Parallel routines
     fft_scatter  :      0.04s CPU      0.04s WALL (     708 calls)
 
     PWSCF        :  0m10.48s CPU     2m22.99s WALL

 
   This run was terminated on:  20:46:34  23Jun2016            

=------------------------------------------------------------------------------=
   JOB DONE.
=------------------------------------------------------------------------------=
Application 22276160 resources: utime ~81815s, stime ~300s, Rss ~52988, inblocks ~3099369, outblocks ~2421402
