
     Program PHONON v.5.2.0 starts on 23Jun2016 at 20:46:44 

     This program is part of the open-source Quantum ESPRESSO suite
     for quantum simulation of materials; please cite
         "P. Giannozzi et al., J. Phys.:Condens. Matter 21 395502 (2009);
          URL http://www.quantum-espresso.org", 
     in publications or presentations arising from this work. More details at
     http://www.quantum-espresso.org/quote

     Parallel version (MPI), running on   576 processors
     K-points division:     npool     =     576

     Reading data from directory:
     ./tmp/li-bcc.save

   Info: using nr1, nr2, nr3 values from input

   Info: using nr1, nr2, nr3 values from input

     IMPORTANT: XC functional enforced from input :
     Exchange-correlation      =  SLA  PW   PBX  PBC ( 1  4  3  4 0 0)
     Any further DFT definition will be discarded
     Please, verify this is what you really want

 
     G-vector sticks info
     --------------------
     sticks:   dense  smooth     PW     G-vecs:    dense   smooth      PW
     Sum        1155     579    181                25123     8853    1553
 


     Dynamical matrices for (10,10,10)  uniform grid of q-points
     (  47q-points):
       N         xq(1)         xq(2)         xq(3) 
       1   0.000000000   0.000000000   0.000000000
       2   0.000000000  -0.100000000   0.100000000
       3   0.000000000  -0.200000000   0.200000000
       4   0.000000000  -0.300000000   0.300000000
       5   0.000000000  -0.400000000   0.400000000
       6   0.000000000   0.500000000  -0.500000000
       7  -0.100000000  -0.100000000   0.200000000
       8  -0.100000000  -0.200000000   0.300000000
       9  -0.100000000  -0.300000000   0.400000000
      10  -0.100000000   0.600000000  -0.500000000
      11  -0.200000000  -0.200000000   0.400000000
      12  -0.200000000   0.700000000  -0.500000000
      13  -0.200000000   0.600000000  -0.400000000
      14  -0.300000000   0.700000000  -0.400000000
      15   0.000000000   0.000000000   0.200000000
      16   0.000000000  -0.100000000   0.300000000
      17   0.000000000  -0.200000000   0.400000000
      18   0.000000000  -0.300000000   0.500000000
      19   0.000000000   0.600000000  -0.400000000
      20  -0.100000000  -0.100000000   0.400000000
      21  -0.100000000  -0.200000000   0.500000000
      22  -0.100000000   0.700000000  -0.400000000
      23  -0.200000000   0.200000000   0.200000000
      24  -0.200000000   0.800000000  -0.400000000
      25  -0.200000000   0.700000000  -0.300000000
      26  -0.300000000   0.300000000   0.200000000
      27   0.600000000  -0.600000000   0.200000000
      28   0.600000000  -0.700000000   0.300000000
      29   0.500000000  -0.500000000   0.200000000
      30   0.500000000  -0.600000000   0.300000000
      31   0.400000000  -0.600000000   0.400000000
      32   0.000000000   0.000000000   0.400000000
      33   0.000000000  -0.100000000   0.500000000
      34   0.000000000  -0.200000000   0.600000000
      35   0.000000000   0.700000000  -0.300000000
      36  -0.100000000  -0.100000000   0.600000000
      37  -0.100000000   0.800000000  -0.300000000
      38  -0.200000000   0.800000000  -0.200000000
      39   0.600000000  -0.600000000   0.400000000
      40   0.500000000  -0.500000000   0.400000000
      41   0.000000000   0.000000000   0.600000000
      42   0.000000000  -0.100000000   0.700000000
      43   0.000000000   0.800000000  -0.200000000
      44  -0.100000000   0.900000000  -0.200000000
      45   0.000000000   0.000000000   0.800000000
      46   0.000000000   0.900000000  -0.100000000
      47   0.000000000   0.000000000  -1.000000000

     Calculation of q =    0.0000000   0.0000000   0.0000000

                                                                                

     bravais-lattice index     =            3
     lattice parameter (alat)  =       6.5749  a.u.
     unit-cell volume          =     142.1128 (a.u.)^3
     number of atoms/cell      =            1
     number of atomic types    =            1
     kinetic-energy cut-off    =      60.0000  Ry
     charge density cut-off    =     480.0000  Ry
     convergence threshold     =      1.0E-16
     beta                      =       0.7000
     number of iterations used =            4
     Exchange-correlation      =  SLA  PW   PBX  PBC ( 1  4  3  4 0 0)


     celldm(1)=    6.57488  celldm(2)=    0.00000  celldm(3)=    0.00000
     celldm(4)=    0.00000  celldm(5)=    0.00000  celldm(6)=    0.00000

     crystal axes: (cart. coord. in units of alat)
               a(1) = (  0.5000  0.5000  0.5000 )  
               a(2) = ( -0.5000  0.5000  0.5000 )  
               a(3) = ( -0.5000 -0.5000  0.5000 )  

     reciprocal axes: (cart. coord. in units 2 pi/alat)
               b(1) = (  1.0000  0.0000  1.0000 )  
               b(2) = ( -1.0000  1.0000  0.0000 )  
               b(3) = (  0.0000 -1.0000  1.0000 )  


     Atoms inside the unit cell: 

     Cartesian axes

     site n.  atom      mass           positions (alat units)
        1     Li   6.9410   tau(    1) = (    0.00000    0.00000    0.00000  )

     Computing dynamical matrix for 
                    q = (   0.0000000   0.0000000   0.0000000 )
 
     49 Sym.Ops. (with q -> -q+G )


     G cutoff =  525.6020  (  25123 G-vectors)     FFT grid: ( 40, 40, 40)
     G cutoff =  262.8010  (   8853 G-vectors)  smooth grid: ( 30, 30, 30)

     number of k points=   616  Marzari-Vanderbilt smearing, width (Ry)=  0.0200

     PseudoPot. # 1 for Li read from file:
     ../Li.pbe-s-gbrv14.UPF
     MD5 check sum: 7ca33c4f951f001da2db5c8738379802
     Pseudo is Ultrasoft, Zval =  3.0
     Generated by new atomic code, or converted to UPF format
     Using radial grid of  751 points,  5 beta functions with: 
                l(1) =   0
                l(2) =   0
                l(3) =   0
                l(4) =   1
                l(5) =   1
     Q(r) pseudized with 10 coefficients,  rinner =    1.150   1.150   1.150


     Mode symmetry, O_h (m-3m)  point group:


     Atomic displacements:
     There are   1 irreducible representations

     Representation     1      3 modes -T_1u G_15  G_4-  To be done



     Alpha used in Ewald sum =   2.8000
     PHONON       :     6.49s CPU        47.30s WALL



     Representation #  1 modes #   1  2  3

     Self-consistent Calculation
 
     Pert. #  1: Fermi energy shift (Ry) =    -2.4815E-24    -9.4040E-38
     Pert. #  2: Fermi energy shift (Ry) =    -5.7903E-24     8.7770E-37
     Pert. #  3: Fermi energy shift (Ry) =     2.2058E-24     3.7616E-37

      iter #   1 total cpu time :    48.0 secs   av.it.:   5.2
      thresh= 1.000E-02 alpha_mix =  0.700 |ddv_scf|^2 =  1.077E-07
 
     Pert. #  1: Fermi energy shift (Ry) =    -1.3786E-25     2.5102E-39
     Pert. #  2: Fermi energy shift (Ry) =     1.4648E-24     1.5918E-39
     Pert. #  3: Fermi energy shift (Ry) =    -4.4806E-25    -3.6734E-40

      iter #   2 total cpu time :    58.0 secs   av.it.:   9.4
      thresh= 3.282E-05 alpha_mix =  0.700 |ddv_scf|^2 =  6.666E-09
 
     Pert. #  1: Fermi energy shift (Ry) =    -3.2743E-25    -7.6530E-41
     Pert. #  2: Fermi energy shift (Ry) =     6.2039E-25     1.5306E-41
     Pert. #  3: Fermi energy shift (Ry) =     1.3786E-25     2.1428E-40

      iter #   3 total cpu time :    64.9 secs   av.it.:   9.6
      thresh= 8.165E-06 alpha_mix =  0.700 |ddv_scf|^2 =  4.633E-11
 
     Pert. #  1: Fermi energy shift (Ry) =    -7.4102E-25    -1.3393E-41
     Pert. #  2: Fermi energy shift (Ry) =    -2.6883E-24     3.8265E-41
     Pert. #  3: Fermi energy shift (Ry) =     0.0000E+00    -3.8265E-42

      iter #   4 total cpu time :    74.0 secs   av.it.:   9.4
      thresh= 6.807E-07 alpha_mix =  0.700 |ddv_scf|^2 =  1.146E-13
 
     Pert. #  1: Fermi energy shift (Ry) =     3.1019E-25    -1.3393E-41
     Pert. #  2: Fermi energy shift (Ry) =    -2.1024E-24     2.2959E-41
     Pert. #  3: Fermi energy shift (Ry) =     6.8932E-26     1.5306E-41

      iter #   5 total cpu time :    79.2 secs   av.it.:   9.0
      thresh= 3.386E-08 alpha_mix =  0.700 |ddv_scf|^2 =  1.614E-15
 
     Pert. #  1: Fermi energy shift (Ry) =     8.6165E-26    -1.3393E-41
     Pert. #  2: Fermi energy shift (Ry) =     1.0340E-25     2.2959E-41
     Pert. #  3: Fermi energy shift (Ry) =    -6.8932E-26     1.5306E-41

      iter #   6 total cpu time :    82.5 secs   av.it.:   8.5
      thresh= 4.018E-09 alpha_mix =  0.700 |ddv_scf|^2 =  6.810E-19

     End of self-consistent calculation

     Convergence has been achieved 
 
     Number of q in the star =    1
     List of q in the star:
          1   0.000000000   0.000000000   0.000000000

     Diagonalizing the dynamical matrix

     q = (    0.000000000   0.000000000   0.000000000 ) 

 **************************************************************************
     freq (    1) =       0.229885 [THz] =       7.668133 [cm-1]
     freq (    2) =       0.229885 [THz] =       7.668133 [cm-1]
     freq (    3) =       0.229885 [THz] =       7.668133 [cm-1]
 **************************************************************************

     Mode symmetry, O_h (m-3m)  point group:

     freq (  1 -  3) =          7.7  [cm-1]   --> T_1u G_15  G_4- I  

     Calculation of q =    0.0000000  -0.1000000   0.1000000
 
     G-vector sticks info
     --------------------
     sticks:   dense  smooth     PW     G-vecs:    dense   smooth      PW
     Sum        1155     579    181                25123     8853    1601
 


     bravais-lattice index     =            3
     lattice parameter (alat)  =       6.5749  a.u.
     unit-cell volume          =     142.1128 (a.u.)^3
     number of atoms/cell      =            1
     number of atomic types    =            1
     number of electrons       =         3.00
     number of Kohn-Sham states=            6
     kinetic-energy cutoff     =      60.0000  Ry
     charge density cutoff     =     480.0000  Ry
     Exchange-correlation      =  SLA  PW   PBX  PBC ( 1  4  3  4 0 0)

     celldm(1)=   6.574879  celldm(2)=   0.000000  celldm(3)=   0.000000
     celldm(4)=   0.000000  celldm(5)=   0.000000  celldm(6)=   0.000000

     crystal axes: (cart. coord. in units of alat)
               a(1) = (   0.500000   0.500000   0.500000 )  
               a(2) = (  -0.500000   0.500000   0.500000 )  
               a(3) = (  -0.500000  -0.500000   0.500000 )  

     reciprocal axes: (cart. coord. in units 2 pi/alat)
               b(1) = (  1.000000  0.000000  1.000000 )  
               b(2) = ( -1.000000  1.000000  0.000000 )  
               b(3) = (  0.000000 -1.000000  1.000000 )  


     PseudoPot. # 1 for Li read from file:
     ../Li.pbe-s-gbrv14.UPF
     MD5 check sum: 7ca33c4f951f001da2db5c8738379802
     Pseudo is Ultrasoft, Zval =  3.0
     Generated by new atomic code, or converted to UPF format
     Using radial grid of  751 points,  5 beta functions with: 
                l(1) =   0
                l(2) =   0
                l(3) =   0
                l(4) =   1
                l(5) =   1
     Q(r) pseudized with 10 coefficients,  rinner =    1.150   1.150   1.150


     atomic species   valence    mass     pseudopotential
        Li             3.00     6.94100     Li( 1.00)

     48 Sym. Ops., with inversion, found



   Cartesian axes

     site n.     atom                  positions (alat units)
         1           Li  tau(   1) = (   0.0000000   0.0000000   0.0000000  )

     number of k points= 11760  Marzari-Vanderbilt smearing, width (Ry)=  0.0200

     Number of k-points >= 100: set verbosity='high' to print them.

     Dense  grid:    25123 G-vectors     FFT dimensions: (  40,  40,  40)

     Smooth grid:     8853 G-vectors     FFT dimensions: (  30,  30,  30)

     Largest allocated arrays     est. size (Mb)     dimensions
        Kohn-Sham Wavefunctions         0.10 Mb     (    1144,    6)
        NL pseudopotentials             0.16 Mb     (    1144,    9)
        Each V/rho on FFT grid          0.98 Mb     (   64000)
        Each G-vector array             0.19 Mb     (   25123)
        G-vector shells                 0.00 Mb     (     242)
     Largest temporary arrays     est. size (Mb)     dimensions
        Auxiliary wavefunctions         0.42 Mb     (    1144,   24)
        Each subspace H/S matrix        0.01 Mb     (      24,   24)
        Each <psi_i|beta_j> matrix      0.00 Mb     (       9,    6)

     The potential is recalculated from file :
     ./tmp/_ph0/li-bcc.save/charge-density.dat

     Starting wfc are    5 atomic +    1 random wfc

     Band Structure Calculation
     Davidson diagonalization with overlap

     ethr =  3.33E-10,  avg # of iterations = 17.4

     total cpu time spent up to now is        8.4 secs

     End of band structure calculation

     Number of k-points >= 100: set verbosity='high' to print the bands.

     the Fermi energy is     0.8344 ev

                                                                                

     bravais-lattice index     =            3
     lattice parameter (alat)  =       6.5749  a.u.
     unit-cell volume          =     142.1128 (a.u.)^3
     number of atoms/cell      =            1
     number of atomic types    =            1
     kinetic-energy cut-off    =      60.0000  Ry
     charge density cut-off    =     480.0000  Ry
     convergence threshold     =      1.0E-16
     beta                      =       0.7000
     number of iterations used =            4
     Exchange-correlation      =  SLA  PW   PBX  PBC ( 1  4  3  4 0 0)


     celldm(1)=    6.57488  celldm(2)=    0.00000  celldm(3)=    0.00000
     celldm(4)=    0.00000  celldm(5)=    0.00000  celldm(6)=    0.00000

     crystal axes: (cart. coord. in units of alat)
               a(1) = (  0.5000  0.5000  0.5000 )  
               a(2) = ( -0.5000  0.5000  0.5000 )  
               a(3) = ( -0.5000 -0.5000  0.5000 )  

     reciprocal axes: (cart. coord. in units 2 pi/alat)
               b(1) = (  1.0000  0.0000  1.0000 )  
               b(2) = ( -1.0000  1.0000  0.0000 )  
               b(3) = (  0.0000 -1.0000  1.0000 )  


     Atoms inside the unit cell: 

     Cartesian axes

     site n.  atom      mass           positions (alat units)
        1     Li   6.9410   tau(    1) = (    0.00000    0.00000    0.00000  )

     Computing dynamical matrix for 
                    q = (   0.0000000  -0.1000000   0.1000000 )
 
      4 Sym.Ops. (no q -> -q+G )


     G cutoff =  525.6020  (  25123 G-vectors)     FFT grid: ( 40, 40, 40)
     G cutoff =  262.8010  (   8853 G-vectors)  smooth grid: ( 30, 30, 30)

     number of k points= 11760  Marzari-Vanderbilt smearing, width (Ry)=  0.0200

     PseudoPot. # 1 for Li read from file:
     ../Li.pbe-s-gbrv14.UPF
     MD5 check sum: 7ca33c4f951f001da2db5c8738379802
     Pseudo is Ultrasoft, Zval =  3.0
     Generated by new atomic code, or converted to UPF format
     Using radial grid of  751 points,  5 beta functions with: 
                l(1) =   0
                l(2) =   0
                l(3) =   0
                l(4) =   1
                l(5) =   1
     Q(r) pseudized with 10 coefficients,  rinner =    1.150   1.150   1.150


     Mode symmetry, C_2v (mm2)  point group:


     Atomic displacements:
     There are   3 irreducible representations

     Representation     1      1 modes -A_1  D_1  S_1  To be done

     Representation     2      1 modes -B_1  D_3  S_3  To be done

     Representation     3      1 modes -B_2  D_4  S_4  To be done



     Alpha used in Ewald sum =   2.8000
     PHONON       :  0m53.12s CPU     1m52.14s WALL



     Representation #  1 mode #   1

     Self-consistent Calculation

      iter #   1 total cpu time :   112.6 secs   av.it.:   6.3
      thresh= 1.000E-02 alpha_mix =  0.700 |ddv_scf|^2 =  2.390E-01

      iter #   2 total cpu time :   119.3 secs   av.it.:   8.2
      thresh= 1.000E-02 alpha_mix =  0.700 |ddv_scf|^2 =  4.540E+02

      iter #   3 total cpu time :   127.4 secs   av.it.:   8.1
      thresh= 1.000E-02 alpha_mix =  0.700 |ddv_scf|^2 =  8.400E-03

      iter #   4 total cpu time :   133.2 secs   av.it.:   3.6
      thresh= 9.165E-03 alpha_mix =  0.700 |ddv_scf|^2 =  1.389E-07

      iter #   5 total cpu time :   142.6 secs   av.it.:   7.9
      thresh= 3.727E-05 alpha_mix =  0.700 |ddv_scf|^2 =  1.087E-08

      iter #   6 total cpu time :   145.9 secs   av.it.:   7.3
      thresh= 1.042E-05 alpha_mix =  0.700 |ddv_scf|^2 =  1.965E-06

      iter #   7 total cpu time :   150.0 secs   av.it.:   4.4
      thresh= 1.402E-04 alpha_mix =  0.700 |ddv_scf|^2 =  6.667E-10

      iter #   8 total cpu time :   158.7 secs   av.it.:   6.7
      thresh= 2.582E-06 alpha_mix =  0.700 |ddv_scf|^2 =  7.820E-12

      iter #   9 total cpu time :   162.5 secs   av.it.:   7.2
      thresh= 2.796E-07 alpha_mix =  0.700 |ddv_scf|^2 =  1.224E-12

      iter #  10 total cpu time :   167.2 secs   av.it.:   6.9
      thresh= 1.106E-07 alpha_mix =  0.700 |ddv_scf|^2 =  5.496E-15

      iter #  11 total cpu time :   175.3 secs   av.it.:   7.7
      thresh= 7.413E-09 alpha_mix =  0.700 |ddv_scf|^2 =  1.064E-16

      iter #  12 total cpu time :   181.2 secs   av.it.:   6.8
      thresh= 1.031E-09 alpha_mix =  0.700 |ddv_scf|^2 =  3.433E-17

     End of self-consistent calculation

     Convergence has been achieved 


     Representation #  2 mode #   2

     Self-consistent Calculation

      iter #   1 total cpu time :   189.2 secs   av.it.:   5.2
      thresh= 1.000E-02 alpha_mix =  0.700 |ddv_scf|^2 =  9.726E-07

      iter #   2 total cpu time :   197.7 secs   av.it.:   8.5
      thresh= 9.862E-05 alpha_mix =  0.700 |ddv_scf|^2 =  6.004E-08

      iter #   3 total cpu time :   205.1 secs   av.it.:   9.0
      thresh= 2.450E-05 alpha_mix =  0.700 |ddv_scf|^2 =  4.339E-10

      iter #   4 total cpu time :   206.3 secs   av.it.:   8.3
      thresh= 2.083E-06 alpha_mix =  0.700 |ddv_scf|^2 =  9.998E-13

      iter #   5 total cpu time :   208.4 secs   av.it.:   8.2
      thresh= 9.999E-08 alpha_mix =  0.700 |ddv_scf|^2 =  1.391E-14

      iter #   6 total cpu time :   212.4 secs   av.it.:   7.2
      thresh= 1.179E-08 alpha_mix =  0.700 |ddv_scf|^2 =  6.650E-18

     End of self-consistent calculation

     Convergence has been achieved 


     Representation #  3 mode #   3

     Self-consistent Calculation

      iter #   1 total cpu time :   221.6 secs   av.it.:   5.2
      thresh= 1.000E-02 alpha_mix =  0.700 |ddv_scf|^2 =  9.836E-07

      iter #   2 total cpu time :   223.1 secs   av.it.:   8.5
      thresh= 9.918E-05 alpha_mix =  0.700 |ddv_scf|^2 =  6.056E-08

      iter #   3 total cpu time :   224.8 secs   av.it.:   8.9
      thresh= 2.461E-05 alpha_mix =  0.700 |ddv_scf|^2 =  4.921E-10

      iter #   4 total cpu time :   225.8 secs   av.it.:   8.3
      thresh= 2.218E-06 alpha_mix =  0.700 |ddv_scf|^2 =  1.008E-12

      iter #   5 total cpu time :   226.7 secs   av.it.:   8.2
      thresh= 1.004E-07 alpha_mix =  0.700 |ddv_scf|^2 =  1.527E-14

      iter #   6 total cpu time :   228.6 secs   av.it.:   7.4
      thresh= 1.236E-08 alpha_mix =  0.700 |ddv_scf|^2 =  6.126E-18

     End of self-consistent calculation

     Convergence has been achieved 
 
     Number of q in the star =   12
     List of q in the star:
          1   0.000000000  -0.100000000   0.100000000
          2  -0.100000000   0.000000000   0.100000000
          3   0.100000000   0.000000000   0.100000000
          4   0.000000000   0.100000000   0.100000000
          5   0.100000000   0.100000000   0.000000000
          6  -0.100000000   0.100000000   0.000000000
          7   0.100000000  -0.100000000   0.000000000
          8  -0.100000000  -0.100000000   0.000000000
          9  -0.100000000   0.000000000  -0.100000000
         10   0.000000000   0.100000000  -0.100000000
         11   0.000000000  -0.100000000  -0.100000000
         12   0.100000000   0.000000000  -0.100000000

     Diagonalizing the dynamical matrix

     q = (    0.000000000  -0.100000000   0.100000000 ) 

 **************************************************************************
     freq (    1) =       0.510771 [THz] =      17.037474 [cm-1]
     freq (    2) =       1.778054 [THz] =      59.309513 [cm-1]
     freq (    3) =       2.635236 [THz] =      87.901999 [cm-1]
 **************************************************************************

     Mode symmetry, C_2v (mm2)  point group:

     freq (  1 -  1) =         17.0  [cm-1]   --> B_1  D_3  S_3      
     freq (  2 -  2) =         59.3  [cm-1]   --> B_2  D_4  S_4      
     freq (  3 -  3) =         87.9  [cm-1]   --> A_1  D_1  S_1      

     Calculation of q =    0.0000000  -0.2000000   0.2000000
 
     G-vector sticks info
     --------------------
     sticks:   dense  smooth     PW     G-vecs:    dense   smooth      PW
     Sum        1155     579    197                25123     8853    1721
 


     bravais-lattice index     =            3
     lattice parameter (alat)  =       6.5749  a.u.
     unit-cell volume          =     142.1128 (a.u.)^3
     number of atoms/cell      =            1
     number of atomic types    =            1
     number of electrons       =         3.00
     number of Kohn-Sham states=            6
     kinetic-energy cutoff     =      60.0000  Ry
     charge density cutoff     =     480.0000  Ry
     Exchange-correlation      =  SLA  PW   PBX  PBC ( 1  4  3  4 0 0)

     celldm(1)=   6.574879  celldm(2)=   0.000000  celldm(3)=   0.000000
     celldm(4)=   0.000000  celldm(5)=   0.000000  celldm(6)=   0.000000

     crystal axes: (cart. coord. in units of alat)
               a(1) = (   0.500000   0.500000   0.500000 )  
               a(2) = (  -0.500000   0.500000   0.500000 )  
               a(3) = (  -0.500000  -0.500000   0.500000 )  

     reciprocal axes: (cart. coord. in units 2 pi/alat)
               b(1) = (  1.000000  0.000000  1.000000 )  
               b(2) = ( -1.000000  1.000000  0.000000 )  
               b(3) = (  0.000000 -1.000000  1.000000 )  


     PseudoPot. # 1 for Li read from file:
     ../Li.pbe-s-gbrv14.UPF
     MD5 check sum: 7ca33c4f951f001da2db5c8738379802
     Pseudo is Ultrasoft, Zval =  3.0
     Generated by new atomic code, or converted to UPF format
     Using radial grid of  751 points,  5 beta functions with: 
                l(1) =   0
                l(2) =   0
                l(3) =   0
                l(4) =   1
                l(5) =   1
     Q(r) pseudized with 10 coefficients,  rinner =    1.150   1.150   1.150


     atomic species   valence    mass     pseudopotential
        Li             3.00     6.94100     Li( 1.00)

     48 Sym. Ops., with inversion, found



   Cartesian axes

     site n.     atom                  positions (alat units)
         1           Li  tau(   1) = (   0.0000000   0.0000000   0.0000000  )

     number of k points= 11760  Marzari-Vanderbilt smearing, width (Ry)=  0.0200

     Number of k-points >= 100: set verbosity='high' to print them.

     Dense  grid:    25123 G-vectors     FFT dimensions: (  40,  40,  40)

     Smooth grid:     8853 G-vectors     FFT dimensions: (  30,  30,  30)

     Largest allocated arrays     est. size (Mb)     dimensions
        Kohn-Sham Wavefunctions         0.10 Mb     (    1144,    6)
        NL pseudopotentials             0.16 Mb     (    1144,    9)
        Each V/rho on FFT grid          0.98 Mb     (   64000)
        Each G-vector array             0.19 Mb     (   25123)
        G-vector shells                 0.00 Mb     (     242)
     Largest temporary arrays     est. size (Mb)     dimensions
        Auxiliary wavefunctions         0.42 Mb     (    1144,   24)
        Each subspace H/S matrix        0.01 Mb     (      24,   24)
        Each <psi_i|beta_j> matrix      0.00 Mb     (       9,    6)

     The potential is recalculated from file :
     ./tmp/_ph0/li-bcc.save/charge-density.dat

     Starting wfc are    5 atomic +    1 random wfc

     Band Structure Calculation
     Davidson diagonalization with overlap

     ethr =  3.33E-10,  avg # of iterations = 17.4

     total cpu time spent up to now is       17.4 secs

     End of band structure calculation

     Number of k-points >= 100: set verbosity='high' to print the bands.

     the Fermi energy is     0.8344 ev

                                                                                

     bravais-lattice index     =            3
     lattice parameter (alat)  =       6.5749  a.u.
     unit-cell volume          =     142.1128 (a.u.)^3
     number of atoms/cell      =            1
     number of atomic types    =            1
     kinetic-energy cut-off    =      60.0000  Ry
     charge density cut-off    =     480.0000  Ry
     convergence threshold     =      1.0E-16
     beta                      =       0.7000
     number of iterations used =            4
     Exchange-correlation      =  SLA  PW   PBX  PBC ( 1  4  3  4 0 0)


     celldm(1)=    6.57488  celldm(2)=    0.00000  celldm(3)=    0.00000
     celldm(4)=    0.00000  celldm(5)=    0.00000  celldm(6)=    0.00000

     crystal axes: (cart. coord. in units of alat)
               a(1) = (  0.5000  0.5000  0.5000 )  
               a(2) = ( -0.5000  0.5000  0.5000 )  
               a(3) = ( -0.5000 -0.5000  0.5000 )  

     reciprocal axes: (cart. coord. in units 2 pi/alat)
               b(1) = (  1.0000  0.0000  1.0000 )  
               b(2) = ( -1.0000  1.0000  0.0000 )  
               b(3) = (  0.0000 -1.0000  1.0000 )  


     Atoms inside the unit cell: 

     Cartesian axes

     site n.  atom      mass           positions (alat units)
        1     Li   6.9410   tau(    1) = (    0.00000    0.00000    0.00000  )

     Computing dynamical matrix for 
                    q = (   0.0000000  -0.2000000   0.2000000 )
 
      4 Sym.Ops. (no q -> -q+G )


     G cutoff =  525.6020  (  25123 G-vectors)     FFT grid: ( 40, 40, 40)
     G cutoff =  262.8010  (   8853 G-vectors)  smooth grid: ( 30, 30, 30)

     number of k points= 11760  Marzari-Vanderbilt smearing, width (Ry)=  0.0200

     PseudoPot. # 1 for Li read from file:
     ../Li.pbe-s-gbrv14.UPF
     MD5 check sum: 7ca33c4f951f001da2db5c8738379802
     Pseudo is Ultrasoft, Zval =  3.0
     Generated by new atomic code, or converted to UPF format
     Using radial grid of  751 points,  5 beta functions with: 
                l(1) =   0
                l(2) =   0
                l(3) =   0
                l(4) =   1
                l(5) =   1
     Q(r) pseudized with 10 coefficients,  rinner =    1.150   1.150   1.150


     Mode symmetry, C_2v (mm2)  point group:


     Atomic displacements:
     There are   3 irreducible representations

     Representation     1      1 modes -A_1  D_1  S_1  To be done

     Representation     2      1 modes -B_1  D_3  S_3  To be done

     Representation     3      1 modes -B_2  D_4  S_4  To be done



     Alpha used in Ewald sum =   2.8000
     PHONON       :  2m46.43s CPU     4m 6.69s WALL



     Representation #  1 mode #   1

     Self-consistent Calculation

      iter #   1 total cpu time :   247.1 secs   av.it.:   6.3
      thresh= 1.000E-02 alpha_mix =  0.700 |ddv_scf|^2 =  3.260E-03

      iter #   2 total cpu time :   255.3 secs   av.it.:   7.4
      thresh= 5.709E-03 alpha_mix =  0.700 |ddv_scf|^2 =  3.101E-01

      iter #   3 total cpu time :   259.6 secs   av.it.:   6.8
      thresh= 1.000E-02 alpha_mix =  0.700 |ddv_scf|^2 =  5.325E-08

      iter #   4 total cpu time :   272.4 secs   av.it.:   9.1
      thresh= 2.308E-05 alpha_mix =  0.700 |ddv_scf|^2 =  1.042E-08

      iter #   5 total cpu time :   281.3 secs   av.it.:   8.6
      thresh= 1.021E-05 alpha_mix =  0.700 |ddv_scf|^2 =  2.155E-10

      iter #   6 total cpu time :   293.4 secs   av.it.:   8.1
      thresh= 1.468E-06 alpha_mix =  0.700 |ddv_scf|^2 =  2.012E-13

      iter #   7 total cpu time :   301.6 secs   av.it.:   9.5
      thresh= 4.486E-08 alpha_mix =  0.700 |ddv_scf|^2 =  3.569E-13

      iter #   8 total cpu time :   303.7 secs   av.it.:   7.2
      thresh= 5.974E-08 alpha_mix =  0.700 |ddv_scf|^2 =  2.123E-12

      iter #   9 total cpu time :   305.7 secs   av.it.:   6.5
      thresh= 1.457E-07 alpha_mix =  0.700 |ddv_scf|^2 =  4.603E-14

      iter #  10 total cpu time :   306.4 secs   av.it.:   6.8
      thresh= 2.145E-08 alpha_mix =  0.700 |ddv_scf|^2 =  1.505E-17

     End of self-consistent calculation

     Convergence has been achieved 


     Representation #  2 mode #   2

     Self-consistent Calculation

      iter #   1 total cpu time :   310.6 secs   av.it.:   5.3
      thresh= 1.000E-02 alpha_mix =  0.700 |ddv_scf|^2 =  9.820E-07

      iter #   2 total cpu time :   311.2 secs   av.it.:   8.5
      thresh= 9.910E-05 alpha_mix =  0.700 |ddv_scf|^2 =  6.017E-08

      iter #   3 total cpu time :   314.1 secs   av.it.:   9.0
      thresh= 2.453E-05 alpha_mix =  0.700 |ddv_scf|^2 =  4.891E-10

      iter #   4 total cpu time :   318.2 secs   av.it.:   8.3
      thresh= 2.211E-06 alpha_mix =  0.700 |ddv_scf|^2 =  9.568E-13

      iter #   5 total cpu time :   319.9 secs   av.it.:   8.3
      thresh= 9.781E-08 alpha_mix =  0.700 |ddv_scf|^2 =  1.493E-14

      iter #   6 total cpu time :   323.1 secs   av.it.:   6.2
      thresh= 1.222E-08 alpha_mix =  0.700 |ddv_scf|^2 =  8.055E-18

     End of self-consistent calculation

     Convergence has been achieved 


     Representation #  3 mode #   3

     Self-consistent Calculation

      iter #   1 total cpu time :   324.4 secs   av.it.:   5.4
      thresh= 1.000E-02 alpha_mix =  0.700 |ddv_scf|^2 =  1.022E-06

      iter #   2 total cpu time :   325.3 secs   av.it.:   8.5
      thresh= 1.011E-04 alpha_mix =  0.700 |ddv_scf|^2 =  6.223E-08

      iter #   3 total cpu time :   327.3 secs   av.it.:   8.9
      thresh= 2.495E-05 alpha_mix =  0.700 |ddv_scf|^2 =  7.207E-10

      iter #   4 total cpu time :   329.1 secs   av.it.:   8.3
      thresh= 2.685E-06 alpha_mix =  0.700 |ddv_scf|^2 =  1.095E-12

      iter #   5 total cpu time :   330.9 secs   av.it.:   8.3
      thresh= 1.046E-07 alpha_mix =  0.700 |ddv_scf|^2 =  1.854E-14

      iter #   6 total cpu time :   331.7 secs   av.it.:   7.0
      thresh= 1.362E-08 alpha_mix =  0.700 |ddv_scf|^2 =  6.211E-18

     End of self-consistent calculation

     Convergence has been achieved 
 
     Number of q in the star =   12
     List of q in the star:
          1   0.000000000  -0.200000000   0.200000000
          2  -0.200000000   0.000000000   0.200000000
          3   0.200000000   0.000000000   0.200000000
          4   0.000000000   0.200000000   0.200000000
          5   0.200000000   0.200000000   0.000000000
          6  -0.200000000   0.200000000   0.000000000
          7   0.200000000  -0.200000000   0.000000000
          8  -0.200000000  -0.200000000   0.000000000
          9  -0.200000000   0.000000000  -0.200000000
         10   0.000000000   0.200000000  -0.200000000
         11   0.000000000  -0.200000000  -0.200000000
         12   0.200000000   0.000000000  -0.200000000

     Diagonalizing the dynamical matrix

     q = (    0.000000000  -0.200000000   0.200000000 ) 

 **************************************************************************
     freq (    1) =       0.944649 [THz] =      31.510084 [cm-1]
     freq (    2) =       3.354920 [THz] =     111.908101 [cm-1]
     freq (    3) =       5.369679 [THz] =     179.113203 [cm-1]
 **************************************************************************

     Mode symmetry, C_2v (mm2)  point group:

     freq (  1 -  1) =         31.5  [cm-1]   --> B_1  D_3  S_3      
     freq (  2 -  2) =        111.9  [cm-1]   --> B_2  D_4  S_4      
     freq (  3 -  3) =        179.1  [cm-1]   --> A_1  D_1  S_1      

     Calculation of q =    0.0000000  -0.3000000   0.3000000
 
     G-vector sticks info
     --------------------
     sticks:   dense  smooth     PW     G-vecs:    dense   smooth      PW
     Sum        1155     579    201                25123     8853    1745
 


     bravais-lattice index     =            3
     lattice parameter (alat)  =       6.5749  a.u.
     unit-cell volume          =     142.1128 (a.u.)^3
     number of atoms/cell      =            1
     number of atomic types    =            1
     number of electrons       =         3.00
     number of Kohn-Sham states=            6
     kinetic-energy cutoff     =      60.0000  Ry
     charge density cutoff     =     480.0000  Ry
     Exchange-correlation      =  SLA  PW   PBX  PBC ( 1  4  3  4 0 0)

     celldm(1)=   6.574879  celldm(2)=   0.000000  celldm(3)=   0.000000
     celldm(4)=   0.000000  celldm(5)=   0.000000  celldm(6)=   0.000000

     crystal axes: (cart. coord. in units of alat)
               a(1) = (   0.500000   0.500000   0.500000 )  
               a(2) = (  -0.500000   0.500000   0.500000 )  
               a(3) = (  -0.500000  -0.500000   0.500000 )  

     reciprocal axes: (cart. coord. in units 2 pi/alat)
               b(1) = (  1.000000  0.000000  1.000000 )  
               b(2) = ( -1.000000  1.000000  0.000000 )  
               b(3) = (  0.000000 -1.000000  1.000000 )  


     PseudoPot. # 1 for Li read from file:
     ../Li.pbe-s-gbrv14.UPF
     MD5 check sum: 7ca33c4f951f001da2db5c8738379802
     Pseudo is Ultrasoft, Zval =  3.0
     Generated by new atomic code, or converted to UPF format
     Using radial grid of  751 points,  5 beta functions with: 
                l(1) =   0
                l(2) =   0
                l(3) =   0
                l(4) =   1
                l(5) =   1
     Q(r) pseudized with 10 coefficients,  rinner =    1.150   1.150   1.150


     atomic species   valence    mass     pseudopotential
        Li             3.00     6.94100     Li( 1.00)

     48 Sym. Ops., with inversion, found



   Cartesian axes

     site n.     atom                  positions (alat units)
         1           Li  tau(   1) = (   0.0000000   0.0000000   0.0000000  )

     number of k points= 11760  Marzari-Vanderbilt smearing, width (Ry)=  0.0200

     Number of k-points >= 100: set verbosity='high' to print them.

     Dense  grid:    25123 G-vectors     FFT dimensions: (  40,  40,  40)

     Smooth grid:     8853 G-vectors     FFT dimensions: (  30,  30,  30)

     Largest allocated arrays     est. size (Mb)     dimensions
        Kohn-Sham Wavefunctions         0.10 Mb     (    1144,    6)
        NL pseudopotentials             0.16 Mb     (    1144,    9)
        Each V/rho on FFT grid          0.98 Mb     (   64000)
        Each G-vector array             0.19 Mb     (   25123)
        G-vector shells                 0.00 Mb     (     242)
     Largest temporary arrays     est. size (Mb)     dimensions
        Auxiliary wavefunctions         0.42 Mb     (    1144,   24)
        Each subspace H/S matrix        0.01 Mb     (      24,   24)
        Each <psi_i|beta_j> matrix      0.00 Mb     (       9,    6)

     The potential is recalculated from file :
     ./tmp/_ph0/li-bcc.save/charge-density.dat

     Starting wfc are    5 atomic +    1 random wfc

     Band Structure Calculation
     Davidson diagonalization with overlap

     ethr =  3.33E-10,  avg # of iterations = 17.4

     total cpu time spent up to now is       33.4 secs

     End of band structure calculation

     Number of k-points >= 100: set verbosity='high' to print the bands.

     the Fermi energy is     0.8344 ev

                                                                                

     bravais-lattice index     =            3
     lattice parameter (alat)  =       6.5749  a.u.
     unit-cell volume          =     142.1128 (a.u.)^3
     number of atoms/cell      =            1
     number of atomic types    =            1
     kinetic-energy cut-off    =      60.0000  Ry
     charge density cut-off    =     480.0000  Ry
     convergence threshold     =      1.0E-16
     beta                      =       0.7000
     number of iterations used =            4
     Exchange-correlation      =  SLA  PW   PBX  PBC ( 1  4  3  4 0 0)


     celldm(1)=    6.57488  celldm(2)=    0.00000  celldm(3)=    0.00000
     celldm(4)=    0.00000  celldm(5)=    0.00000  celldm(6)=    0.00000

     crystal axes: (cart. coord. in units of alat)
               a(1) = (  0.5000  0.5000  0.5000 )  
               a(2) = ( -0.5000  0.5000  0.5000 )  
               a(3) = ( -0.5000 -0.5000  0.5000 )  

     reciprocal axes: (cart. coord. in units 2 pi/alat)
               b(1) = (  1.0000  0.0000  1.0000 )  
               b(2) = ( -1.0000  1.0000  0.0000 )  
               b(3) = (  0.0000 -1.0000  1.0000 )  


     Atoms inside the unit cell: 

     Cartesian axes

     site n.  atom      mass           positions (alat units)
        1     Li   6.9410   tau(    1) = (    0.00000    0.00000    0.00000  )

     Computing dynamical matrix for 
                    q = (   0.0000000  -0.3000000   0.3000000 )
 
      4 Sym.Ops. (no q -> -q+G )


     G cutoff =  525.6020  (  25123 G-vectors)     FFT grid: ( 40, 40, 40)
     G cutoff =  262.8010  (   8853 G-vectors)  smooth grid: ( 30, 30, 30)

     number of k points= 11760  Marzari-Vanderbilt smearing, width (Ry)=  0.0200

     PseudoPot. # 1 for Li read from file:
     ../Li.pbe-s-gbrv14.UPF
     MD5 check sum: 7ca33c4f951f001da2db5c8738379802
     Pseudo is Ultrasoft, Zval =  3.0
     Generated by new atomic code, or converted to UPF format
     Using radial grid of  751 points,  5 beta functions with: 
                l(1) =   0
                l(2) =   0
                l(3) =   0
                l(4) =   1
                l(5) =   1
     Q(r) pseudized with 10 coefficients,  rinner =    1.150   1.150   1.150


     Mode symmetry, C_2v (mm2)  point group:


     Atomic displacements:
     There are   3 irreducible representations

     Representation     1      1 modes -A_1  D_1  S_1  To be done

     Representation     2      1 modes -B_1  D_3  S_3  To be done

     Representation     3      1 modes -B_2  D_4  S_4  To be done



     Alpha used in Ewald sum =   2.8000
     PHONON       :  4m16.02s CPU     6m 4.98s WALL



     Representation #  1 mode #   1

     Self-consistent Calculation

      iter #   1 total cpu time :   365.4 secs   av.it.:   6.3
      thresh= 1.000E-02 alpha_mix =  0.700 |ddv_scf|^2 =  2.345E-04

      iter #   2 total cpu time :   373.5 secs   av.it.:   8.0
      thresh= 1.531E-03 alpha_mix =  0.700 |ddv_scf|^2 =  3.021E-03

      iter #   3 total cpu time :   377.4 secs   av.it.:   6.4
      thresh= 5.497E-03 alpha_mix =  0.700 |ddv_scf|^2 =  7.784E-08

      iter #   4 total cpu time :   383.8 secs   av.it.:   8.8
      thresh= 2.790E-05 alpha_mix =  0.700 |ddv_scf|^2 =  2.615E-09

      iter #   5 total cpu time :   392.4 secs   av.it.:   8.8
      thresh= 5.114E-06 alpha_mix =  0.700 |ddv_scf|^2 =  1.322E-11

      iter #   6 total cpu time :   399.5 secs   av.it.:   8.9
      thresh= 3.636E-07 alpha_mix =  0.700 |ddv_scf|^2 =  3.242E-13

      iter #   7 total cpu time :   400.1 secs   av.it.:   9.3
      thresh= 5.694E-08 alpha_mix =  0.700 |ddv_scf|^2 =  8.621E-16

      iter #   8 total cpu time :   401.1 secs   av.it.:   9.3
      thresh= 2.936E-09 alpha_mix =  0.700 |ddv_scf|^2 =  3.124E-16

      iter #   9 total cpu time :   401.9 secs   av.it.:   8.0
      thresh= 1.767E-09 alpha_mix =  0.700 |ddv_scf|^2 =  2.458E-16

      iter #  10 total cpu time :   402.4 secs   av.it.:   7.5
      thresh= 1.568E-09 alpha_mix =  0.700 |ddv_scf|^2 =  7.643E-17

     End of self-consistent calculation

     Convergence has been achieved 


     Representation #  2 mode #   2

     Self-consistent Calculation

      iter #   1 total cpu time :   407.2 secs   av.it.:   5.4
      thresh= 1.000E-02 alpha_mix =  0.700 |ddv_scf|^2 =  9.948E-07

      iter #   2 total cpu time :   408.2 secs   av.it.:   8.5
      thresh= 9.974E-05 alpha_mix =  0.700 |ddv_scf|^2 =  6.044E-08

      iter #   3 total cpu time :   408.9 secs   av.it.:   9.0
      thresh= 2.458E-05 alpha_mix =  0.700 |ddv_scf|^2 =  5.810E-10

      iter #   4 total cpu time :   409.4 secs   av.it.:   8.3
      thresh= 2.410E-06 alpha_mix =  0.700 |ddv_scf|^2 =  9.239E-13

      iter #   5 total cpu time :   410.7 secs   av.it.:   8.4
      thresh= 9.612E-08 alpha_mix =  0.700 |ddv_scf|^2 =  1.670E-14

      iter #   6 total cpu time :   412.2 secs   av.it.:   7.4
      thresh= 1.292E-08 alpha_mix =  0.700 |ddv_scf|^2 =  9.781E-18

     End of self-consistent calculation

     Convergence has been achieved 


     Representation #  3 mode #   3

     Self-consistent Calculation

      iter #   1 total cpu time :   414.1 secs   av.it.:   5.5
      thresh= 1.000E-02 alpha_mix =  0.700 |ddv_scf|^2 =  1.072E-06

      iter #   2 total cpu time :   414.6 secs   av.it.:   8.5
      thresh= 1.035E-04 alpha_mix =  0.700 |ddv_scf|^2 =  6.450E-08

      iter #   3 total cpu time :   415.2 secs   av.it.:   8.9
      thresh= 2.540E-05 alpha_mix =  0.700 |ddv_scf|^2 =  1.065E-09

      iter #   4 total cpu time :   416.3 secs   av.it.:   8.2
      thresh= 3.263E-06 alpha_mix =  0.700 |ddv_scf|^2 =  1.254E-12

      iter #   5 total cpu time :   419.3 secs   av.it.:   8.5
      thresh= 1.120E-07 alpha_mix =  0.700 |ddv_scf|^2 =  2.163E-14

      iter #   6 total cpu time :   419.8 secs   av.it.:   7.6
      thresh= 1.471E-08 alpha_mix =  0.700 |ddv_scf|^2 =  5.835E-18

     End of self-consistent calculation

     Convergence has been achieved 
 
     Number of q in the star =   12
     List of q in the star:
          1   0.000000000  -0.300000000   0.300000000
          2  -0.300000000   0.000000000   0.300000000
          3   0.300000000   0.000000000   0.300000000
          4   0.000000000   0.300000000   0.300000000
          5   0.300000000   0.300000000   0.000000000
          6  -0.300000000   0.300000000   0.000000000
          7   0.300000000  -0.300000000   0.000000000
          8  -0.300000000  -0.300000000   0.000000000
          9  -0.300000000   0.000000000  -0.300000000
         10   0.000000000   0.300000000  -0.300000000
         11   0.000000000  -0.300000000  -0.300000000
         12   0.300000000   0.000000000  -0.300000000

     Diagonalizing the dynamical matrix

     q = (    0.000000000  -0.300000000   0.300000000 ) 

 **************************************************************************
     freq (    1) =       1.298309 [THz] =      43.306928 [cm-1]
     freq (    2) =       4.588409 [THz] =     153.052837 [cm-1]
     freq (    3) =       7.519103 [THz] =     250.810265 [cm-1]
 **************************************************************************

     Mode symmetry, C_2v (mm2)  point group:

     freq (  1 -  1) =         43.3  [cm-1]   --> B_1  D_3  S_3      
     freq (  2 -  2) =        153.1  [cm-1]   --> B_2  D_4  S_4      
     freq (  3 -  3) =        250.8  [cm-1]   --> A_1  D_1  S_1      

     Calculation of q =    0.0000000  -0.4000000   0.4000000
 
     G-vector sticks info
     --------------------
     sticks:   dense  smooth     PW     G-vecs:    dense   smooth      PW
     Sum        1155     579    205                25123     8853    1865
 


     bravais-lattice index     =            3
     lattice parameter (alat)  =       6.5749  a.u.
     unit-cell volume          =     142.1128 (a.u.)^3
     number of atoms/cell      =            1
     number of atomic types    =            1
     number of electrons       =         3.00
     number of Kohn-Sham states=            6
     kinetic-energy cutoff     =      60.0000  Ry
     charge density cutoff     =     480.0000  Ry
     Exchange-correlation      =  SLA  PW   PBX  PBC ( 1  4  3  4 0 0)

     celldm(1)=   6.574879  celldm(2)=   0.000000  celldm(3)=   0.000000
     celldm(4)=   0.000000  celldm(5)=   0.000000  celldm(6)=   0.000000

     crystal axes: (cart. coord. in units of alat)
               a(1) = (   0.500000   0.500000   0.500000 )  
               a(2) = (  -0.500000   0.500000   0.500000 )  
               a(3) = (  -0.500000  -0.500000   0.500000 )  

     reciprocal axes: (cart. coord. in units 2 pi/alat)
               b(1) = (  1.000000  0.000000  1.000000 )  
               b(2) = ( -1.000000  1.000000  0.000000 )  
               b(3) = (  0.000000 -1.000000  1.000000 )  


     PseudoPot. # 1 for Li read from file:
     ../Li.pbe-s-gbrv14.UPF
     MD5 check sum: 7ca33c4f951f001da2db5c8738379802
     Pseudo is Ultrasoft, Zval =  3.0
     Generated by new atomic code, or converted to UPF format
     Using radial grid of  751 points,  5 beta functions with: 
                l(1) =   0
                l(2) =   0
                l(3) =   0
                l(4) =   1
                l(5) =   1
     Q(r) pseudized with 10 coefficients,  rinner =    1.150   1.150   1.150


     atomic species   valence    mass     pseudopotential
        Li             3.00     6.94100     Li( 1.00)

     48 Sym. Ops., with inversion, found



   Cartesian axes

     site n.     atom                  positions (alat units)
         1           Li  tau(   1) = (   0.0000000   0.0000000   0.0000000  )

     number of k points= 11760  Marzari-Vanderbilt smearing, width (Ry)=  0.0200

     Number of k-points >= 100: set verbosity='high' to print them.

     Dense  grid:    25123 G-vectors     FFT dimensions: (  40,  40,  40)

     Smooth grid:     8853 G-vectors     FFT dimensions: (  30,  30,  30)

     Largest allocated arrays     est. size (Mb)     dimensions
        Kohn-Sham Wavefunctions         0.10 Mb     (    1144,    6)
        NL pseudopotentials             0.16 Mb     (    1144,    9)
        Each V/rho on FFT grid          0.98 Mb     (   64000)
        Each G-vector array             0.19 Mb     (   25123)
        G-vector shells                 0.00 Mb     (     242)
     Largest temporary arrays     est. size (Mb)     dimensions
        Auxiliary wavefunctions         0.42 Mb     (    1144,   24)
        Each subspace H/S matrix        0.01 Mb     (      24,   24)
        Each <psi_i|beta_j> matrix      0.00 Mb     (       9,    6)

     The potential is recalculated from file :
     ./tmp/_ph0/li-bcc.save/charge-density.dat

     Starting wfc are    5 atomic +    1 random wfc

     Band Structure Calculation
     Davidson diagonalization with overlap

     ethr =  3.33E-10,  avg # of iterations = 17.4

     total cpu time spent up to now is       41.9 secs

     End of band structure calculation

     Number of k-points >= 100: set verbosity='high' to print the bands.

     the Fermi energy is     0.8344 ev

                                                                                

     bravais-lattice index     =            3
     lattice parameter (alat)  =       6.5749  a.u.
     unit-cell volume          =     142.1128 (a.u.)^3
     number of atoms/cell      =            1
     number of atomic types    =            1
     kinetic-energy cut-off    =      60.0000  Ry
     charge density cut-off    =     480.0000  Ry
     convergence threshold     =      1.0E-16
     beta                      =       0.7000
     number of iterations used =            4
     Exchange-correlation      =  SLA  PW   PBX  PBC ( 1  4  3  4 0 0)


     celldm(1)=    6.57488  celldm(2)=    0.00000  celldm(3)=    0.00000
     celldm(4)=    0.00000  celldm(5)=    0.00000  celldm(6)=    0.00000

     crystal axes: (cart. coord. in units of alat)
               a(1) = (  0.5000  0.5000  0.5000 )  
               a(2) = ( -0.5000  0.5000  0.5000 )  
               a(3) = ( -0.5000 -0.5000  0.5000 )  

     reciprocal axes: (cart. coord. in units 2 pi/alat)
               b(1) = (  1.0000  0.0000  1.0000 )  
               b(2) = ( -1.0000  1.0000  0.0000 )  
               b(3) = (  0.0000 -1.0000  1.0000 )  


     Atoms inside the unit cell: 

     Cartesian axes

     site n.  atom      mass           positions (alat units)
        1     Li   6.9410   tau(    1) = (    0.00000    0.00000    0.00000  )

     Computing dynamical matrix for 
                    q = (   0.0000000  -0.4000000   0.4000000 )
 
      4 Sym.Ops. (no q -> -q+G )


     G cutoff =  525.6020  (  25123 G-vectors)     FFT grid: ( 40, 40, 40)
     G cutoff =  262.8010  (   8853 G-vectors)  smooth grid: ( 30, 30, 30)

     number of k points= 11760  Marzari-Vanderbilt smearing, width (Ry)=  0.0200

     PseudoPot. # 1 for Li read from file:
     ../Li.pbe-s-gbrv14.UPF
     MD5 check sum: 7ca33c4f951f001da2db5c8738379802
     Pseudo is Ultrasoft, Zval =  3.0
     Generated by new atomic code, or converted to UPF format
     Using radial grid of  751 points,  5 beta functions with: 
                l(1) =   0
                l(2) =   0
                l(3) =   0
                l(4) =   1
                l(5) =   1
     Q(r) pseudized with 10 coefficients,  rinner =    1.150   1.150   1.150


     Mode symmetry, C_2v (mm2)  point group:


     Atomic displacements:
     There are   3 irreducible representations

     Representation     1      1 modes -A_1  D_1  S_1  To be done

     Representation     2      1 modes -B_1  D_3  S_3  To be done

     Representation     3      1 modes -B_2  D_4  S_4  To be done



     Alpha used in Ewald sum =   2.8000
     PHONON       :  5m17.71s CPU     7m14.64s WALL



     Representation #  1 mode #   1

     Self-consistent Calculation

      iter #   1 total cpu time :   435.1 secs   av.it.:   6.3
      thresh= 1.000E-02 alpha_mix =  0.700 |ddv_scf|^2 =  3.487E-05

      iter #   2 total cpu time :   438.9 secs   av.it.:   8.5
      thresh= 5.905E-04 alpha_mix =  0.700 |ddv_scf|^2 =  7.665E-05

      iter #   3 total cpu time :   444.3 secs   av.it.:   7.2
      thresh= 8.755E-04 alpha_mix =  0.700 |ddv_scf|^2 =  6.260E-08

      iter #   4 total cpu time :   449.3 secs   av.it.:   8.7
      thresh= 2.502E-05 alpha_mix =  0.700 |ddv_scf|^2 =  3.468E-09

      iter #   5 total cpu time :   456.1 secs   av.it.:   8.8
      thresh= 5.889E-06 alpha_mix =  0.700 |ddv_scf|^2 =  4.127E-12

      iter #   6 total cpu time :   464.7 secs   av.it.:   8.9
      thresh= 2.032E-07 alpha_mix =  0.700 |ddv_scf|^2 =  1.985E-13

      iter #   7 total cpu time :   484.9 secs   av.it.:   8.9
      thresh= 4.456E-08 alpha_mix =  0.700 |ddv_scf|^2 =  1.124E-15

      iter #   8 total cpu time :   492.4 secs   av.it.:   9.4
      thresh= 3.352E-09 alpha_mix =  0.700 |ddv_scf|^2 =  2.081E-16

      iter #   9 total cpu time :   498.9 secs   av.it.:   8.0
      thresh= 1.442E-09 alpha_mix =  0.700 |ddv_scf|^2 =  3.940E-17

     End of self-consistent calculation

     Convergence has been achieved 


     Representation #  2 mode #   2

     Self-consistent Calculation

      iter #   1 total cpu time :   512.2 secs   av.it.:   5.5
      thresh= 1.000E-02 alpha_mix =  0.700 |ddv_scf|^2 =  1.006E-06

      iter #   2 total cpu time :   514.9 secs   av.it.:   8.5
      thresh= 1.003E-04 alpha_mix =  0.700 |ddv_scf|^2 =  6.067E-08

      iter #   3 total cpu time :   520.1 secs   av.it.:   9.0
      thresh= 2.463E-05 alpha_mix =  0.700 |ddv_scf|^2 =  6.747E-10

      iter #   4 total cpu time :   520.7 secs   av.it.:   8.1
      thresh= 2.598E-06 alpha_mix =  0.700 |ddv_scf|^2 =  8.892E-13

      iter #   5 total cpu time :   522.2 secs   av.it.:   8.5
      thresh= 9.430E-08 alpha_mix =  0.700 |ddv_scf|^2 =  1.775E-14

      iter #   6 total cpu time :   528.2 secs   av.it.:   7.6
      thresh= 1.332E-08 alpha_mix =  0.700 |ddv_scf|^2 =  1.053E-17

     End of self-consistent calculation

     Convergence has been achieved 


     Representation #  3 mode #   3

     Self-consistent Calculation

      iter #   1 total cpu time :   533.7 secs   av.it.:   5.7
      thresh= 1.000E-02 alpha_mix =  0.700 |ddv_scf|^2 =  1.115E-06

      iter #   2 total cpu time :   535.4 secs   av.it.:   8.5
      thresh= 1.056E-04 alpha_mix =  0.700 |ddv_scf|^2 =  6.650E-08

      iter #   3 total cpu time :   541.9 secs   av.it.:   8.9
      thresh= 2.579E-05 alpha_mix =  0.700 |ddv_scf|^2 =  1.394E-09

      iter #   4 total cpu time :   548.6 secs   av.it.:   8.1
      thresh= 3.734E-06 alpha_mix =  0.700 |ddv_scf|^2 =  1.406E-12

      iter #   5 total cpu time :   550.0 secs   av.it.:   8.4
      thresh= 1.186E-07 alpha_mix =  0.700 |ddv_scf|^2 =  2.140E-14

      iter #   6 total cpu time :   550.9 secs   av.it.:   7.8
      thresh= 1.463E-08 alpha_mix =  0.700 |ddv_scf|^2 =  4.748E-18

     End of self-consistent calculation

     Convergence has been achieved 
 
     Number of q in the star =   12
     List of q in the star:
          1   0.000000000  -0.400000000   0.400000000
          2  -0.400000000   0.000000000   0.400000000
          3   0.400000000   0.000000000   0.400000000
          4   0.000000000   0.400000000   0.400000000
          5   0.400000000   0.400000000   0.000000000
          6  -0.400000000   0.400000000   0.000000000
          7   0.400000000  -0.400000000   0.000000000
          8  -0.400000000  -0.400000000   0.000000000
          9  -0.400000000   0.000000000  -0.400000000
         10   0.000000000   0.400000000  -0.400000000
         11   0.000000000  -0.400000000  -0.400000000
         12   0.400000000   0.000000000  -0.400000000

     Diagonalizing the dynamical matrix

     q = (    0.000000000  -0.400000000   0.400000000 ) 

 **************************************************************************
     freq (    1) =       1.561495 [THz] =      52.085874 [cm-1]
     freq (    2) =       5.384971 [THz] =     179.623310 [cm-1]
     freq (    3) =       8.762193 [THz] =     292.275314 [cm-1]
 **************************************************************************

     Mode symmetry, C_2v (mm2)  point group:

     freq (  1 -  1) =         52.1  [cm-1]   --> B_1  D_3  S_3      
     freq (  2 -  2) =        179.6  [cm-1]   --> B_2  D_4  S_4      
     freq (  3 -  3) =        292.3  [cm-1]   --> A_1  D_1  S_1      

     Calculation of q =    0.0000000   0.5000000  -0.5000000
 
     G-vector sticks info
     --------------------
     sticks:   dense  smooth     PW     G-vecs:    dense   smooth      PW
     Sum        1155     579    213                25123     8853    1961
 


     bravais-lattice index     =            3
     lattice parameter (alat)  =       6.5749  a.u.
     unit-cell volume          =     142.1128 (a.u.)^3
     number of atoms/cell      =            1
     number of atomic types    =            1
     number of electrons       =         3.00
     number of Kohn-Sham states=            6
     kinetic-energy cutoff     =      60.0000  Ry
     charge density cutoff     =     480.0000  Ry
     Exchange-correlation      =  SLA  PW   PBX  PBC ( 1  4  3  4 0 0)

     celldm(1)=   6.574879  celldm(2)=   0.000000  celldm(3)=   0.000000
     celldm(4)=   0.000000  celldm(5)=   0.000000  celldm(6)=   0.000000

     crystal axes: (cart. coord. in units of alat)
               a(1) = (   0.500000   0.500000   0.500000 )  
               a(2) = (  -0.500000   0.500000   0.500000 )  
               a(3) = (  -0.500000  -0.500000   0.500000 )  

     reciprocal axes: (cart. coord. in units 2 pi/alat)
               b(1) = (  1.000000  0.000000  1.000000 )  
               b(2) = ( -1.000000  1.000000  0.000000 )  
               b(3) = (  0.000000 -1.000000  1.000000 )  


     PseudoPot. # 1 for Li read from file:
     ../Li.pbe-s-gbrv14.UPF
     MD5 check sum: 7ca33c4f951f001da2db5c8738379802
     Pseudo is Ultrasoft, Zval =  3.0
     Generated by new atomic code, or converted to UPF format
     Using radial grid of  751 points,  5 beta functions with: 
                l(1) =   0
                l(2) =   0
                l(3) =   0
                l(4) =   1
                l(5) =   1
     Q(r) pseudized with 10 coefficients,  rinner =    1.150   1.150   1.150


     atomic species   valence    mass     pseudopotential
        Li             3.00     6.94100     Li( 1.00)

     48 Sym. Ops., with inversion, found



   Cartesian axes

     site n.     atom                  positions (alat units)
         1           Li  tau(   1) = (   0.0000000   0.0000000   0.0000000  )

     number of k points=  6090  Marzari-Vanderbilt smearing, width (Ry)=  0.0200

     Number of k-points >= 100: set verbosity='high' to print them.

     Dense  grid:    25123 G-vectors     FFT dimensions: (  40,  40,  40)

     Smooth grid:     8853 G-vectors     FFT dimensions: (  30,  30,  30)

     Largest allocated arrays     est. size (Mb)     dimensions
        Kohn-Sham Wavefunctions         0.10 Mb     (    1144,    6)
        NL pseudopotentials             0.16 Mb     (    1144,    9)
        Each V/rho on FFT grid          0.98 Mb     (   64000)
        Each G-vector array             0.19 Mb     (   25123)
        G-vector shells                 0.00 Mb     (     242)
     Largest temporary arrays     est. size (Mb)     dimensions
        Auxiliary wavefunctions         0.42 Mb     (    1144,   24)
        Each subspace H/S matrix        0.01 Mb     (      24,   24)
        Each <psi_i|beta_j> matrix      0.00 Mb     (       9,    6)

     The potential is recalculated from file :
     ./tmp/_ph0/li-bcc.save/charge-density.dat

     Starting wfc are    5 atomic +    1 random wfc

     Band Structure Calculation
     Davidson diagonalization with overlap

     ethr =  3.33E-10,  avg # of iterations = 17.4

     total cpu time spent up to now is       45.6 secs

     End of band structure calculation

     Number of k-points >= 100: set verbosity='high' to print the bands.

     the Fermi energy is     0.8344 ev

                                                                                

     bravais-lattice index     =            3
     lattice parameter (alat)  =       6.5749  a.u.
     unit-cell volume          =     142.1128 (a.u.)^3
     number of atoms/cell      =            1
     number of atomic types    =            1
     kinetic-energy cut-off    =      60.0000  Ry
     charge density cut-off    =     480.0000  Ry
     convergence threshold     =      1.0E-16
     beta                      =       0.7000
     number of iterations used =            4
     Exchange-correlation      =  SLA  PW   PBX  PBC ( 1  4  3  4 0 0)


     celldm(1)=    6.57488  celldm(2)=    0.00000  celldm(3)=    0.00000
     celldm(4)=    0.00000  celldm(5)=    0.00000  celldm(6)=    0.00000

     crystal axes: (cart. coord. in units of alat)
               a(1) = (  0.5000  0.5000  0.5000 )  
               a(2) = ( -0.5000  0.5000  0.5000 )  
               a(3) = ( -0.5000 -0.5000  0.5000 )  

     reciprocal axes: (cart. coord. in units 2 pi/alat)
               b(1) = (  1.0000  0.0000  1.0000 )  
               b(2) = ( -1.0000  1.0000  0.0000 )  
               b(3) = (  0.0000 -1.0000  1.0000 )  


     Atoms inside the unit cell: 

     Cartesian axes

     site n.  atom      mass           positions (alat units)
        1     Li   6.9410   tau(    1) = (    0.00000    0.00000    0.00000  )

     Computing dynamical matrix for 
                    q = (   0.0000000   0.5000000  -0.5000000 )
 
      9 Sym.Ops. (with q -> -q+G )


     G cutoff =  525.6020  (  25123 G-vectors)     FFT grid: ( 40, 40, 40)
     G cutoff =  262.8010  (   8853 G-vectors)  smooth grid: ( 30, 30, 30)

     number of k points=  6090  Marzari-Vanderbilt smearing, width (Ry)=  0.0200

     PseudoPot. # 1 for Li read from file:
     ../Li.pbe-s-gbrv14.UPF
     MD5 check sum: 7ca33c4f951f001da2db5c8738379802
     Pseudo is Ultrasoft, Zval =  3.0
     Generated by new atomic code, or converted to UPF format
     Using radial grid of  751 points,  5 beta functions with: 
                l(1) =   0
                l(2) =   0
                l(3) =   0
                l(4) =   1
                l(5) =   1
     Q(r) pseudized with 10 coefficients,  rinner =    1.150   1.150   1.150


     Mode symmetry, D_2h (mmm)  point group:


     Atomic displacements:
     There are   3 irreducible representations

     Representation     1      1 modes -B_1u  To be done

     Representation     2      1 modes -B_2u  To be done

     Representation     3      1 modes -B_3u  To be done



     Alpha used in Ewald sum =   2.8000
     PHONON       :  7m 5.76s CPU     9m25.90s WALL



     Representation #  1 mode #   1

     Self-consistent Calculation

      iter #   1 total cpu time :   566.2 secs   av.it.:   5.7
      thresh= 1.000E-02 alpha_mix =  0.700 |ddv_scf|^2 =  1.132E-06

      iter #   2 total cpu time :   572.3 secs   av.it.:   8.5
      thresh= 1.064E-04 alpha_mix =  0.700 |ddv_scf|^2 =  6.729E-08

      iter #   3 total cpu time :   575.8 secs   av.it.:   8.8
      thresh= 2.594E-05 alpha_mix =  0.700 |ddv_scf|^2 =  1.532E-09

      iter #   4 total cpu time :   580.9 secs   av.it.:   8.0
      thresh= 3.914E-06 alpha_mix =  0.700 |ddv_scf|^2 =  1.473E-12

      iter #   5 total cpu time :   589.3 secs   av.it.:   8.4
      thresh= 1.214E-07 alpha_mix =  0.700 |ddv_scf|^2 =  2.127E-14

      iter #   6 total cpu time :   596.2 secs   av.it.:   7.8
      thresh= 1.459E-08 alpha_mix =  0.700 |ddv_scf|^2 =  4.171E-18

     End of self-consistent calculation

     Convergence has been achieved 


     Representation #  2 mode #   2

     Self-consistent Calculation

      iter #   1 total cpu time :   615.3 secs   av.it.:   5.5
      thresh= 1.000E-02 alpha_mix =  0.700 |ddv_scf|^2 =  1.011E-06

      iter #   2 total cpu time :   619.1 secs   av.it.:   8.6
      thresh= 1.006E-04 alpha_mix =  0.700 |ddv_scf|^2 =  6.076E-08

      iter #   3 total cpu time :   622.0 secs   av.it.:   9.0
      thresh= 2.465E-05 alpha_mix =  0.700 |ddv_scf|^2 =  7.151E-10

      iter #   4 total cpu time :   625.5 secs   av.it.:   8.0
      thresh= 2.674E-06 alpha_mix =  0.700 |ddv_scf|^2 =  8.717E-13

      iter #   5 total cpu time :   627.5 secs   av.it.:   8.4
      thresh= 9.336E-08 alpha_mix =  0.700 |ddv_scf|^2 =  1.794E-14

      iter #   6 total cpu time :   629.1 secs   av.it.:   7.6
      thresh= 1.339E-08 alpha_mix =  0.700 |ddv_scf|^2 =  1.045E-17

     End of self-consistent calculation

     Convergence has been achieved 


     Representation #  3 mode #   3

     Self-consistent Calculation

      iter #   1 total cpu time :   633.9 secs   av.it.:   6.2
      thresh= 1.000E-02 alpha_mix =  0.700 |ddv_scf|^2 =  1.364E-05

      iter #   2 total cpu time :   634.7 secs   av.it.:   8.4
      thresh= 3.693E-04 alpha_mix =  0.700 |ddv_scf|^2 =  4.940E-06

      iter #   3 total cpu time :   635.1 secs   av.it.:   7.8
      thresh= 2.223E-04 alpha_mix =  0.700 |ddv_scf|^2 =  1.857E-08

      iter #   4 total cpu time :   635.6 secs   av.it.:   8.7
      thresh= 1.363E-05 alpha_mix =  0.700 |ddv_scf|^2 =  1.007E-11

      iter #   5 total cpu time :   636.1 secs   av.it.:   8.4
      thresh= 3.173E-07 alpha_mix =  0.700 |ddv_scf|^2 =  5.804E-13

      iter #   6 total cpu time :   636.8 secs   av.it.:   8.5
      thresh= 7.619E-08 alpha_mix =  0.700 |ddv_scf|^2 =  3.594E-15

      iter #   7 total cpu time :   642.3 secs   av.it.:   8.6
      thresh= 5.995E-09 alpha_mix =  0.700 |ddv_scf|^2 =  4.126E-18

     End of self-consistent calculation

     Convergence has been achieved 
 
     Number of q in the star =    6
     List of q in the star:
          1   0.000000000   0.500000000  -0.500000000
          2  -0.500000000  -0.500000000   0.000000000
          3   0.500000000  -0.500000000   0.000000000
          4   0.500000000   0.000000000   0.500000000
          5   0.500000000   0.000000000  -0.500000000
          6   0.000000000  -0.500000000  -0.500000000

     Diagonalizing the dynamical matrix

     q = (    0.000000000   0.500000000  -0.500000000 ) 

 **************************************************************************
     freq (    1) =       1.664923 [THz] =      55.535850 [cm-1]
     freq (    2) =       5.663706 [THz] =     188.920896 [cm-1]
     freq (    3) =       9.167419 [THz] =     305.792192 [cm-1]
 **************************************************************************

     Mode symmetry, D_2h (mmm)  point group:

     freq (  1 -  1) =         55.5  [cm-1]   --> B_2u               
     freq (  2 -  2) =        188.9  [cm-1]   --> B_1u               
     freq (  3 -  3) =        305.8  [cm-1]   --> B_3u               

     Calculation of q =   -0.1000000  -0.1000000   0.2000000
 
     G-vector sticks info
     --------------------
     sticks:   dense  smooth     PW     G-vecs:    dense   smooth      PW
     Sum        1155     579    197                25123     8853    1721
 


     bravais-lattice index     =            3
     lattice parameter (alat)  =       6.5749  a.u.
     unit-cell volume          =     142.1128 (a.u.)^3
     number of atoms/cell      =            1
     number of atomic types    =            1
     number of electrons       =         3.00
     number of Kohn-Sham states=            6
     kinetic-energy cutoff     =      60.0000  Ry
     charge density cutoff     =     480.0000  Ry
     Exchange-correlation      =  SLA  PW   PBX  PBC ( 1  4  3  4 0 0)

     celldm(1)=   6.574879  celldm(2)=   0.000000  celldm(3)=   0.000000
     celldm(4)=   0.000000  celldm(5)=   0.000000  celldm(6)=   0.000000

     crystal axes: (cart. coord. in units of alat)
               a(1) = (   0.500000   0.500000   0.500000 )  
               a(2) = (  -0.500000   0.500000   0.500000 )  
               a(3) = (  -0.500000  -0.500000   0.500000 )  

     reciprocal axes: (cart. coord. in units 2 pi/alat)
               b(1) = (  1.000000  0.000000  1.000000 )  
               b(2) = ( -1.000000  1.000000  0.000000 )  
               b(3) = (  0.000000 -1.000000  1.000000 )  


     PseudoPot. # 1 for Li read from file:
     ../Li.pbe-s-gbrv14.UPF
     MD5 check sum: 7ca33c4f951f001da2db5c8738379802
     Pseudo is Ultrasoft, Zval =  3.0
     Generated by new atomic code, or converted to UPF format
     Using radial grid of  751 points,  5 beta functions with: 
                l(1) =   0
                l(2) =   0
                l(3) =   0
                l(4) =   1
                l(5) =   1
     Q(r) pseudized with 10 coefficients,  rinner =    1.150   1.150   1.150


     atomic species   valence    mass     pseudopotential
        Li             3.00     6.94100     Li( 1.00)

     48 Sym. Ops., with inversion, found



   Cartesian axes

     site n.     atom                  positions (alat units)
         1           Li  tau(   1) = (   0.0000000   0.0000000   0.0000000  )

     number of k points= 22736  Marzari-Vanderbilt smearing, width (Ry)=  0.0200

     Number of k-points >= 100: set verbosity='high' to print them.

     Dense  grid:    25123 G-vectors     FFT dimensions: (  40,  40,  40)

     Smooth grid:     8853 G-vectors     FFT dimensions: (  30,  30,  30)

     Largest allocated arrays     est. size (Mb)     dimensions
        Kohn-Sham Wavefunctions         0.10 Mb     (    1144,    6)
        NL pseudopotentials             0.16 Mb     (    1144,    9)
        Each V/rho on FFT grid          0.98 Mb     (   64000)
        Each G-vector array             0.19 Mb     (   25123)
        G-vector shells                 0.00 Mb     (     242)
     Largest temporary arrays     est. size (Mb)     dimensions
        Auxiliary wavefunctions         0.42 Mb     (    1144,   24)
        Each subspace H/S matrix        0.01 Mb     (      24,   24)
        Each <psi_i|beta_j> matrix      0.00 Mb     (       9,    6)

     The potential is recalculated from file :
     ./tmp/_ph0/li-bcc.save/charge-density.dat

     Starting wfc are    5 atomic +    1 random wfc

     Band Structure Calculation
     Davidson diagonalization with overlap

     ethr =  3.33E-10,  avg # of iterations = 17.4

     total cpu time spent up to now is       54.8 secs

     End of band structure calculation

     Number of k-points >= 100: set verbosity='high' to print the bands.

     the Fermi energy is     0.8344 ev

                                                                                

     bravais-lattice index     =            3
     lattice parameter (alat)  =       6.5749  a.u.
     unit-cell volume          =     142.1128 (a.u.)^3
     number of atoms/cell      =            1
     number of atomic types    =            1
     kinetic-energy cut-off    =      60.0000  Ry
     charge density cut-off    =     480.0000  Ry
     convergence threshold     =      1.0E-16
     beta                      =       0.7000
     number of iterations used =            4
     Exchange-correlation      =  SLA  PW   PBX  PBC ( 1  4  3  4 0 0)


     celldm(1)=    6.57488  celldm(2)=    0.00000  celldm(3)=    0.00000
     celldm(4)=    0.00000  celldm(5)=    0.00000  celldm(6)=    0.00000

     crystal axes: (cart. coord. in units of alat)
               a(1) = (  0.5000  0.5000  0.5000 )  
               a(2) = ( -0.5000  0.5000  0.5000 )  
               a(3) = ( -0.5000 -0.5000  0.5000 )  

     reciprocal axes: (cart. coord. in units 2 pi/alat)
               b(1) = (  1.0000  0.0000  1.0000 )  
               b(2) = ( -1.0000  1.0000  0.0000 )  
               b(3) = (  0.0000 -1.0000  1.0000 )  


     Atoms inside the unit cell: 

     Cartesian axes

     site n.  atom      mass           positions (alat units)
        1     Li   6.9410   tau(    1) = (    0.00000    0.00000    0.00000  )

     Computing dynamical matrix for 
                    q = (  -0.1000000  -0.1000000   0.2000000 )
 
      2 Sym.Ops. (no q -> -q+G )


     G cutoff =  525.6020  (  25123 G-vectors)     FFT grid: ( 40, 40, 40)
     G cutoff =  262.8010  (   8853 G-vectors)  smooth grid: ( 30, 30, 30)

     number of k points= 22736  Marzari-Vanderbilt smearing, width (Ry)=  0.0200

     PseudoPot. # 1 for Li read from file:
     ../Li.pbe-s-gbrv14.UPF
     MD5 check sum: 7ca33c4f951f001da2db5c8738379802
     Pseudo is Ultrasoft, Zval =  3.0
     Generated by new atomic code, or converted to UPF format
     Using radial grid of  751 points,  5 beta functions with: 
                l(1) =   0
                l(2) =   0
                l(3) =   0
                l(4) =   1
                l(5) =   1
     Q(r) pseudized with 10 coefficients,  rinner =    1.150   1.150   1.150


     Mode symmetry, C_s (m)     point group:


     Atomic displacements:
     There are   3 irreducible representations

     Representation     1      1 modes -A'  To be done

     Representation     2      1 modes -A'  To be done

     Representation     3      1 modes -A''  To be done



     Alpha used in Ewald sum =   2.8000
     PHONON       :  8m21.33s CPU    11m 9.04s WALL



     Representation #  1 mode #   1

     Self-consistent Calculation

      iter #   1 total cpu time :   669.7 secs   av.it.:   6.0
      thresh= 1.000E-02 alpha_mix =  0.700 |ddv_scf|^2 =  8.173E-04

      iter #   2 total cpu time :   672.3 secs   av.it.:   7.4
      thresh= 2.859E-03 alpha_mix =  0.700 |ddv_scf|^2 =  1.513E-01

      iter #   3 total cpu time :   675.2 secs   av.it.:   5.9
      thresh= 1.000E-02 alpha_mix =  0.700 |ddv_scf|^2 =  1.264E-07

      iter #   4 total cpu time :   678.8 secs   av.it.:   8.9
      thresh= 3.556E-05 alpha_mix =  0.700 |ddv_scf|^2 =  4.224E-09

      iter #   5 total cpu time :   685.8 secs   av.it.:   9.0
      thresh= 6.500E-06 alpha_mix =  0.700 |ddv_scf|^2 =  9.078E-11

      iter #   6 total cpu time :   697.2 secs   av.it.:   8.5
      thresh= 9.528E-07 alpha_mix =  0.700 |ddv_scf|^2 =  6.214E-10

      iter #   7 total cpu time :   708.6 secs   av.it.:   5.1
      thresh= 2.493E-06 alpha_mix =  0.700 |ddv_scf|^2 =  1.777E-11

      iter #   8 total cpu time :   714.1 secs   av.it.:   6.5
      thresh= 4.215E-07 alpha_mix =  0.700 |ddv_scf|^2 =  5.501E-13

      iter #   9 total cpu time :   720.0 secs   av.it.:   6.1
      thresh= 7.417E-08 alpha_mix =  0.700 |ddv_scf|^2 =  1.570E-15

      iter #  10 total cpu time :   728.7 secs   av.it.:   8.2
      thresh= 3.962E-09 alpha_mix =  0.700 |ddv_scf|^2 =  4.334E-18

     End of self-consistent calculation

     Convergence has been achieved 


     Representation #  2 mode #   2

     Self-consistent Calculation

      iter #   1 total cpu time :   731.8 secs   av.it.:   6.3
      thresh= 1.000E-02 alpha_mix =  0.700 |ddv_scf|^2 =  7.398E-03

      iter #   2 total cpu time :   736.8 secs   av.it.:   7.2
      thresh= 8.601E-03 alpha_mix =  0.700 |ddv_scf|^2 =  1.371E+00

      iter #   3 total cpu time :   743.6 secs   av.it.:   7.0
      thresh= 1.000E-02 alpha_mix =  0.700 |ddv_scf|^2 =  8.604E-07

      iter #   4 total cpu time :   750.6 secs   av.it.:   8.1
      thresh= 9.276E-05 alpha_mix =  0.700 |ddv_scf|^2 =  1.832E-08

      iter #   5 total cpu time :   752.5 secs   av.it.:   8.6
      thresh= 1.353E-05 alpha_mix =  0.700 |ddv_scf|^2 =  2.395E-10

      iter #   6 total cpu time :   754.0 secs   av.it.:   8.2
      thresh= 1.548E-06 alpha_mix =  0.700 |ddv_scf|^2 =  1.674E-09

      iter #   7 total cpu time :   759.4 secs   av.it.:   5.1
      thresh= 4.091E-06 alpha_mix =  0.700 |ddv_scf|^2 =  3.946E-12

      iter #   8 total cpu time :   762.1 secs   av.it.:   8.0
      thresh= 1.986E-07 alpha_mix =  0.700 |ddv_scf|^2 =  5.396E-14

      iter #   9 total cpu time :   764.2 secs   av.it.:   8.5
      thresh= 2.323E-08 alpha_mix =  0.700 |ddv_scf|^2 =  4.562E-14

      iter #  10 total cpu time :   765.5 secs   av.it.:   6.6
      thresh= 2.136E-08 alpha_mix =  0.700 |ddv_scf|^2 =  1.880E-17

     End of self-consistent calculation

     Convergence has been achieved 


     Representation #  3 mode #   3

     Self-consistent Calculation

      iter #   1 total cpu time :   768.7 secs   av.it.:   5.4
      thresh= 1.000E-02 alpha_mix =  0.700 |ddv_scf|^2 =  1.012E-06

      iter #   2 total cpu time :   770.4 secs   av.it.:   8.5
      thresh= 1.006E-04 alpha_mix =  0.700 |ddv_scf|^2 =  6.139E-08

      iter #   3 total cpu time :   773.0 secs   av.it.:   8.9
      thresh= 2.478E-05 alpha_mix =  0.700 |ddv_scf|^2 =  7.081E-10

      iter #   4 total cpu time :   775.1 secs   av.it.:   8.2
      thresh= 2.661E-06 alpha_mix =  0.700 |ddv_scf|^2 =  1.204E-12

      iter #   5 total cpu time :   778.3 secs   av.it.:   8.2
      thresh= 1.097E-07 alpha_mix =  0.700 |ddv_scf|^2 =  1.573E-14

      iter #   6 total cpu time :   781.5 secs   av.it.:   7.8
      thresh= 1.254E-08 alpha_mix =  0.700 |ddv_scf|^2 =  1.735E-17

     End of self-consistent calculation

     Convergence has been achieved 
 
     Number of q in the star =   24
     List of q in the star:
          1  -0.100000000  -0.100000000   0.200000000
          2  -0.100000000  -0.200000000   0.100000000
          3   0.100000000  -0.200000000   0.100000000
          4   0.100000000   0.200000000  -0.100000000
          5   0.100000000   0.100000000  -0.200000000
          6  -0.100000000   0.200000000  -0.100000000
          7  -0.100000000   0.100000000  -0.200000000
          8   0.200000000   0.100000000  -0.100000000
          9  -0.200000000   0.100000000   0.100000000
         10   0.200000000  -0.100000000   0.100000000
         11  -0.200000000  -0.100000000  -0.100000000
         12  -0.100000000  -0.100000000  -0.200000000
         13  -0.100000000   0.100000000   0.200000000
         14  -0.100000000   0.200000000   0.100000000
         15  -0.100000000  -0.200000000  -0.100000000
         16   0.100000000   0.100000000   0.200000000
         17   0.100000000  -0.200000000  -0.100000000
         18   0.200000000  -0.100000000  -0.100000000
         19   0.200000000   0.100000000   0.100000000
         20  -0.200000000   0.100000000  -0.100000000
         21  -0.200000000  -0.100000000   0.100000000
         22   0.100000000  -0.100000000  -0.200000000
         23   0.100000000  -0.100000000   0.200000000
         24   0.100000000   0.200000000   0.100000000

     Diagonalizing the dynamical matrix

     q = (   -0.100000000  -0.100000000   0.200000000 ) 

 **************************************************************************
     freq (    1) =       1.621691 [THz] =      54.093803 [cm-1]
     freq (    2) =       2.764415 [THz] =      92.210963 [cm-1]
     freq (    3) =       4.550034 [THz] =     151.772782 [cm-1]
 **************************************************************************

     Mode symmetry, C_s (m)     point group:

     freq (  1 -  1) =         54.1  [cm-1]   --> A'                 
     freq (  2 -  2) =         92.2  [cm-1]   --> A''                
     freq (  3 -  3) =        151.8  [cm-1]   --> A'                 

     Calculation of q =   -0.1000000  -0.2000000   0.3000000
 
     G-vector sticks info
     --------------------
     sticks:   dense  smooth     PW     G-vecs:    dense   smooth      PW
     Sum        1155     579    201                25123     8853    1745
 


     bravais-lattice index     =            3
     lattice parameter (alat)  =       6.5749  a.u.
     unit-cell volume          =     142.1128 (a.u.)^3
     number of atoms/cell      =            1
     number of atomic types    =            1
     number of electrons       =         3.00
     number of Kohn-Sham states=            6
     kinetic-energy cutoff     =      60.0000  Ry
     charge density cutoff     =     480.0000  Ry
     Exchange-correlation      =  SLA  PW   PBX  PBC ( 1  4  3  4 0 0)

     celldm(1)=   6.574879  celldm(2)=   0.000000  celldm(3)=   0.000000
     celldm(4)=   0.000000  celldm(5)=   0.000000  celldm(6)=   0.000000

     crystal axes: (cart. coord. in units of alat)
               a(1) = (   0.500000   0.500000   0.500000 )  
               a(2) = (  -0.500000   0.500000   0.500000 )  
               a(3) = (  -0.500000  -0.500000   0.500000 )  

     reciprocal axes: (cart. coord. in units 2 pi/alat)
               b(1) = (  1.000000  0.000000  1.000000 )  
               b(2) = ( -1.000000  1.000000  0.000000 )  
               b(3) = (  0.000000 -1.000000  1.000000 )  


     PseudoPot. # 1 for Li read from file:
     ../Li.pbe-s-gbrv14.UPF
     MD5 check sum: 7ca33c4f951f001da2db5c8738379802
     Pseudo is Ultrasoft, Zval =  3.0
     Generated by new atomic code, or converted to UPF format
     Using radial grid of  751 points,  5 beta functions with: 
                l(1) =   0
                l(2) =   0
                l(3) =   0
                l(4) =   1
                l(5) =   1
     Q(r) pseudized with 10 coefficients,  rinner =    1.150   1.150   1.150


     atomic species   valence    mass     pseudopotential
        Li             3.00     6.94100     Li( 1.00)

     48 Sym. Ops., with inversion, found



   Cartesian axes

     site n.     atom                  positions (alat units)
         1           Li  tau(   1) = (   0.0000000   0.0000000   0.0000000  )

     number of k points= 43904  Marzari-Vanderbilt smearing, width (Ry)=  0.0200

     Number of k-points >= 100: set verbosity='high' to print them.

     Dense  grid:    25123 G-vectors     FFT dimensions: (  40,  40,  40)

     Smooth grid:     8853 G-vectors     FFT dimensions: (  30,  30,  30)

     Largest allocated arrays     est. size (Mb)     dimensions
        Kohn-Sham Wavefunctions         0.10 Mb     (    1144,    6)
        NL pseudopotentials             0.16 Mb     (    1144,    9)
        Each V/rho on FFT grid          0.98 Mb     (   64000)
        Each G-vector array             0.19 Mb     (   25123)
        G-vector shells                 0.00 Mb     (     242)
     Largest temporary arrays     est. size (Mb)     dimensions
        Auxiliary wavefunctions         0.42 Mb     (    1144,   24)
        Each subspace H/S matrix        0.01 Mb     (      24,   24)
        Each <psi_i|beta_j> matrix      0.00 Mb     (       9,    6)

     The potential is recalculated from file :
     ./tmp/_ph0/li-bcc.save/charge-density.dat

     Starting wfc are    5 atomic +    1 random wfc

     Band Structure Calculation
     Davidson diagonalization with overlap

     ethr =  3.33E-10,  avg # of iterations = 17.4

[...]

     Computing dynamical matrix for 
                    q = (   0.0000000   0.9000000  -0.1000000 )
 
      4 Sym.Ops. (no q -> -q+G )


     G cutoff =  525.6020  (  25123 G-vectors)     FFT grid: ( 40, 40, 40)
     G cutoff =  262.8010  (   8853 G-vectors)  smooth grid: ( 30, 30, 30)

     number of k points= 11760  Marzari-Vanderbilt smearing, width (Ry)=  0.0200

     PseudoPot. # 1 for Li read from file:
     ../Li.pbe-s-gbrv14.UPF
     MD5 check sum: 7ca33c4f951f001da2db5c8738379802
     Pseudo is Ultrasoft, Zval =  3.0
     Generated by new atomic code, or converted to UPF format
     Using radial grid of  751 points,  5 beta functions with: 
                l(1) =   0
                l(2) =   0
                l(3) =   0
                l(4) =   1
                l(5) =   1
     Q(r) pseudized with 10 coefficients,  rinner =    1.150   1.150   1.150


     Mode symmetry, C_2v (mm2)  point group:


     Atomic displacements:
     There are   3 irreducible representations

     Representation     1      1 modes -A_1  D_1  S_1  To be done

     Representation     2      1 modes -B_1  D_3  S_3  To be done

     Representation     3      1 modes -B_2  D_4  S_4  To be done



     Alpha used in Ewald sum =   2.8000
     PHONON       :     1h 4m CPU        1h22m WALL



     Representation #  1 mode #   1

     Self-consistent Calculation

      iter #   1 total cpu time :  4965.0 secs   av.it.:   6.2
      thresh= 1.000E-02 alpha_mix =  0.700 |ddv_scf|^2 =  2.048E-06

      iter #   2 total cpu time :  4973.2 secs   av.it.:   8.8
      thresh= 1.431E-04 alpha_mix =  0.700 |ddv_scf|^2 =  9.076E-08

      iter #   3 total cpu time :  4976.3 secs   av.it.:   8.7
      thresh= 3.013E-05 alpha_mix =  0.700 |ddv_scf|^2 =  6.319E-09

      iter #   4 total cpu time :  4977.6 secs   av.it.:   8.7
      thresh= 7.949E-06 alpha_mix =  0.700 |ddv_scf|^2 =  6.479E-11

      iter #   5 total cpu time :  4978.1 secs   av.it.:   8.9
      thresh= 8.049E-07 alpha_mix =  0.700 |ddv_scf|^2 =  1.812E-13

      iter #   6 total cpu time :  4978.6 secs   av.it.:   9.6
      thresh= 4.256E-08 alpha_mix =  0.700 |ddv_scf|^2 =  2.408E-15

      iter #   7 total cpu time :  4979.1 secs   av.it.:   9.4
      thresh= 4.907E-09 alpha_mix =  0.700 |ddv_scf|^2 =  1.092E-16

      iter #   8 total cpu time :  4979.6 secs   av.it.:   8.9
      thresh= 1.045E-09 alpha_mix =  0.700 |ddv_scf|^2 =  2.891E-19

     End of self-consistent calculation

     Convergence has been achieved 


     Representation #  2 mode #   2

     Self-consistent Calculation

      iter #   1 total cpu time :  4980.9 secs   av.it.:   6.1
      thresh= 1.000E-02 alpha_mix =  0.700 |ddv_scf|^2 =  2.444E-06

      iter #   2 total cpu time :  4981.9 secs   av.it.:   8.7
      thresh= 1.563E-04 alpha_mix =  0.700 |ddv_scf|^2 =  1.020E-07

      iter #   3 total cpu time :  4998.2 secs   av.it.:   8.4
      thresh= 3.194E-05 alpha_mix =  0.700 |ddv_scf|^2 =  7.122E-09

      iter #   4 total cpu time :  5002.1 secs   av.it.:   8.5
      thresh= 8.439E-06 alpha_mix =  0.700 |ddv_scf|^2 =  6.902E-11

      iter #   5 total cpu time :  5006.9 secs   av.it.:   8.6
      thresh= 8.308E-07 alpha_mix =  0.700 |ddv_scf|^2 =  6.607E-14

      iter #   6 total cpu time :  5007.6 secs   av.it.:   8.4
      thresh= 2.570E-08 alpha_mix =  0.700 |ddv_scf|^2 =  6.678E-16

      iter #   7 total cpu time :  5008.1 secs   av.it.:   8.3
      thresh= 2.584E-09 alpha_mix =  0.700 |ddv_scf|^2 =  8.782E-18

     End of self-consistent calculation

     Convergence has been achieved 


     Representation #  3 mode #   3

     Self-consistent Calculation

      iter #   1 total cpu time :  5008.9 secs   av.it.:   6.0
      thresh= 1.000E-02 alpha_mix =  0.700 |ddv_scf|^2 =  1.817E-06

      iter #   2 total cpu time :  5009.4 secs   av.it.:   8.6
      thresh= 1.348E-04 alpha_mix =  0.700 |ddv_scf|^2 =  7.172E-08

      iter #   3 total cpu time :  5009.9 secs   av.it.:   8.5
      thresh= 2.678E-05 alpha_mix =  0.700 |ddv_scf|^2 =  5.056E-09

      iter #   4 total cpu time :  5010.4 secs   av.it.:   8.2
      thresh= 7.111E-06 alpha_mix =  0.700 |ddv_scf|^2 =  1.494E-12

      iter #   5 total cpu time :  5011.6 secs   av.it.:   8.4
      thresh= 1.222E-07 alpha_mix =  0.700 |ddv_scf|^2 =  1.305E-14

      iter #   6 total cpu time :  5012.1 secs   av.it.:   8.2
      thresh= 1.142E-08 alpha_mix =  0.700 |ddv_scf|^2 =  2.683E-16

      iter #   7 total cpu time :  5012.5 secs   av.it.:   8.4
      thresh= 1.638E-09 alpha_mix =  0.700 |ddv_scf|^2 =  2.422E-19

     End of self-consistent calculation

     Convergence has been achieved 
 
     Number of q in the star =   12
     List of q in the star:
          1   0.000000000   0.900000000  -0.100000000
          2   0.900000000   0.000000000  -0.100000000
          3  -0.900000000   0.000000000  -0.100000000
          4   0.000000000  -0.900000000  -0.100000000
          5  -0.100000000  -0.900000000   0.000000000
          6   0.100000000  -0.900000000   0.000000000
          7  -0.100000000   0.900000000   0.000000000
          8   0.100000000   0.900000000   0.000000000
          9   0.900000000   0.000000000   0.100000000
         10   0.000000000   0.100000000  -0.900000000
         11   0.000000000  -0.100000000  -0.900000000
         12   0.100000000   0.000000000  -0.900000000

     Diagonalizing the dynamical matrix

     q = (    0.000000000   0.900000000  -0.100000000 ) 

 **************************************************************************
     freq (    1) =       8.910034 [THz] =     297.206732 [cm-1]
     freq (    2) =       9.319099 [THz] =     310.851685 [cm-1]
     freq (    3) =       9.362376 [THz] =     312.295255 [cm-1]
 **************************************************************************

     Mode symmetry, C_2v (mm2)  point group:

     freq (  1 -  1) =        297.2  [cm-1]   --> A_1  D_1  S_1      
     freq (  2 -  2) =        310.9  [cm-1]   --> B_1  D_3  S_3      
     freq (  3 -  3) =        312.3  [cm-1]   --> B_2  D_4  S_4      

     Calculation of q =    0.0000000   0.0000000  -1.0000000
 
     G-vector sticks info
     --------------------
     sticks:   dense  smooth     PW     G-vecs:    dense   smooth      PW
     Sum        1155     579    213                25123     8853    1961
 


     bravais-lattice index     =            3
     lattice parameter (alat)  =       6.5749  a.u.
     unit-cell volume          =     142.1128 (a.u.)^3
     number of atoms/cell      =            1
     number of atomic types    =            1
     number of electrons       =         3.00
     number of Kohn-Sham states=            6
     kinetic-energy cutoff     =      60.0000  Ry
     charge density cutoff     =     480.0000  Ry
     Exchange-correlation      =  SLA  PW   PBX  PBC ( 1  4  3  4 0 0)

     celldm(1)=   6.574879  celldm(2)=   0.000000  celldm(3)=   0.000000
     celldm(4)=   0.000000  celldm(5)=   0.000000  celldm(6)=   0.000000

     crystal axes: (cart. coord. in units of alat)
               a(1) = (   0.500000   0.500000   0.500000 )  
               a(2) = (  -0.500000   0.500000   0.500000 )  
               a(3) = (  -0.500000  -0.500000   0.500000 )  

     reciprocal axes: (cart. coord. in units 2 pi/alat)
               b(1) = (  1.000000  0.000000  1.000000 )  
               b(2) = ( -1.000000  1.000000  0.000000 )  
               b(3) = (  0.000000 -1.000000  1.000000 )  


     PseudoPot. # 1 for Li read from file:
     ../Li.pbe-s-gbrv14.UPF
     MD5 check sum: 7ca33c4f951f001da2db5c8738379802
     Pseudo is Ultrasoft, Zval =  3.0
     Generated by new atomic code, or converted to UPF format
     Using radial grid of  751 points,  5 beta functions with: 
                l(1) =   0
                l(2) =   0
                l(3) =   0
                l(4) =   1
                l(5) =   1
     Q(r) pseudized with 10 coefficients,  rinner =    1.150   1.150   1.150


     atomic species   valence    mass     pseudopotential
        Li             3.00     6.94100     Li( 1.00)

     48 Sym. Ops., with inversion, found



   Cartesian axes

     site n.     atom                  positions (alat units)
         1           Li  tau(   1) = (   0.0000000   0.0000000   0.0000000  )

     number of k points=  1232  Marzari-Vanderbilt smearing, width (Ry)=  0.0200

     Number of k-points >= 100: set verbosity='high' to print them.

     Dense  grid:    25123 G-vectors     FFT dimensions: (  40,  40,  40)

     Smooth grid:     8853 G-vectors     FFT dimensions: (  30,  30,  30)

     Largest allocated arrays     est. size (Mb)     dimensions
        Kohn-Sham Wavefunctions         0.10 Mb     (    1144,    6)
        NL pseudopotentials             0.16 Mb     (    1144,    9)
        Each V/rho on FFT grid          0.98 Mb     (   64000)
        Each G-vector array             0.19 Mb     (   25123)
        G-vector shells                 0.00 Mb     (     242)
     Largest temporary arrays     est. size (Mb)     dimensions
        Auxiliary wavefunctions         0.42 Mb     (    1144,   24)
        Each subspace H/S matrix        0.01 Mb     (      24,   24)
        Each <psi_i|beta_j> matrix      0.00 Mb     (       9,    6)

     The potential is recalculated from file :
     ./tmp/_ph0/li-bcc.save/charge-density.dat

     Starting wfc are    5 atomic +    1 random wfc

     Band Structure Calculation
     Davidson diagonalization with overlap

     ethr =  3.33E-10,  avg # of iterations = 17.4

     total cpu time spent up to now is      502.1 secs

     End of band structure calculation

     Number of k-points >= 100: set verbosity='high' to print the bands.

     the Fermi energy is     0.8344 ev

                                                                                

     bravais-lattice index     =            3
     lattice parameter (alat)  =       6.5749  a.u.
     unit-cell volume          =     142.1128 (a.u.)^3
     number of atoms/cell      =            1
     number of atomic types    =            1
     kinetic-energy cut-off    =      60.0000  Ry
     charge density cut-off    =     480.0000  Ry
     convergence threshold     =      1.0E-16
     beta                      =       0.7000
     number of iterations used =            4
     Exchange-correlation      =  SLA  PW   PBX  PBC ( 1  4  3  4 0 0)


     celldm(1)=    6.57488  celldm(2)=    0.00000  celldm(3)=    0.00000
     celldm(4)=    0.00000  celldm(5)=    0.00000  celldm(6)=    0.00000

     crystal axes: (cart. coord. in units of alat)
               a(1) = (  0.5000  0.5000  0.5000 )  
               a(2) = ( -0.5000  0.5000  0.5000 )  
               a(3) = ( -0.5000 -0.5000  0.5000 )  

     reciprocal axes: (cart. coord. in units 2 pi/alat)
               b(1) = (  1.0000  0.0000  1.0000 )  
               b(2) = ( -1.0000  1.0000  0.0000 )  
               b(3) = (  0.0000 -1.0000  1.0000 )  


     Atoms inside the unit cell: 

     Cartesian axes

     site n.  atom      mass           positions (alat units)
        1     Li   6.9410   tau(    1) = (    0.00000    0.00000    0.00000  )

     Computing dynamical matrix for 
                    q = (   0.0000000   0.0000000  -1.0000000 )
 
     49 Sym.Ops. (with q -> -q+G )


     G cutoff =  525.6020  (  25123 G-vectors)     FFT grid: ( 40, 40, 40)
     G cutoff =  262.8010  (   8853 G-vectors)  smooth grid: ( 30, 30, 30)

     number of k points=  1232  Marzari-Vanderbilt smearing, width (Ry)=  0.0200

     PseudoPot. # 1 for Li read from file:
     ../Li.pbe-s-gbrv14.UPF
     MD5 check sum: 7ca33c4f951f001da2db5c8738379802
     Pseudo is Ultrasoft, Zval =  3.0
     Generated by new atomic code, or converted to UPF format
     Using radial grid of  751 points,  5 beta functions with: 
                l(1) =   0
                l(2) =   0
                l(3) =   0
                l(4) =   1
                l(5) =   1
     Q(r) pseudized with 10 coefficients,  rinner =    1.150   1.150   1.150


     Mode symmetry, O_h (m-3m)  point group:


     Atomic displacements:
     There are   1 irreducible representations

     Representation     1      3 modes -T_1u G_15  G_4-  To be done



     Alpha used in Ewald sum =   2.8000
     PHONON       :     1h 5m CPU        1h23m WALL



     Representation #  1 modes #   1  2  3

     Self-consistent Calculation

      iter #   1 total cpu time :  5020.5 secs   av.it.:   6.1
      thresh= 1.000E-02 alpha_mix =  0.700 |ddv_scf|^2 =  2.122E-07

      iter #   2 total cpu time :  5026.4 secs   av.it.:   9.6
      thresh= 4.606E-05 alpha_mix =  0.700 |ddv_scf|^2 =  8.111E-09

      iter #   3 total cpu time :  5040.5 secs   av.it.:   9.5
      thresh= 9.006E-06 alpha_mix =  0.700 |ddv_scf|^2 =  6.037E-10

      iter #   4 total cpu time :  5049.1 secs   av.it.:   8.9
      thresh= 2.457E-06 alpha_mix =  0.700 |ddv_scf|^2 =  1.518E-13

      iter #   5 total cpu time :  5054.9 secs   av.it.:   9.2
      thresh= 3.896E-08 alpha_mix =  0.700 |ddv_scf|^2 =  1.227E-15

      iter #   6 total cpu time :  5064.6 secs   av.it.:   9.1
      thresh= 3.502E-09 alpha_mix =  0.700 |ddv_scf|^2 =  2.581E-17

     End of self-consistent calculation

     Convergence has been achieved 
 
     Number of q in the star =    1
     List of q in the star:
          1   0.000000000   0.000000000  -1.000000000

     Diagonalizing the dynamical matrix

     q = (    0.000000000   0.000000000  -1.000000000 ) 

 **************************************************************************
     freq (    1) =       9.595410 [THz] =     320.068432 [cm-1]
     freq (    2) =       9.595410 [THz] =     320.068432 [cm-1]
     freq (    3) =       9.595410 [THz] =     320.068432 [cm-1]
 **************************************************************************

     Mode symmetry, O_h (m-3m)  point group:

     freq (  1 -  3) =        320.1  [cm-1]   --> T_1u G_15  G_4-    
 
     init_run     :    102.64s CPU    117.41s WALL (      46 calls)
     electrons    :    270.09s CPU    272.68s WALL (      46 calls)

     Called by init_run:
     wfcinit      :      0.04s CPU      0.26s WALL (      46 calls)
     potinit      :     93.72s CPU     94.17s WALL (      46 calls)

     Called by electrons:
     c_bands      :    269.76s CPU    272.39s WALL (      46 calls)
     v_of_rho     :      1.94s CPU      1.97s WALL (      47 calls)
     newd         :      0.71s CPU      0.97s WALL (      47 calls)

     Called by c_bands:
     init_us_2    :      5.42s CPU      5.60s WALL (   28422 calls)
     cegterg      :    138.04s CPU    138.76s WALL (    2417 calls)

     Called by sum_band:

     Called by *egterg:
     h_psi        :    131.43s CPU    132.11s WALL (   39847 calls)
     s_psi        :     14.90s CPU     15.17s WALL (  454385 calls)
     g_psi        :      0.98s CPU      0.89s WALL (   35738 calls)
     cdiaghg      :      5.07s CPU      4.93s WALL (   37430 calls)

     Called by h_psi:
     add_vuspsi   :     10.10s CPU     10.29s WALL (  236483 calls)

     General routines
     calbec       :     10.50s CPU     10.52s WALL (  500237 calls)
     fft          :     31.22s CPU     31.16s WALL (   17845 calls)
     ffts         :      3.63s CPU      3.67s WALL (    5535 calls)
     fftw         :    508.36s CPU    512.68s WALL ( 1195644 calls)
     interpolate  :      0.24s CPU      0.26s WALL (      93 calls)
     davcio       :      0.23s CPU      0.57s WALL (    5080 calls)
 
     Parallel routines
     fft_scatter  :     29.89s CPU     29.88s WALL ( 1219024 calls)
 
     PHONON       :     1h 6m CPU        1h24m WALL

     INITIALIZATION: 
     phq_setup    :      4.84s CPU     37.95s WALL (      47 calls)
     phq_init     :    188.04s CPU    237.06s WALL (      47 calls)
 
     phq_init     :    188.04s CPU    237.06s WALL (      47 calls)
     init_vloc    :      0.05s CPU      0.06s WALL (      47 calls)
     init_us_1    :      6.04s CPU      6.08s WALL (      47 calls)
     newd         :      0.71s CPU      0.97s WALL (      47 calls)
     dvanqq       :      5.26s CPU      5.29s WALL (      47 calls)
     drho         :    175.19s CPU    175.73s WALL (      47 calls)
 
     DYNAMICAL MATRIX:
     dynmat0      :      1.02s CPU     34.68s WALL (      47 calls)
     phqscf       :   3213.85s CPU   4101.79s WALL (      47 calls)
     dynmatrix    :     56.37s CPU     72.89s WALL (      47 calls)
 
     phqscf       :   3213.85s CPU   4101.79s WALL (      47 calls)
     solve_linter :   3211.84s CPU   4012.30s WALL (     129 calls)
     drhodv       :      1.62s CPU      1.79s WALL (     129 calls)
 
     dynmat0      :      1.02s CPU     34.68s WALL (      47 calls)
     dynmat_us    :      0.77s CPU      0.81s WALL (      47 calls)
     d2ionq       :      0.16s CPU      0.17s WALL (      47 calls)
 
     dynmat_us    :      0.77s CPU      0.81s WALL (      47 calls)
     addusdynmat  :      0.00s CPU      0.00s WALL (      47 calls)
 
     phqscf       :   3213.85s CPU   4101.79s WALL (      47 calls)
     solve_linter :   3211.84s CPU   4012.30s WALL (     129 calls)
 
     solve_linter :   3211.84s CPU   4012.30s WALL (     129 calls)
     dvqpsi_us    :     16.81s CPU     17.09s WALL (    2544 calls)
     ortho        :      3.40s CPU      3.66s WALL (   21266 calls)
     cgsolve      :    388.59s CPU    391.83s WALL (   21266 calls)
     incdrhoscf   :     43.71s CPU     44.16s WALL (   21266 calls)
     addusddens   :     27.81s CPU     27.96s WALL (    1166 calls)
     vpsifft      :     36.17s CPU     36.67s WALL (   18722 calls)
     dv_of_drho   :     43.59s CPU     44.03s WALL (    1112 calls)
     mix_pot      :      5.48s CPU      5.52s WALL (    1037 calls)
     ef_shift     :      0.08s CPU      0.08s WALL (       7 calls)
     localdos     :      0.03s CPU      0.03s WALL (       1 calls)
     psymdvscf    :     15.23s CPU     15.22s WALL (     819 calls)
     newdq        :     25.78s CPU     25.86s WALL (    1037 calls)
     adddvscf     :      1.23s CPU      1.21s WALL (   18722 calls)
     drhodvus     :      0.26s CPU      0.28s WALL (     129 calls)
 
     dvqpsi_us    :     16.81s CPU     17.09s WALL (    2544 calls)
     dvqpsi_us_on :      0.87s CPU      0.87s WALL (    2544 calls)
 
     cgsolve      :    388.59s CPU    391.83s WALL (   21266 calls)
     ch_psi       :    383.95s CPU    387.04s WALL (  196636 calls)
 
     ch_psi       :    383.95s CPU    387.04s WALL (  196636 calls)
     h_psiq       :    368.05s CPU    371.08s WALL (  196636 calls)
     last         :     14.76s CPU     14.73s WALL (  196636 calls)
 
     h_psiq       :    368.05s CPU    371.08s WALL (  196636 calls)
     firstfft     :    180.16s CPU    181.25s WALL (  363967 calls)
     secondfft    :    154.61s CPU    156.60s WALL (  363967 calls)
     add_vuspsi   :     10.10s CPU     10.29s WALL (  236483 calls)
 
     incdrhoscf   :     43.71s CPU     44.16s WALL (   21266 calls)
     addusdbec    :      1.24s CPU      1.23s WALL (   23810 calls)
 
     drhodvus     :      0.26s CPU      0.28s WALL (     129 calls)
 
      General routines
     calbec       :     10.50s CPU     10.52s WALL (  500237 calls)
     fft          :     31.22s CPU     31.16s WALL (   17845 calls)
     ffts         :      3.63s CPU      3.67s WALL (    5535 calls)
     fftw         :    508.36s CPU    512.68s WALL ( 1195644 calls)
     cinterpolate :      6.20s CPU      6.35s WALL (    2366 calls)
     davcio       :      0.23s CPU      0.57s WALL (    5080 calls)
     write_rec    :      2.79s CPU    874.25s WALL (    1166 calls)
 
 
     PHONON       :     1h 6m CPU        1h24m WALL

 
   This run was terminated on:  22:11: 9  23Jun2016            

=------------------------------------------------------------------------------=
   JOB DONE.
=------------------------------------------------------------------------------=
Application 22276186 resources: utime ~2628213s, stime ~11531s, Rss ~106348, inblocks ~473812827, outblocks ~2043636084
