
     Program PHONON v.6.1 (svn rev. 13369) starts on 21Dec2017 at 11:49: 3 

     This program is part of the open-source Quantum ESPRESSO suite
     for quantum simulation of materials; please cite
         "P. Giannozzi et al., J. Phys.:Condens. Matter 21 395502 (2009);
          URL http://www.quantum-espresso.org", 
     in publications or presentations arising from this work. More details at
     http://www.quantum-espresso.org/quote

     Parallel version (MPI), running on     4 processors
     R & G space division:  proc/nbgrp/npool/nimage =       4

     Reading data from directory:
     ./na.bcc.save

   Info: using nr1, nr2, nr3 values from input

   Info: using nr1, nr2, nr3 values from input

     IMPORTANT: XC functional enforced from input :
     Exchange-correlation      = SLA  PW   PBE  PBE ( 1  4  3  4 0 0)
     Any further DFT definition will be discarded
     Please, verify this is what you really want


     Parallelization info
     --------------------
     sticks:   dense  smooth     PW     G-vecs:    dense   smooth      PW
     Min         209     102     32                 3824     1354     239
     Max         211     103     33                 3825     1357     242
     Sum         841     411    129                15299     5425     959



     Dynamical matrices for ( 8, 8, 8)  uniform grid of q-points
     (  29q-points):
       N         xq(1)         xq(2)         xq(3) 
       1   0.000000000   0.000000000   0.000000000
       2   0.000000000  -0.125000000   0.125000000
       3   0.000000000  -0.250000000   0.250000000
       4   0.000000000  -0.375000000   0.375000000
       5   0.000000000   0.500000000  -0.500000000
       6  -0.125000000  -0.125000000   0.250000000
       7  -0.125000000  -0.250000000   0.375000000
       8  -0.125000000   0.625000000  -0.500000000
       9  -0.250000000   0.750000000  -0.500000000
      10  -0.250000000   0.625000000  -0.375000000
      11   0.000000000   0.000000000   0.250000000
      12   0.000000000  -0.125000000   0.375000000
      13   0.000000000  -0.250000000   0.500000000
      14   0.000000000   0.625000000  -0.375000000
      15  -0.125000000  -0.125000000   0.500000000
      16  -0.125000000   0.750000000  -0.375000000
      17  -0.250000000   0.250000000   0.250000000
      18  -0.250000000   0.750000000  -0.250000000
      19   0.625000000  -0.625000000   0.250000000
      20   0.500000000  -0.500000000   0.250000000
      21   0.500000000  -0.625000000   0.375000000
      22   0.000000000   0.000000000   0.500000000
      23   0.000000000  -0.125000000   0.625000000
      24   0.000000000   0.750000000  -0.250000000
      25  -0.125000000   0.875000000  -0.250000000
      26   0.500000000  -0.500000000   0.500000000
      27   0.000000000   0.000000000   0.750000000
      28   0.000000000   0.875000000  -0.125000000
      29   0.000000000   0.000000000  -1.000000000

     Calculation of q =    0.0000000   0.0000000   0.0000000

                                                                                

     bravais-lattice index     =            3
     lattice parameter (alat)  =       6.8051  a.u.
     unit-cell volume          =     157.5693 (a.u.)^3
     number of atoms/cell      =            1
     number of atomic types    =            1
     kinetic-energy cut-off    =      40.0000  Ry
     charge density cut-off    =     320.0000  Ry
     convergence threshold     =      1.0E-12
     beta                      =       0.7000
     number of iterations used =            4
     Exchange-correlation      = SLA  PW   PBE  PBE ( 1  4  3  4 0 0)


     celldm(1)=    6.80509  celldm(2)=    0.00000  celldm(3)=    0.00000
     celldm(4)=    0.00000  celldm(5)=    0.00000  celldm(6)=    0.00000

     crystal axes: (cart. coord. in units of alat)
               a(1) = (  0.5000  0.5000  0.5000 )  
               a(2) = ( -0.5000  0.5000  0.5000 )  
               a(3) = ( -0.5000 -0.5000  0.5000 )  

     reciprocal axes: (cart. coord. in units 2 pi/alat)
               b(1) = (  1.0000  0.0000  1.0000 )  
               b(2) = ( -1.0000  1.0000  0.0000 )  
               b(3) = (  0.0000 -1.0000  1.0000 )  


     Atoms inside the unit cell: 

     Cartesian axes

     site n.  atom      mass           positions (alat units)
        1     Na  22.9900   tau(    1) = (    0.00000    0.00000    0.00000  )

     Computing dynamical matrix for 
                    q = (   0.0000000   0.0000000   0.0000000 )

     49 Sym.Ops. (with q -> -q+G )


     G cutoff =  375.3687  (   3825 G-vectors)     FFT grid: ( 36, 36, 36)
     G cutoff =  187.6844  (   1354 G-vectors)  smooth grid: ( 24, 24, 24)

     number of k points=   100  Marzari-Vanderbilt smearing, width (Ry)=  0.0200

     PseudoPot. # 1 for Na read from file:
     /home/s1333534/quantum_espresso/qe-6.1/pseudo/Na_pbe_v1.uspp.F.UPF
     MD5 check sum: 76a99c7e9422403d3e93cbc85ab7bccb
     Pseudo is Ultrasoft, Zval =  9.0
     Generated by new atomic code, or converted to UPF format
     Using radial grid of  819 points,  5 beta functions with: 
                l(1) =   0
                l(2) =   0
                l(3) =   1
                l(4) =   1
                l(5) =   2
     Q(r) pseudized with  8 coefficients,  rinner =    1.250   1.250   1.250
                                                       1.250   1.250

     Mode symmetry, O_h (m-3m)  point group:


     Atomic displacements:
     There are   1 irreducible representations

     Representation     1      3 modes -T_1u G_15  G_4-  To be done



     Alpha used in Ewald sum =   2.8000
     PHONON       :     0.89s CPU         0.93s WALL



     Representation #  1 modes #   1  2  3

     Self-consistent Calculation

     Pert. #  1: Fermi energy shift (Ry) =     4.4806E-25    -1.5673E-38
     Pert. #  2: Fermi energy shift (Ry) =     1.2063E-24    -1.5673E-38
     Pert. #  3: Fermi energy shift (Ry) =    -1.0340E-25     6.2693E-38

      iter #   1 total cpu time :     2.7 secs   av.it.:   5.5
      thresh= 1.000E-02 alpha_mix =  0.700 |ddv_scf|^2 =  2.672E-06

     Pert. #  1: Fermi energy shift (Ry) =     0.0000E+00     2.4489E-40
     Pert. #  2: Fermi energy shift (Ry) =    -9.6504E-25    -9.7958E-40
     Pert. #  3: Fermi energy shift (Ry) =     0.0000E+00     1.2245E-40

      iter #   2 total cpu time :     4.8 secs   av.it.:   8.3
      thresh= 1.635E-04 alpha_mix =  0.700 |ddv_scf|^2 =  5.340E-08

     Pert. #  1: Fermi energy shift (Ry) =    -1.9301E-24    -2.4489E-40
     Pert. #  2: Fermi energy shift (Ry) =    -3.4466E-25     5.5101E-40
     Pert. #  3: Fermi energy shift (Ry) =    -1.3786E-25     2.4489E-40

      iter #   3 total cpu time :     6.8 secs   av.it.:   8.5
      thresh= 2.311E-05 alpha_mix =  0.700 |ddv_scf|^2 =  5.130E-10

     Pert. #  1: Fermi energy shift (Ry) =     5.5145E-25    -3.0612E-41
     Pert. #  2: Fermi energy shift (Ry) =     2.0680E-24     9.1835E-41
     Pert. #  3: Fermi energy shift (Ry) =    -4.1359E-25     3.8265E-41

      iter #   4 total cpu time :     8.8 secs   av.it.:   8.0
      thresh= 2.265E-06 alpha_mix =  0.700 |ddv_scf|^2 =  1.633E-12

     Pert. #  1: Fermi energy shift (Ry) =     0.0000E+00    -1.9898E-40
     Pert. #  2: Fermi energy shift (Ry) =    -1.7922E-24    -9.1835E-41
     Pert. #  3: Fermi energy shift (Ry) =     1.1029E-24     1.2245E-40

      iter #   5 total cpu time :    10.8 secs   av.it.:   8.2
      thresh= 1.278E-07 alpha_mix =  0.700 |ddv_scf|^2 =  9.185E-15

     End of self-consistent calculation

     Convergence has been achieved 

     Number of q in the star =    1
     List of q in the star:
          1   0.000000000   0.000000000   0.000000000

     Diagonalizing the dynamical matrix

     q = (    0.000000000   0.000000000   0.000000000 ) 

 **************************************************************************
     freq (    1) =       0.292449 [THz] =       9.755041 [cm-1]
     freq (    2) =       0.292449 [THz] =       9.755041 [cm-1]
     freq (    3) =       0.292449 [THz] =       9.755041 [cm-1]
 **************************************************************************

     Mode symmetry, O_h (m-3m)  point group:

     freq (  1 -  3) =          9.8  [cm-1]   --> T_1u G_15  G_4- I  

     Calculation of q =    0.0000000  -0.1250000   0.1250000

   Info: using nr1, nr2, nr3 values from input

   Info: using nr1, nr2, nr3 values from input

     Parallelization info
     --------------------
     sticks:   dense  smooth     PW     G-vecs:    dense   smooth      PW
     Min         210     102     34                 3824     1354     263
     Max         211     103     35                 3825     1357     265
     Sum         841     411    137                15299     5425    1055



     bravais-lattice index     =            3
     lattice parameter (alat)  =       6.8051  a.u.
     unit-cell volume          =     157.5693 (a.u.)^3
     number of atoms/cell      =            1
     number of atomic types    =            1
     number of electrons       =         9.00
     number of Kohn-Sham states=            9
     kinetic-energy cutoff     =      40.0000  Ry
     charge density cutoff     =     320.0000  Ry
     Exchange-correlation      = SLA  PW   PBE  PBE ( 1  4  3  4 0 0)

     celldm(1)=   6.805091  celldm(2)=   0.000000  celldm(3)=   0.000000
     celldm(4)=   0.000000  celldm(5)=   0.000000  celldm(6)=   0.000000

     crystal axes: (cart. coord. in units of alat)
               a(1) = (   0.500000   0.500000   0.500000 )  
               a(2) = (  -0.500000   0.500000   0.500000 )  
               a(3) = (  -0.500000  -0.500000   0.500000 )  

     reciprocal axes: (cart. coord. in units 2 pi/alat)
               b(1) = (  1.000000  0.000000  1.000000 )  
               b(2) = ( -1.000000  1.000000  0.000000 )  
               b(3) = (  0.000000 -1.000000  1.000000 )  


     PseudoPot. # 1 for Na read from file:
     /home/s1333534/quantum_espresso/qe-6.1/pseudo/Na_pbe_v1.uspp.F.UPF
     MD5 check sum: 76a99c7e9422403d3e93cbc85ab7bccb
     Pseudo is Ultrasoft, Zval =  9.0
     Generated by new atomic code, or converted to UPF format
     Using radial grid of  819 points,  5 beta functions with: 
                l(1) =   0
                l(2) =   0
                l(3) =   1
                l(4) =   1
                l(5) =   2
     Q(r) pseudized with  8 coefficients,  rinner =    1.250   1.250   1.250
                                                       1.250   1.250

     atomic species   valence    mass     pseudopotential
        Na             9.00    22.99000     Na( 1.00)

     48 Sym. Ops., with inversion, found



   Cartesian axes

     site n.     atom                  positions (alat units)
         1           Na  tau(   1) = (   0.0000000   0.0000000   0.0000000  )

     number of k points=  1568  Marzari-Vanderbilt smearing, width (Ry)=  0.0200

     Number of k-points >= 100: set verbosity='high' to print them.

     Dense  grid:    15299 G-vectors     FFT dimensions: (  36,  36,  36)

     Smooth grid:     5425 G-vectors     FFT dimensions: (  24,  24,  24)

     Estimated max dynamical RAM per process >       1.52MB

     Estimated total allocated dynamical RAM >       6.06MB

     The potential is recalculated from file :
     ./_ph0/na.bcc.save/charge-density.dat

     Starting wfc are    5 atomic +    4 random wfc

     Band Structure Calculation
     Davidson diagonalization with overlap

     ethr =  1.11E-10,  avg # of iterations = 18.0

     total cpu time spent up to now is       26.5 secs

     End of band structure calculation

     Number of k-points >= 100: set verbosity='high' to print the bands.

     the Fermi energy is     4.1208 ev

     Writing output data file na.bcc.save

                                                                                

     bravais-lattice index     =            3
     lattice parameter (alat)  =       6.8051  a.u.
     unit-cell volume          =     157.5693 (a.u.)^3
     number of atoms/cell      =            1
     number of atomic types    =            1
     kinetic-energy cut-off    =      40.0000  Ry
     charge density cut-off    =     320.0000  Ry
     convergence threshold     =      1.0E-12
     beta                      =       0.7000
     number of iterations used =            4
     Exchange-correlation      = SLA  PW   PBE  PBE ( 1  4  3  4 0 0)


     celldm(1)=    6.80509  celldm(2)=    0.00000  celldm(3)=    0.00000
     celldm(4)=    0.00000  celldm(5)=    0.00000  celldm(6)=    0.00000

     crystal axes: (cart. coord. in units of alat)
               a(1) = (  0.5000  0.5000  0.5000 )  
               a(2) = ( -0.5000  0.5000  0.5000 )  
               a(3) = ( -0.5000 -0.5000  0.5000 )  

     reciprocal axes: (cart. coord. in units 2 pi/alat)
               b(1) = (  1.0000  0.0000  1.0000 )  
               b(2) = ( -1.0000  1.0000  0.0000 )  
               b(3) = (  0.0000 -1.0000  1.0000 )  


     Atoms inside the unit cell: 

     Cartesian axes

     site n.  atom      mass           positions (alat units)
        1     Na  22.9900   tau(    1) = (    0.00000    0.00000    0.00000  )

     Computing dynamical matrix for 
                    q = (   0.0000000  -0.1250000   0.1250000 )

      4 Sym.Ops. (no q -> -q+G )


     G cutoff =  375.3687  (   3825 G-vectors)     FFT grid: ( 36, 36, 36)
     G cutoff =  187.6844  (   1354 G-vectors)  smooth grid: ( 24, 24, 24)

     number of k points=  1568  Marzari-Vanderbilt smearing, width (Ry)=  0.0200

     PseudoPot. # 1 for Na read from file:
     /home/s1333534/quantum_espresso/qe-6.1/pseudo/Na_pbe_v1.uspp.F.UPF
     MD5 check sum: 76a99c7e9422403d3e93cbc85ab7bccb
     Pseudo is Ultrasoft, Zval =  9.0
     Generated by new atomic code, or converted to UPF format
     Using radial grid of  819 points,  5 beta functions with: 
                l(1) =   0
                l(2) =   0
                l(3) =   1
                l(4) =   1
                l(5) =   2
     Q(r) pseudized with  8 coefficients,  rinner =    1.250   1.250   1.250
                                                       1.250   1.250

     Mode symmetry, C_2v (mm2)  point group:


     Atomic displacements:
     There are   3 irreducible representations

     Representation     1      1 modes -A_1  D_1  S_1  To be done

     Representation     2      1 modes -B_1  D_3  S_3  To be done

     Representation     3      1 modes -B_2  D_4  S_4  To be done



     Alpha used in Ewald sum =   2.8000
     PHONON       :    39.25s CPU        40.62s WALL



     Representation #  1 mode #   1

     Self-consistent Calculation

      iter #   1 total cpu time :    44.8 secs   av.it.:   5.6
      thresh= 1.000E-02 alpha_mix =  0.700 |ddv_scf|^2 =  3.471E-01

      iter #   2 total cpu time :    49.1 secs   av.it.:   7.1
      thresh= 1.000E-02 alpha_mix =  0.700 |ddv_scf|^2 =  1.290E+02

      iter #   3 total cpu time :    53.3 secs   av.it.:   7.1
      thresh= 1.000E-02 alpha_mix =  0.700 |ddv_scf|^2 =  2.362E-04

      iter #   4 total cpu time :    56.8 secs   av.it.:   5.4
      thresh= 1.537E-03 alpha_mix =  0.700 |ddv_scf|^2 =  6.184E-07

      iter #   5 total cpu time :    61.0 secs   av.it.:   6.9
      thresh= 7.864E-05 alpha_mix =  0.700 |ddv_scf|^2 =  8.660E-09

      iter #   6 total cpu time :    65.2 secs   av.it.:   7.1
      thresh= 9.306E-06 alpha_mix =  0.700 |ddv_scf|^2 =  1.141E-08

      iter #   7 total cpu time :    68.1 secs   av.it.:   4.2
      thresh= 1.068E-05 alpha_mix =  0.700 |ddv_scf|^2 =  1.170E-08

      iter #   8 total cpu time :    71.8 secs   av.it.:   5.8
      thresh= 1.082E-05 alpha_mix =  0.700 |ddv_scf|^2 =  4.022E-11

      iter #   9 total cpu time :    76.2 secs   av.it.:   6.9
      thresh= 6.342E-07 alpha_mix =  0.700 |ddv_scf|^2 =  6.822E-14

     End of self-consistent calculation

     Convergence has been achieved 


     Representation #  2 mode #   2

     Self-consistent Calculation

      iter #   1 total cpu time :    80.3 secs   av.it.:   5.4
      thresh= 1.000E-02 alpha_mix =  0.700 |ddv_scf|^2 =  2.422E-05

      iter #   2 total cpu time :    84.7 secs   av.it.:   7.3
      thresh= 4.921E-04 alpha_mix =  0.700 |ddv_scf|^2 =  4.769E-07

      iter #   3 total cpu time :    89.1 secs   av.it.:   7.5
      thresh= 6.906E-05 alpha_mix =  0.700 |ddv_scf|^2 =  4.933E-09

      iter #   4 total cpu time :    93.4 secs   av.it.:   7.2
      thresh= 7.023E-06 alpha_mix =  0.700 |ddv_scf|^2 =  1.556E-11

      iter #   5 total cpu time :    97.7 secs   av.it.:   7.3
      thresh= 3.944E-07 alpha_mix =  0.700 |ddv_scf|^2 =  7.866E-14

     End of self-consistent calculation

     Convergence has been achieved 


     Representation #  3 mode #   3

     Self-consistent Calculation

      iter #   1 total cpu time :   101.9 secs   av.it.:   5.4
      thresh= 1.000E-02 alpha_mix =  0.700 |ddv_scf|^2 =  2.475E-05

      iter #   2 total cpu time :   106.3 secs   av.it.:   7.3
      thresh= 4.975E-04 alpha_mix =  0.700 |ddv_scf|^2 =  4.742E-07

      iter #   3 total cpu time :   110.7 secs   av.it.:   7.5
      thresh= 6.887E-05 alpha_mix =  0.700 |ddv_scf|^2 =  5.874E-09

      iter #   4 total cpu time :   115.0 secs   av.it.:   7.2
      thresh= 7.664E-06 alpha_mix =  0.700 |ddv_scf|^2 =  1.892E-11

      iter #   5 total cpu time :   119.3 secs   av.it.:   7.3
      thresh= 4.350E-07 alpha_mix =  0.700 |ddv_scf|^2 =  7.741E-14

     End of self-consistent calculation

     Convergence has been achieved 

     Number of q in the star =   12
     List of q in the star:
          1   0.000000000  -0.125000000   0.125000000
          2   0.125000000   0.000000000   0.125000000
          3  -0.125000000   0.000000000   0.125000000
          4   0.000000000   0.125000000   0.125000000
          5   0.125000000  -0.125000000   0.000000000
          6  -0.125000000   0.000000000  -0.125000000
          7   0.125000000   0.000000000  -0.125000000
          8   0.000000000  -0.125000000  -0.125000000
          9  -0.125000000  -0.125000000   0.000000000
         10  -0.125000000   0.125000000   0.000000000
         11   0.125000000   0.125000000   0.000000000
         12   0.000000000   0.125000000  -0.125000000

     Diagonalizing the dynamical matrix

     q = (    0.000000000  -0.125000000   0.125000000 ) 

 **************************************************************************
     freq (    1) =       1.203950 [THz] =      40.159442 [cm-1]
     freq (    2) =       1.617519 [THz] =      53.954617 [cm-1]
     freq (    3) =       2.905216 [THz] =      96.907568 [cm-1]
 **************************************************************************

     Mode symmetry, C_2v (mm2)  point group:

     freq (  1 -  1) =         40.2  [cm-1]   --> B_1  D_3  S_3      
     freq (  2 -  2) =         54.0  [cm-1]   --> B_2  D_4  S_4      
     freq (  3 -  3) =         96.9  [cm-1]   --> A_1  D_1  S_1      

     Calculation of q =    0.0000000  -0.2500000   0.2500000

   Info: using nr1, nr2, nr3 values from input

   Info: using nr1, nr2, nr3 values from input

     Parallelization info
     --------------------
     sticks:   dense  smooth     PW     G-vecs:    dense   smooth      PW
     Min         210     102     37                 3824     1354     289
     Max         211     103     38                 3825     1357     290
     Sum         841     411    151                15299     5425    1157



     bravais-lattice index     =            3
     lattice parameter (alat)  =       6.8051  a.u.
     unit-cell volume          =     157.5693 (a.u.)^3
     number of atoms/cell      =            1
     number of atomic types    =            1
     number of electrons       =         9.00
     number of Kohn-Sham states=            9
     kinetic-energy cutoff     =      40.0000  Ry
     charge density cutoff     =     320.0000  Ry
     Exchange-correlation      = SLA  PW   PBE  PBE ( 1  4  3  4 0 0)

     celldm(1)=   6.805091  celldm(2)=   0.000000  celldm(3)=   0.000000
     celldm(4)=   0.000000  celldm(5)=   0.000000  celldm(6)=   0.000000

     crystal axes: (cart. coord. in units of alat)
               a(1) = (   0.500000   0.500000   0.500000 )  
               a(2) = (  -0.500000   0.500000   0.500000 )  
               a(3) = (  -0.500000  -0.500000   0.500000 )  

     reciprocal axes: (cart. coord. in units 2 pi/alat)
               b(1) = (  1.000000  0.000000  1.000000 )  
               b(2) = ( -1.000000  1.000000  0.000000 )  
               b(3) = (  0.000000 -1.000000  1.000000 )  


     PseudoPot. # 1 for Na read from file:
     /home/s1333534/quantum_espresso/qe-6.1/pseudo/Na_pbe_v1.uspp.F.UPF
     MD5 check sum: 76a99c7e9422403d3e93cbc85ab7bccb
     Pseudo is Ultrasoft, Zval =  9.0
     Generated by new atomic code, or converted to UPF format
     Using radial grid of  819 points,  5 beta functions with: 
                l(1) =   0
                l(2) =   0
                l(3) =   1
                l(4) =   1
                l(5) =   2
     Q(r) pseudized with  8 coefficients,  rinner =    1.250   1.250   1.250
                                                       1.250   1.250

     atomic species   valence    mass     pseudopotential
        Na             9.00    22.99000     Na( 1.00)

     48 Sym. Ops., with inversion, found



   Cartesian axes

     site n.     atom                  positions (alat units)
         1           Na  tau(   1) = (   0.0000000   0.0000000   0.0000000  )

     number of k points=  1568  Marzari-Vanderbilt smearing, width (Ry)=  0.0200

     Number of k-points >= 100: set verbosity='high' to print them.

     Dense  grid:    15299 G-vectors     FFT dimensions: (  36,  36,  36)

     Smooth grid:     5425 G-vectors     FFT dimensions: (  24,  24,  24)

     Estimated max dynamical RAM per process >       1.52MB

     Estimated total allocated dynamical RAM >       6.06MB

     The potential is recalculated from file :
     ./_ph0/na.bcc.save/charge-density.dat

     Starting wfc are    5 atomic +    4 random wfc

     Band Structure Calculation
     Davidson diagonalization with overlap

     ethr =  1.11E-10,  avg # of iterations = 18.0

     total cpu time spent up to now is       54.2 secs

     End of band structure calculation

     Number of k-points >= 100: set verbosity='high' to print the bands.

     the Fermi energy is     4.1208 ev

     Writing output data file na.bcc.save

                                                                                

     bravais-lattice index     =            3
     lattice parameter (alat)  =       6.8051  a.u.
     unit-cell volume          =     157.5693 (a.u.)^3
     number of atoms/cell      =            1
     number of atomic types    =            1
     kinetic-energy cut-off    =      40.0000  Ry
     charge density cut-off    =     320.0000  Ry
     convergence threshold     =      1.0E-12
     beta                      =       0.7000
     number of iterations used =            4
     Exchange-correlation      = SLA  PW   PBE  PBE ( 1  4  3  4 0 0)


     celldm(1)=    6.80509  celldm(2)=    0.00000  celldm(3)=    0.00000
     celldm(4)=    0.00000  celldm(5)=    0.00000  celldm(6)=    0.00000

     crystal axes: (cart. coord. in units of alat)
               a(1) = (  0.5000  0.5000  0.5000 )  
               a(2) = ( -0.5000  0.5000  0.5000 )  
               a(3) = ( -0.5000 -0.5000  0.5000 )  

     reciprocal axes: (cart. coord. in units 2 pi/alat)
               b(1) = (  1.0000  0.0000  1.0000 )  
               b(2) = ( -1.0000  1.0000  0.0000 )  
               b(3) = (  0.0000 -1.0000  1.0000 )  


     Atoms inside the unit cell: 

     Cartesian axes

     site n.  atom      mass           positions (alat units)
        1     Na  22.9900   tau(    1) = (    0.00000    0.00000    0.00000  )

     Computing dynamical matrix for 
                    q = (   0.0000000  -0.2500000   0.2500000 )

      4 Sym.Ops. (no q -> -q+G )


     G cutoff =  375.3687  (   3825 G-vectors)     FFT grid: ( 36, 36, 36)
     G cutoff =  187.6844  (   1354 G-vectors)  smooth grid: ( 24, 24, 24)

     number of k points=  1568  Marzari-Vanderbilt smearing, width (Ry)=  0.0200

     PseudoPot. # 1 for Na read from file:
     /home/s1333534/quantum_espresso/qe-6.1/pseudo/Na_pbe_v1.uspp.F.UPF
     MD5 check sum: 76a99c7e9422403d3e93cbc85ab7bccb
     Pseudo is Ultrasoft, Zval =  9.0
     Generated by new atomic code, or converted to UPF format
     Using radial grid of  819 points,  5 beta functions with: 
                l(1) =   0
                l(2) =   0
                l(3) =   1
                l(4) =   1
                l(5) =   2
     Q(r) pseudized with  8 coefficients,  rinner =    1.250   1.250   1.250
                                                       1.250   1.250

     Mode symmetry, C_2v (mm2)  point group:


     Atomic displacements:
     There are   3 irreducible representations

     Representation     1      1 modes -A_1  D_1  S_1  To be done

     Representation     2      1 modes -B_1  D_3  S_3  To be done

     Representation     3      1 modes -B_2  D_4  S_4  To be done



     Alpha used in Ewald sum =   2.8000
     PHONON       :  2m23.02s CPU     2m29.46s WALL



     Representation #  1 mode #   1

     Self-consistent Calculation

      iter #   1 total cpu time :   153.7 secs   av.it.:   5.7
      thresh= 1.000E-02 alpha_mix =  0.700 |ddv_scf|^2 =  5.691E-03

      iter #   2 total cpu time :   157.7 secs   av.it.:   6.2
      thresh= 7.544E-03 alpha_mix =  0.700 |ddv_scf|^2 =  1.022E-01

      iter #   3 total cpu time :   161.6 secs   av.it.:   5.9
      thresh= 1.000E-02 alpha_mix =  0.700 |ddv_scf|^2 =  4.833E-06

      iter #   4 total cpu time :   165.9 secs   av.it.:   7.2
      thresh= 2.199E-04 alpha_mix =  0.700 |ddv_scf|^2 =  2.406E-08

      iter #   5 total cpu time :   170.5 secs   av.it.:   7.8
      thresh= 1.551E-05 alpha_mix =  0.700 |ddv_scf|^2 =  3.464E-09

      iter #   6 total cpu time :   175.0 secs   av.it.:   7.5
      thresh= 5.885E-06 alpha_mix =  0.700 |ddv_scf|^2 =  4.827E-11

      iter #   7 total cpu time :   179.4 secs   av.it.:   7.5
      thresh= 6.948E-07 alpha_mix =  0.700 |ddv_scf|^2 =  3.054E-12

      iter #   8 total cpu time :   183.8 secs   av.it.:   7.2
      thresh= 1.748E-07 alpha_mix =  0.700 |ddv_scf|^2 =  1.260E-13

     End of self-consistent calculation

     Convergence has been achieved 


     Representation #  2 mode #   2

     Self-consistent Calculation

      iter #   1 total cpu time :   188.5 secs   av.it.:   5.5
      thresh= 1.000E-02 alpha_mix =  0.700 |ddv_scf|^2 =  2.470E-05

      iter #   2 total cpu time :   192.9 secs   av.it.:   7.3
      thresh= 4.969E-04 alpha_mix =  0.700 |ddv_scf|^2 =  4.646E-07

      iter #   3 total cpu time :   197.4 secs   av.it.:   7.6
      thresh= 6.816E-05 alpha_mix =  0.700 |ddv_scf|^2 =  5.966E-09

      iter #   4 total cpu time :   201.7 secs   av.it.:   7.2
      thresh= 7.724E-06 alpha_mix =  0.700 |ddv_scf|^2 =  1.820E-11

      iter #   5 total cpu time :   206.2 secs   av.it.:   7.4
      thresh= 4.266E-07 alpha_mix =  0.700 |ddv_scf|^2 =  6.777E-14

     End of self-consistent calculation

     Convergence has been achieved 


     Representation #  3 mode #   3

     Self-consistent Calculation

      iter #   1 total cpu time :   210.4 secs   av.it.:   5.4
      thresh= 1.000E-02 alpha_mix =  0.700 |ddv_scf|^2 =  2.656E-05

      iter #   2 total cpu time :   214.8 secs   av.it.:   7.3
      thresh= 5.153E-04 alpha_mix =  0.700 |ddv_scf|^2 =  4.557E-07

      iter #   3 total cpu time :   220.1 secs   av.it.:   7.5
      thresh= 6.751E-05 alpha_mix =  0.700 |ddv_scf|^2 =  9.432E-09

      iter #   4 total cpu time :   224.4 secs   av.it.:   7.3
      thresh= 9.712E-06 alpha_mix =  0.700 |ddv_scf|^2 =  3.128E-11

      iter #   5 total cpu time :   228.8 secs   av.it.:   7.4
      thresh= 5.593E-07 alpha_mix =  0.700 |ddv_scf|^2 =  6.835E-14

     End of self-consistent calculation

     Convergence has been achieved 

     Number of q in the star =   12
     List of q in the star:
          1   0.000000000  -0.250000000   0.250000000
          2   0.250000000   0.000000000   0.250000000
          3  -0.250000000   0.000000000   0.250000000
          4   0.000000000   0.250000000   0.250000000
          5   0.250000000  -0.250000000   0.000000000
          6  -0.250000000   0.000000000  -0.250000000
          7   0.250000000   0.000000000  -0.250000000
          8   0.000000000  -0.250000000  -0.250000000
          9  -0.250000000  -0.250000000   0.000000000
         10  -0.250000000   0.250000000   0.000000000
         11   0.250000000   0.250000000   0.000000000
         12   0.000000000   0.250000000  -0.250000000

     Diagonalizing the dynamical matrix

     q = (    0.000000000  -0.250000000   0.250000000 ) 

 **************************************************************************
     freq (    1) =       1.601868 [THz] =      53.432566 [cm-1]
     freq (    2) =       2.633806 [THz] =      87.854307 [cm-1]
     freq (    3) =       5.017312 [THz] =     167.359509 [cm-1]
 **************************************************************************

     Mode symmetry, C_2v (mm2)  point group:

     freq (  1 -  1) =         53.4  [cm-1]   --> B_1  D_3  S_3      
     freq (  2 -  2) =         87.9  [cm-1]   --> B_2  D_4  S_4      
     freq (  3 -  3) =        167.4  [cm-1]   --> A_1  D_1  S_1      

     Calculation of q =    0.0000000  -0.3750000   0.3750000

   Info: using nr1, nr2, nr3 values from input

   Info: using nr1, nr2, nr3 values from input

     Parallelization info
     --------------------
     sticks:   dense  smooth     PW     G-vecs:    dense   smooth      PW
     Min         209     102     38                 3824     1354     301
     Max         211     103     39                 3825     1357     302
     Sum         841     411    155                15299     5425    1205



     bravais-lattice index     =            3
     lattice parameter (alat)  =       6.8051  a.u.
     unit-cell volume          =     157.5693 (a.u.)^3
     number of atoms/cell      =            1
     number of atomic types    =            1
     number of electrons       =         9.00
     number of Kohn-Sham states=            9
     kinetic-energy cutoff     =      40.0000  Ry
     charge density cutoff     =     320.0000  Ry
     Exchange-correlation      = SLA  PW   PBE  PBE ( 1  4  3  4 0 0)

     celldm(1)=   6.805091  celldm(2)=   0.000000  celldm(3)=   0.000000
     celldm(4)=   0.000000  celldm(5)=   0.000000  celldm(6)=   0.000000

     crystal axes: (cart. coord. in units of alat)
               a(1) = (   0.500000   0.500000   0.500000 )  
               a(2) = (  -0.500000   0.500000   0.500000 )  
               a(3) = (  -0.500000  -0.500000   0.500000 )  

     reciprocal axes: (cart. coord. in units 2 pi/alat)
               b(1) = (  1.000000  0.000000  1.000000 )  
               b(2) = ( -1.000000  1.000000  0.000000 )  
               b(3) = (  0.000000 -1.000000  1.000000 )  


     PseudoPot. # 1 for Na read from file:
     /home/s1333534/quantum_espresso/qe-6.1/pseudo/Na_pbe_v1.uspp.F.UPF
     MD5 check sum: 76a99c7e9422403d3e93cbc85ab7bccb
     Pseudo is Ultrasoft, Zval =  9.0
     Generated by new atomic code, or converted to UPF format
     Using radial grid of  819 points,  5 beta functions with: 
                l(1) =   0
                l(2) =   0
                l(3) =   1
                l(4) =   1
                l(5) =   2
     Q(r) pseudized with  8 coefficients,  rinner =    1.250   1.250   1.250
                                                       1.250   1.250

     atomic species   valence    mass     pseudopotential
        Na             9.00    22.99000     Na( 1.00)

     48 Sym. Ops., with inversion, found



   Cartesian axes

     site n.     atom                  positions (alat units)
         1           Na  tau(   1) = (   0.0000000   0.0000000   0.0000000  )

     number of k points=  1568  Marzari-Vanderbilt smearing, width (Ry)=  0.0200

     Number of k-points >= 100: set verbosity='high' to print them.

     Dense  grid:    15299 G-vectors     FFT dimensions: (  36,  36,  36)

     Smooth grid:     5425 G-vectors     FFT dimensions: (  24,  24,  24)

     Estimated max dynamical RAM per process >       1.52MB

     Estimated total allocated dynamical RAM >       6.06MB

     The potential is recalculated from file :
     ./_ph0/na.bcc.save/charge-density.dat

     Starting wfc are    5 atomic +    4 random wfc

     Band Structure Calculation
     Davidson diagonalization with overlap

     ethr =  1.11E-10,  avg # of iterations = 18.0

     total cpu time spent up to now is       82.1 secs

     End of band structure calculation

     Number of k-points >= 100: set verbosity='high' to print the bands.

     the Fermi energy is     4.1208 ev

     Writing output data file na.bcc.save

                                                                                

     bravais-lattice index     =            3
     lattice parameter (alat)  =       6.8051  a.u.
     unit-cell volume          =     157.5693 (a.u.)^3
     number of atoms/cell      =            1
     number of atomic types    =            1
     kinetic-energy cut-off    =      40.0000  Ry
     charge density cut-off    =     320.0000  Ry
     convergence threshold     =      1.0E-12
     beta                      =       0.7000
     number of iterations used =            4
     Exchange-correlation      = SLA  PW   PBE  PBE ( 1  4  3  4 0 0)


     celldm(1)=    6.80509  celldm(2)=    0.00000  celldm(3)=    0.00000
     celldm(4)=    0.00000  celldm(5)=    0.00000  celldm(6)=    0.00000

     crystal axes: (cart. coord. in units of alat)
               a(1) = (  0.5000  0.5000  0.5000 )  
               a(2) = ( -0.5000  0.5000  0.5000 )  
               a(3) = ( -0.5000 -0.5000  0.5000 )  

     reciprocal axes: (cart. coord. in units 2 pi/alat)
               b(1) = (  1.0000  0.0000  1.0000 )  
               b(2) = ( -1.0000  1.0000  0.0000 )  
               b(3) = (  0.0000 -1.0000  1.0000 )  


     Atoms inside the unit cell: 

     Cartesian axes

     site n.  atom      mass           positions (alat units)
        1     Na  22.9900   tau(    1) = (    0.00000    0.00000    0.00000  )

     Computing dynamical matrix for 
                    q = (   0.0000000  -0.3750000   0.3750000 )

      4 Sym.Ops. (no q -> -q+G )


     G cutoff =  375.3687  (   3825 G-vectors)     FFT grid: ( 36, 36, 36)
     G cutoff =  187.6844  (   1354 G-vectors)  smooth grid: ( 24, 24, 24)

     number of k points=  1568  Marzari-Vanderbilt smearing, width (Ry)=  0.0200

     PseudoPot. # 1 for Na read from file:
     /home/s1333534/quantum_espresso/qe-6.1/pseudo/Na_pbe_v1.uspp.F.UPF
     MD5 check sum: 76a99c7e9422403d3e93cbc85ab7bccb
     Pseudo is Ultrasoft, Zval =  9.0
     Generated by new atomic code, or converted to UPF format
     Using radial grid of  819 points,  5 beta functions with: 
                l(1) =   0
                l(2) =   0
                l(3) =   1
                l(4) =   1
                l(5) =   2
     Q(r) pseudized with  8 coefficients,  rinner =    1.250   1.250   1.250
                                                       1.250   1.250

     Mode symmetry, C_2v (mm2)  point group:


     Atomic displacements:
     There are   3 irreducible representations

     Representation     1      1 modes -A_1  D_1  S_1  To be done

     Representation     2      1 modes -B_1  D_3  S_3  To be done

     Representation     3      1 modes -B_2  D_4  S_4  To be done



     Alpha used in Ewald sum =   2.8000
     PHONON       :  4m 6.74s CPU     4m19.12s WALL



     Representation #  1 mode #   1

     Self-consistent Calculation

      iter #   1 total cpu time :   263.4 secs   av.it.:   5.7
      thresh= 1.000E-02 alpha_mix =  0.700 |ddv_scf|^2 =  6.378E-04

      iter #   2 total cpu time :   267.5 secs   av.it.:   6.6
      thresh= 2.525E-03 alpha_mix =  0.700 |ddv_scf|^2 =  1.606E-03

      iter #   3 total cpu time :   271.4 secs   av.it.:   6.1
      thresh= 4.008E-03 alpha_mix =  0.700 |ddv_scf|^2 =  6.200E-07

      iter #   4 total cpu time :   276.0 secs   av.it.:   7.7
      thresh= 7.874E-05 alpha_mix =  0.700 |ddv_scf|^2 =  1.999E-08

      iter #   5 total cpu time :   280.7 secs   av.it.:   8.0
      thresh= 1.414E-05 alpha_mix =  0.700 |ddv_scf|^2 =  1.087E-09

      iter #   6 total cpu time :   285.3 secs   av.it.:   7.8
      thresh= 3.297E-06 alpha_mix =  0.700 |ddv_scf|^2 =  2.500E-11

      iter #   7 total cpu time :   289.7 secs   av.it.:   7.4
      thresh= 5.000E-07 alpha_mix =  0.700 |ddv_scf|^2 =  1.469E-12

      iter #   8 total cpu time :   294.4 secs   av.it.:   7.7
      thresh= 1.212E-07 alpha_mix =  0.700 |ddv_scf|^2 =  5.745E-15

     End of self-consistent calculation

     Convergence has been achieved 


     Representation #  2 mode #   2

     Self-consistent Calculation

      iter #   1 total cpu time :   298.6 secs   av.it.:   5.5
      thresh= 1.000E-02 alpha_mix =  0.700 |ddv_scf|^2 =  2.529E-05

      iter #   2 total cpu time :   303.1 secs   av.it.:   7.4
      thresh= 5.029E-04 alpha_mix =  0.700 |ddv_scf|^2 =  4.480E-07

      iter #   3 total cpu time :   307.6 secs   av.it.:   7.6
      thresh= 6.693E-05 alpha_mix =  0.700 |ddv_scf|^2 =  7.556E-09

      iter #   4 total cpu time :   311.9 secs   av.it.:   7.2
      thresh= 8.692E-06 alpha_mix =  0.700 |ddv_scf|^2 =  2.172E-11

      iter #   5 total cpu time :   316.4 secs   av.it.:   7.4
      thresh= 4.660E-07 alpha_mix =  0.700 |ddv_scf|^2 =  5.490E-14

     End of self-consistent calculation

     Convergence has been achieved 


     Representation #  3 mode #   3

     Self-consistent Calculation

      iter #   1 total cpu time :   320.7 secs   av.it.:   5.5
      thresh= 1.000E-02 alpha_mix =  0.700 |ddv_scf|^2 =  2.855E-05

      iter #   2 total cpu time :   325.1 secs   av.it.:   7.4
      thresh= 5.343E-04 alpha_mix =  0.700 |ddv_scf|^2 =  4.345E-07

      iter #   3 total cpu time :   329.6 secs   av.it.:   7.5
      thresh= 6.592E-05 alpha_mix =  0.700 |ddv_scf|^2 =  1.409E-08

      iter #   4 total cpu time :   334.0 secs   av.it.:   7.3
      thresh= 1.187E-05 alpha_mix =  0.700 |ddv_scf|^2 =  4.797E-11

      iter #   5 total cpu time :   338.4 secs   av.it.:   7.4
      thresh= 6.926E-07 alpha_mix =  0.700 |ddv_scf|^2 =  6.379E-14

     End of self-consistent calculation

     Convergence has been achieved 

     Number of q in the star =   12
     List of q in the star:
          1   0.000000000  -0.375000000   0.375000000
          2   0.375000000   0.000000000   0.375000000
          3  -0.375000000   0.000000000   0.375000000
          4   0.000000000   0.375000000   0.375000000
          5   0.375000000  -0.375000000   0.000000000
          6  -0.375000000   0.000000000  -0.375000000
          7   0.375000000   0.000000000  -0.375000000
          8   0.000000000  -0.375000000  -0.375000000
          9  -0.375000000  -0.375000000   0.000000000
         10  -0.375000000   0.375000000   0.000000000
         11   0.375000000   0.375000000   0.000000000
         12   0.000000000   0.375000000  -0.375000000

     Diagonalizing the dynamical matrix

     q = (    0.000000000  -0.375000000   0.375000000 ) 

 **************************************************************************
     freq (    1) =       1.660268 [THz] =      55.380570 [cm-1]
     freq (    2) =       3.303039 [THz] =     110.177538 [cm-1]
     freq (    3) =       6.541988 [THz] =     218.217232 [cm-1]
 **************************************************************************

     Mode symmetry, C_2v (mm2)  point group:

     freq (  1 -  1) =         55.4  [cm-1]   --> B_1  D_3  S_3      
     freq (  2 -  2) =        110.2  [cm-1]   --> B_2  D_4  S_4      
     freq (  3 -  3) =        218.2  [cm-1]   --> A_1  D_1  S_1      

     Calculation of q =    0.0000000   0.5000000  -0.5000000

   Info: using nr1, nr2, nr3 values from input

   Info: using nr1, nr2, nr3 values from input

     Parallelization info
     --------------------
     sticks:   dense  smooth     PW     G-vecs:    dense   smooth      PW
     Min         210     102     39                 3824     1354     312
     Max         211     103     40                 3825     1357     314
     Sum         841     411    159                15299     5425    1253



     bravais-lattice index     =            3
     lattice parameter (alat)  =       6.8051  a.u.
     unit-cell volume          =     157.5693 (a.u.)^3
     number of atoms/cell      =            1
     number of atomic types    =            1
     number of electrons       =         9.00
     number of Kohn-Sham states=            9
     kinetic-energy cutoff     =      40.0000  Ry
     charge density cutoff     =     320.0000  Ry
     Exchange-correlation      = SLA  PW   PBE  PBE ( 1  4  3  4 0 0)

     celldm(1)=   6.805091  celldm(2)=   0.000000  celldm(3)=   0.000000
     celldm(4)=   0.000000  celldm(5)=   0.000000  celldm(6)=   0.000000

     crystal axes: (cart. coord. in units of alat)
               a(1) = (   0.500000   0.500000   0.500000 )  
               a(2) = (  -0.500000   0.500000   0.500000 )  
               a(3) = (  -0.500000  -0.500000   0.500000 )  

     reciprocal axes: (cart. coord. in units 2 pi/alat)
               b(1) = (  1.000000  0.000000  1.000000 )  
               b(2) = ( -1.000000  1.000000  0.000000 )  
               b(3) = (  0.000000 -1.000000  1.000000 )  


     PseudoPot. # 1 for Na read from file:
     /home/s1333534/quantum_espresso/qe-6.1/pseudo/Na_pbe_v1.uspp.F.UPF
     MD5 check sum: 76a99c7e9422403d3e93cbc85ab7bccb
     Pseudo is Ultrasoft, Zval =  9.0
     Generated by new atomic code, or converted to UPF format
     Using radial grid of  819 points,  5 beta functions with: 
                l(1) =   0
                l(2) =   0
                l(3) =   1
                l(4) =   1
                l(5) =   2
     Q(r) pseudized with  8 coefficients,  rinner =    1.250   1.250   1.250
                                                       1.250   1.250

     atomic species   valence    mass     pseudopotential
        Na             9.00    22.99000     Na( 1.00)

     48 Sym. Ops., with inversion, found



   Cartesian axes

     site n.     atom                  positions (alat units)
         1           Na  tau(   1) = (   0.0000000   0.0000000   0.0000000  )

     number of k points=   840  Marzari-Vanderbilt smearing, width (Ry)=  0.0200

     Number of k-points >= 100: set verbosity='high' to print them.

     Dense  grid:    15299 G-vectors     FFT dimensions: (  36,  36,  36)

     Smooth grid:     5425 G-vectors     FFT dimensions: (  24,  24,  24)

     Estimated max dynamical RAM per process >       1.52MB

     Estimated total allocated dynamical RAM >       6.06MB

     The potential is recalculated from file :
     ./_ph0/na.bcc.save/charge-density.dat

     Starting wfc are    5 atomic +    4 random wfc

     Band Structure Calculation
     Davidson diagonalization with overlap

     ethr =  1.11E-10,  avg # of iterations = 18.2

     total cpu time spent up to now is       97.7 secs

     End of band structure calculation

     Number of k-points >= 100: set verbosity='high' to print the bands.

     the Fermi energy is     4.1208 ev

     Writing output data file na.bcc.save

                                                                                

     bravais-lattice index     =            3
     lattice parameter (alat)  =       6.8051  a.u.
     unit-cell volume          =     157.5693 (a.u.)^3
     number of atoms/cell      =            1
     number of atomic types    =            1
     kinetic-energy cut-off    =      40.0000  Ry
     charge density cut-off    =     320.0000  Ry
     convergence threshold     =      1.0E-12
     beta                      =       0.7000
     number of iterations used =            4
     Exchange-correlation      = SLA  PW   PBE  PBE ( 1  4  3  4 0 0)


     celldm(1)=    6.80509  celldm(2)=    0.00000  celldm(3)=    0.00000
     celldm(4)=    0.00000  celldm(5)=    0.00000  celldm(6)=    0.00000

     crystal axes: (cart. coord. in units of alat)
               a(1) = (  0.5000  0.5000  0.5000 )  
               a(2) = ( -0.5000  0.5000  0.5000 )  
               a(3) = ( -0.5000 -0.5000  0.5000 )  

     reciprocal axes: (cart. coord. in units 2 pi/alat)
               b(1) = (  1.0000  0.0000  1.0000 )  
               b(2) = ( -1.0000  1.0000  0.0000 )  
               b(3) = (  0.0000 -1.0000  1.0000 )  


     Atoms inside the unit cell: 

     Cartesian axes

     site n.  atom      mass           positions (alat units)
        1     Na  22.9900   tau(    1) = (    0.00000    0.00000    0.00000  )

     Computing dynamical matrix for 
                    q = (   0.0000000   0.5000000  -0.5000000 )

      9 Sym.Ops. (with q -> -q+G )


     G cutoff =  375.3687  (   3825 G-vectors)     FFT grid: ( 36, 36, 36)
     G cutoff =  187.6844  (   1354 G-vectors)  smooth grid: ( 24, 24, 24)

     number of k points=   840  Marzari-Vanderbilt smearing, width (Ry)=  0.0200

     PseudoPot. # 1 for Na read from file:
     /home/s1333534/quantum_espresso/qe-6.1/pseudo/Na_pbe_v1.uspp.F.UPF
     MD5 check sum: 76a99c7e9422403d3e93cbc85ab7bccb
     Pseudo is Ultrasoft, Zval =  9.0
     Generated by new atomic code, or converted to UPF format
     Using radial grid of  819 points,  5 beta functions with: 
                l(1) =   0
                l(2) =   0
                l(3) =   1
                l(4) =   1
                l(5) =   2
     Q(r) pseudized with  8 coefficients,  rinner =    1.250   1.250   1.250
                                                       1.250   1.250

     Mode symmetry, D_2h (mmm)  point group:


     Atomic displacements:
     There are   3 irreducible representations

     Representation     1      1 modes -B_1u  To be done

     Representation     2      1 modes -B_2u  To be done

     Representation     3      1 modes -B_3u  To be done



     Alpha used in Ewald sum =   2.8000
     PHONON       :  5m37.85s CPU     5m54.97s WALL



     Representation #  1 mode #   1

     Self-consistent Calculation

      iter #   1 total cpu time :   357.2 secs   av.it.:   5.5
      thresh= 1.000E-02 alpha_mix =  0.700 |ddv_scf|^2 =  2.942E-05

      iter #   2 total cpu time :   359.6 secs   av.it.:   7.3
      thresh= 5.424E-04 alpha_mix =  0.700 |ddv_scf|^2 =  4.264E-07

      iter #   3 total cpu time :   362.0 secs   av.it.:   7.5
      thresh= 6.530E-05 alpha_mix =  0.700 |ddv_scf|^2 =  1.632E-08

      iter #   4 total cpu time :   364.4 secs   av.it.:   7.0
      thresh= 1.278E-05 alpha_mix =  0.700 |ddv_scf|^2 =  5.576E-11

      iter #   5 total cpu time :   366.8 secs   av.it.:   7.3
      thresh= 7.467E-07 alpha_mix =  0.700 |ddv_scf|^2 =  6.290E-14

     End of self-consistent calculation

     Convergence has been achieved 


     Representation #  2 mode #   2

     Self-consistent Calculation

      iter #   1 total cpu time :   369.1 secs   av.it.:   5.5
      thresh= 1.000E-02 alpha_mix =  0.700 |ddv_scf|^2 =  2.557E-05

      iter #   2 total cpu time :   371.5 secs   av.it.:   7.3
      thresh= 5.057E-04 alpha_mix =  0.700 |ddv_scf|^2 =  4.406E-07

      iter #   3 total cpu time :   373.9 secs   av.it.:   7.5
      thresh= 6.638E-05 alpha_mix =  0.700 |ddv_scf|^2 =  8.376E-09

      iter #   4 total cpu time :   376.2 secs   av.it.:   7.0
      thresh= 9.152E-06 alpha_mix =  0.700 |ddv_scf|^2 =  2.313E-11

      iter #   5 total cpu time :   378.6 secs   av.it.:   7.4
      thresh= 4.809E-07 alpha_mix =  0.700 |ddv_scf|^2 =  4.929E-14

     End of self-consistent calculation

     Convergence has been achieved 


     Representation #  3 mode #   3

     Self-consistent Calculation

      iter #   1 total cpu time :   381.0 secs   av.it.:   5.7
      thresh= 1.000E-02 alpha_mix =  0.700 |ddv_scf|^2 =  2.399E-04

      iter #   2 total cpu time :   383.2 secs   av.it.:   6.6
      thresh= 1.549E-03 alpha_mix =  0.700 |ddv_scf|^2 =  1.051E-04

      iter #   3 total cpu time :   385.4 secs   av.it.:   6.5
      thresh= 1.025E-03 alpha_mix =  0.700 |ddv_scf|^2 =  1.446E-07

      iter #   4 total cpu time :   387.9 secs   av.it.:   7.5
      thresh= 3.803E-05 alpha_mix =  0.700 |ddv_scf|^2 =  4.451E-10

      iter #   5 total cpu time :   390.6 secs   av.it.:   6.2
      thresh= 2.110E-06 alpha_mix =  0.700 |ddv_scf|^2 =  1.002E-11

      iter #   6 total cpu time :   392.8 secs   av.it.:   6.6
      thresh= 3.165E-07 alpha_mix =  0.700 |ddv_scf|^2 =  2.269E-14

     End of self-consistent calculation

     Convergence has been achieved 

     Number of q in the star =    6
     List of q in the star:
          1   0.000000000   0.500000000  -0.500000000
          2  -0.500000000   0.500000000   0.000000000
          3   0.500000000   0.000000000   0.500000000
          4   0.500000000   0.000000000  -0.500000000
          5   0.000000000   0.500000000   0.500000000
          6   0.500000000   0.500000000   0.000000000

     Diagonalizing the dynamical matrix

     q = (    0.000000000   0.500000000  -0.500000000 ) 

 **************************************************************************
     freq (    1) =       1.519315 [THz] =      50.678878 [cm-1]
     freq (    2) =       3.496384 [THz] =     116.626830 [cm-1]
     freq (    3) =       7.096258 [THz] =     236.705694 [cm-1]
 **************************************************************************

     Mode symmetry, D_2h (mmm)  point group:

     freq (  1 -  1) =         50.7  [cm-1]   --> B_2u               
     freq (  2 -  2) =        116.6  [cm-1]   --> B_1u               
     freq (  3 -  3) =        236.7  [cm-1]   --> B_3u               

     Calculation of q =   -0.1250000  -0.1250000   0.2500000

   Info: using nr1, nr2, nr3 values from input

   Info: using nr1, nr2, nr3 values from input

     Parallelization info
     --------------------
     sticks:   dense  smooth     PW     G-vecs:    dense   smooth      PW
     Min         210     102     34                 3824     1354     265
     Max         211     103     35                 3825     1357     266
     Sum         841     411    139                15299     5425    1061



     bravais-lattice index     =            3
     lattice parameter (alat)  =       6.8051  a.u.
     unit-cell volume          =     157.5693 (a.u.)^3
     number of atoms/cell      =            1
     number of atomic types    =            1
     number of electrons       =         9.00
     number of Kohn-Sham states=            9
     kinetic-energy cutoff     =      40.0000  Ry
     charge density cutoff     =     320.0000  Ry
     Exchange-correlation      = SLA  PW   PBE  PBE ( 1  4  3  4 0 0)

     celldm(1)=   6.805091  celldm(2)=   0.000000  celldm(3)=   0.000000
     celldm(4)=   0.000000  celldm(5)=   0.000000  celldm(6)=   0.000000

     crystal axes: (cart. coord. in units of alat)
               a(1) = (   0.500000   0.500000   0.500000 )  
               a(2) = (  -0.500000   0.500000   0.500000 )  
               a(3) = (  -0.500000  -0.500000   0.500000 )  

     reciprocal axes: (cart. coord. in units 2 pi/alat)
               b(1) = (  1.000000  0.000000  1.000000 )  
               b(2) = ( -1.000000  1.000000  0.000000 )  
               b(3) = (  0.000000 -1.000000  1.000000 )  


     PseudoPot. # 1 for Na read from file:
     /home/s1333534/quantum_espresso/qe-6.1/pseudo/Na_pbe_v1.uspp.F.UPF
     MD5 check sum: 76a99c7e9422403d3e93cbc85ab7bccb
     Pseudo is Ultrasoft, Zval =  9.0
     Generated by new atomic code, or converted to UPF format
     Using radial grid of  819 points,  5 beta functions with: 
                l(1) =   0
                l(2) =   0
                l(3) =   1
                l(4) =   1
                l(5) =   2
     Q(r) pseudized with  8 coefficients,  rinner =    1.250   1.250   1.250
                                                       1.250   1.250

     atomic species   valence    mass     pseudopotential
        Na             9.00    22.99000     Na( 1.00)

     48 Sym. Ops., with inversion, found



   Cartesian axes

     site n.     atom                  positions (alat units)
         1           Na  tau(   1) = (   0.0000000   0.0000000   0.0000000  )

     number of k points=  2940  Marzari-Vanderbilt smearing, width (Ry)=  0.0200

     Number of k-points >= 100: set verbosity='high' to print them.

     Dense  grid:    15299 G-vectors     FFT dimensions: (  36,  36,  36)

     Smooth grid:     5425 G-vectors     FFT dimensions: (  24,  24,  24)

     Estimated max dynamical RAM per process >       1.52MB

     Estimated total allocated dynamical RAM >       6.06MB

     The potential is recalculated from file :
     ./_ph0/na.bcc.save/charge-density.dat

     Starting wfc are    5 atomic +    4 random wfc

     Band Structure Calculation
     Davidson diagonalization with overlap

     ethr =  1.11E-10,  avg # of iterations = 18.1

     total cpu time spent up to now is      148.2 secs

     End of band structure calculation

     Number of k-points >= 100: set verbosity='high' to print the bands.

     the Fermi energy is     4.1208 ev

     Writing output data file na.bcc.save

                                                                                

     bravais-lattice index     =            3
     lattice parameter (alat)  =       6.8051  a.u.
     unit-cell volume          =     157.5693 (a.u.)^3
     number of atoms/cell      =            1
     number of atomic types    =            1
     kinetic-energy cut-off    =      40.0000  Ry
     charge density cut-off    =     320.0000  Ry
     convergence threshold     =      1.0E-12
     beta                      =       0.7000
     number of iterations used =            4
     Exchange-correlation      = SLA  PW   PBE  PBE ( 1  4  3  4 0 0)


     celldm(1)=    6.80509  celldm(2)=    0.00000  celldm(3)=    0.00000
     celldm(4)=    0.00000  celldm(5)=    0.00000  celldm(6)=    0.00000

     crystal axes: (cart. coord. in units of alat)
               a(1) = (  0.5000  0.5000  0.5000 )  
               a(2) = ( -0.5000  0.5000  0.5000 )  
               a(3) = ( -0.5000 -0.5000  0.5000 )  

     reciprocal axes: (cart. coord. in units 2 pi/alat)
               b(1) = (  1.0000  0.0000  1.0000 )  
               b(2) = ( -1.0000  1.0000  0.0000 )  
               b(3) = (  0.0000 -1.0000  1.0000 )  


     Atoms inside the unit cell: 

     Cartesian axes

     site n.  atom      mass           positions (alat units)
        1     Na  22.9900   tau(    1) = (    0.00000    0.00000    0.00000  )

     Computing dynamical matrix for 
                    q = (  -0.1250000  -0.1250000   0.2500000 )

      2 Sym.Ops. (no q -> -q+G )


     G cutoff =  375.3687  (   3825 G-vectors)     FFT grid: ( 36, 36, 36)
     G cutoff =  187.6844  (   1354 G-vectors)  smooth grid: ( 24, 24, 24)

     number of k points=  2940  Marzari-Vanderbilt smearing, width (Ry)=  0.0200

     PseudoPot. # 1 for Na read from file:
     /home/s1333534/quantum_espresso/qe-6.1/pseudo/Na_pbe_v1.uspp.F.UPF
     MD5 check sum: 76a99c7e9422403d3e93cbc85ab7bccb
     Pseudo is Ultrasoft, Zval =  9.0
     Generated by new atomic code, or converted to UPF format
     Using radial grid of  819 points,  5 beta functions with: 
                l(1) =   0
                l(2) =   0
                l(3) =   1
                l(4) =   1
                l(5) =   2
     Q(r) pseudized with  8 coefficients,  rinner =    1.250   1.250   1.250
                                                       1.250   1.250

     Mode symmetry, C_s (m)     point group:


     Atomic displacements:
     There are   3 irreducible representations

     Representation     1      1 modes -A'  To be done

     Representation     2      1 modes -A'  To be done

     Representation     3      1 modes -A''  To be done



     Alpha used in Ewald sum =   2.8000
     PHONON       :  7m 7.18s CPU     7m28.81s WALL



     Representation #  1 mode #   1

     Self-consistent Calculation

      iter #   1 total cpu time :   456.6 secs   av.it.:   5.6
      thresh= 1.000E-02 alpha_mix =  0.700 |ddv_scf|^2 =  1.414E-03

      iter #   2 total cpu time :   464.1 secs   av.it.:   6.6
      thresh= 3.760E-03 alpha_mix =  0.700 |ddv_scf|^2 =  5.129E-02

      iter #   3 total cpu time :   470.5 secs   av.it.:   5.1
      thresh= 1.000E-02 alpha_mix =  0.700 |ddv_scf|^2 =  6.670E-07

      iter #   4 total cpu time :   478.9 secs   av.it.:   7.7
      thresh= 8.167E-05 alpha_mix =  0.700 |ddv_scf|^2 =  8.047E-09

      iter #   5 total cpu time :   487.8 secs   av.it.:   7.7
      thresh= 8.971E-06 alpha_mix =  0.700 |ddv_scf|^2 =  1.029E-09

      iter #   6 total cpu time :   496.1 secs   av.it.:   7.6
      thresh= 3.208E-06 alpha_mix =  0.700 |ddv_scf|^2 =  7.061E-10

      iter #   7 total cpu time :   503.3 secs   av.it.:   6.2
      thresh= 2.657E-06 alpha_mix =  0.700 |ddv_scf|^2 =  8.888E-10

      iter #   8 total cpu time :   510.6 secs   av.it.:   6.4
      thresh= 2.981E-06 alpha_mix =  0.700 |ddv_scf|^2 =  1.797E-11

      iter #   9 total cpu time :   518.5 secs   av.it.:   7.2
      thresh= 4.239E-07 alpha_mix =  0.700 |ddv_scf|^2 =  1.140E-11

      iter #  10 total cpu time :   526.1 secs   av.it.:   6.8
      thresh= 3.376E-07 alpha_mix =  0.700 |ddv_scf|^2 =  3.524E-14

     End of self-consistent calculation

     Convergence has been achieved 


     Representation #  2 mode #   2

     Self-consistent Calculation

      iter #   1 total cpu time :   534.2 secs   av.it.:   5.8
      thresh= 1.000E-02 alpha_mix =  0.700 |ddv_scf|^2 =  1.253E-02

      iter #   2 total cpu time :   541.5 secs   av.it.:   6.3
      thresh= 1.000E-02 alpha_mix =  0.700 |ddv_scf|^2 =  4.616E-01

      iter #   3 total cpu time :   548.7 secs   av.it.:   6.2
      thresh= 1.000E-02 alpha_mix =  0.700 |ddv_scf|^2 =  6.670E-06

      iter #   4 total cpu time :   556.8 secs   av.it.:   7.3
      thresh= 2.583E-04 alpha_mix =  0.700 |ddv_scf|^2 =  7.809E-08

      iter #   5 total cpu time :   565.3 secs   av.it.:   7.6
      thresh= 2.794E-05 alpha_mix =  0.700 |ddv_scf|^2 =  4.379E-09

      iter #   6 total cpu time :   573.7 secs   av.it.:   7.6
      thresh= 6.618E-06 alpha_mix =  0.700 |ddv_scf|^2 =  2.034E-10

      iter #   7 total cpu time :   582.0 secs   av.it.:   7.6
      thresh= 1.426E-06 alpha_mix =  0.700 |ddv_scf|^2 =  3.337E-09

      iter #   8 total cpu time :   588.2 secs   av.it.:   5.1
      thresh= 5.777E-06 alpha_mix =  0.700 |ddv_scf|^2 =  5.365E-12

      iter #   9 total cpu time :   595.8 secs   av.it.:   6.8
      thresh= 2.316E-07 alpha_mix =  0.700 |ddv_scf|^2 =  6.372E-14

     End of self-consistent calculation

     Convergence has been achieved 


     Representation #  3 mode #   3

     Self-consistent Calculation

      iter #   1 total cpu time :   603.7 secs   av.it.:   5.5
      thresh= 1.000E-02 alpha_mix =  0.700 |ddv_scf|^2 =  2.654E-05

      iter #   2 total cpu time :   611.9 secs   av.it.:   7.4
      thresh= 5.151E-04 alpha_mix =  0.700 |ddv_scf|^2 =  4.407E-07

      iter #   3 total cpu time :   620.3 secs   av.it.:   7.6
      thresh= 6.638E-05 alpha_mix =  0.700 |ddv_scf|^2 =  1.007E-08

      iter #   4 total cpu time :   628.4 secs   av.it.:   7.4
      thresh= 1.004E-05 alpha_mix =  0.700 |ddv_scf|^2 =  4.795E-11

      iter #   5 total cpu time :   636.7 secs   av.it.:   7.4
      thresh= 6.925E-07 alpha_mix =  0.700 |ddv_scf|^2 =  6.542E-14

     End of self-consistent calculation

     Convergence has been achieved 

     Number of q in the star =   24
     List of q in the star:
          1  -0.125000000  -0.125000000   0.250000000
          2  -0.125000000  -0.250000000   0.125000000
          3   0.125000000  -0.250000000   0.125000000
          4  -0.125000000   0.125000000  -0.250000000
          5  -0.125000000   0.250000000  -0.125000000
          6   0.125000000   0.125000000  -0.250000000
          7   0.125000000   0.250000000  -0.125000000
          8   0.125000000  -0.250000000  -0.125000000
          9  -0.250000000   0.125000000  -0.125000000
         10   0.250000000   0.125000000   0.125000000
         11   0.125000000   0.125000000   0.250000000
         12  -0.250000000  -0.125000000   0.125000000
         13   0.250000000  -0.125000000  -0.125000000
         14   0.125000000  -0.125000000  -0.250000000
         15   0.125000000  -0.125000000   0.250000000
         16   0.125000000   0.250000000   0.125000000
         17  -0.125000000  -0.125000000  -0.250000000
         18  -0.125000000   0.125000000   0.250000000
         19  -0.125000000   0.250000000   0.125000000
         20  -0.125000000  -0.250000000  -0.125000000
         21   0.250000000   0.125000000  -0.125000000
         22  -0.250000000   0.125000000   0.125000000
         23   0.250000000  -0.125000000   0.125000000
         24  -0.250000000  -0.125000000  -0.125000000

     Diagonalizing the dynamical matrix

     q = (   -0.125000000  -0.125000000   0.250000000 ) 

 **************************************************************************
     freq (    1) =       1.936625 [THz] =      64.598854 [cm-1]
     freq (    2) =       2.361816 [THz] =      78.781714 [cm-1]
     freq (    3) =       4.462346 [THz] =     148.847856 [cm-1]
 **************************************************************************

     Mode symmetry, C_s (m)     point group:

     freq (  1 -  1) =         64.6  [cm-1]   --> A'                 
     freq (  2 -  2) =         78.8  [cm-1]   --> A''                
     freq (  3 -  3) =        148.8  [cm-1]   --> A'                 

     Calculation of q =   -0.1250000  -0.2500000   0.3750000

   Info: using nr1, nr2, nr3 values from input

   Info: using nr1, nr2, nr3 values from input

     Parallelization info
     --------------------
     sticks:   dense  smooth     PW     G-vecs:    dense   smooth      PW
     Min         209     102     38                 3824     1354     301
     Max         211     103     39                 3825     1357     302
     Sum         841     411    155                15299     5425    1205



     bravais-lattice index     =            3
     lattice parameter (alat)  =       6.8051  a.u.
     unit-cell volume          =     157.5693 (a.u.)^3
     number of atoms/cell      =            1
     number of atomic types    =            1
     number of electrons       =         9.00
     number of Kohn-Sham states=            9
     kinetic-energy cutoff     =      40.0000  Ry
     charge density cutoff     =     320.0000  Ry
     Exchange-correlation      = SLA  PW   PBE  PBE ( 1  4  3  4 0 0)

     celldm(1)=   6.805091  celldm(2)=   0.000000  celldm(3)=   0.000000
     celldm(4)=   0.000000  celldm(5)=   0.000000  celldm(6)=   0.000000

     crystal axes: (cart. coord. in units of alat)
               a(1) = (   0.500000   0.500000   0.500000 )  
               a(2) = (  -0.500000   0.500000   0.500000 )  
               a(3) = (  -0.500000  -0.500000   0.500000 )  

     reciprocal axes: (cart. coord. in units 2 pi/alat)
               b(1) = (  1.000000  0.000000  1.000000 )  
               b(2) = ( -1.000000  1.000000  0.000000 )  
               b(3) = (  0.000000 -1.000000  1.000000 )  


     PseudoPot. # 1 for Na read from file:
     /home/s1333534/quantum_espresso/qe-6.1/pseudo/Na_pbe_v1.uspp.F.UPF
     MD5 check sum: 76a99c7e9422403d3e93cbc85ab7bccb
     Pseudo is Ultrasoft, Zval =  9.0
     Generated by new atomic code, or converted to UPF format
     Using radial grid of  819 points,  5 beta functions with: 
                l(1) =   0
                l(2) =   0
                l(3) =   1
                l(4) =   1
                l(5) =   2
     Q(r) pseudized with  8 coefficients,  rinner =    1.250   1.250   1.250
                                                       1.250   1.250

     atomic species   valence    mass     pseudopotential
        Na             9.00    22.99000     Na( 1.00)

     48 Sym. Ops., with inversion, found



   Cartesian axes

     site n.     atom                  positions (alat units)
         1           Na  tau(   1) = (   0.0000000   0.0000000   0.0000000  )

     number of k points=  5488  Marzari-Vanderbilt smearing, width (Ry)=  0.0200

     Number of k-points >= 100: set verbosity='high' to print them.

     Dense  grid:    15299 G-vectors     FFT dimensions: (  36,  36,  36)

     Smooth grid:     5425 G-vectors     FFT dimensions: (  24,  24,  24)

     Estimated max dynamical RAM per process >       1.52MB

     Estimated total allocated dynamical RAM >       6.06MB

     The potential is recalculated from file :
     ./_ph0/na.bcc.save/charge-density.dat

     Starting wfc are    5 atomic +    4 random wfc

     Band Structure Calculation
     Davidson diagonalization with overlap

     ethr =  1.11E-10,  avg # of iterations = 17.9

     total cpu time spent up to now is      243.5 secs

     End of band structure calculation

     Number of k-points >= 100: set verbosity='high' to print the bands.

     the Fermi energy is     4.1208 ev

     Writing output data file na.bcc.save

                                                                                

     bravais-lattice index     =            3
     lattice parameter (alat)  =       6.8051  a.u.
     unit-cell volume          =     157.5693 (a.u.)^3
     number of atoms/cell      =            1
     number of atomic types    =            1
     kinetic-energy cut-off    =      40.0000  Ry
     charge density cut-off    =     320.0000  Ry
     convergence threshold     =      1.0E-12
     beta                      =       0.7000
     number of iterations used =            4
     Exchange-correlation      = SLA  PW   PBE  PBE ( 1  4  3  4 0 0)


     celldm(1)=    6.80509  celldm(2)=    0.00000  celldm(3)=    0.00000
     celldm(4)=    0.00000  celldm(5)=    0.00000  celldm(6)=    0.00000

     crystal axes: (cart. coord. in units of alat)
               a(1) = (  0.5000  0.5000  0.5000 )  
               a(2) = ( -0.5000  0.5000  0.5000 )  
               a(3) = ( -0.5000 -0.5000  0.5000 )  

     reciprocal axes: (cart. coord. in units 2 pi/alat)
               b(1) = (  1.0000  0.0000  1.0000 )  
               b(2) = ( -1.0000  1.0000  0.0000 )  
               b(3) = (  0.0000 -1.0000  1.0000 )  


     Atoms inside the unit cell: 

     Cartesian axes

     site n.  atom      mass           positions (alat units)
        1     Na  22.9900   tau(    1) = (    0.00000    0.00000    0.00000  )

     Computing dynamical matrix for 
                    q = (  -0.1250000  -0.2500000   0.3750000 )

     No symmetry!

     G cutoff =  375.3687  (   3825 G-vectors)     FFT grid: ( 36, 36, 36)
     G cutoff =  187.6844  (   1354 G-vectors)  smooth grid: ( 24, 24, 24)

     number of k points=  5488  Marzari-Vanderbilt smearing, width (Ry)=  0.0200

     PseudoPot. # 1 for Na read from file:
     /home/s1333534/quantum_espresso/qe-6.1/pseudo/Na_pbe_v1.uspp.F.UPF
     MD5 check sum: 76a99c7e9422403d3e93cbc85ab7bccb
     Pseudo is Ultrasoft, Zval =  9.0
     Generated by new atomic code, or converted to UPF format
     Using radial grid of  819 points,  5 beta functions with: 
                l(1) =   0
                l(2) =   0
                l(3) =   1
                l(4) =   1
                l(5) =   2
     Q(r) pseudized with  8 coefficients,  rinner =    1.250   1.250   1.250
                                                       1.250   1.250

     Mode symmetry, C_1 (1)     point group:


     Atomic displacements:
     There are   3 irreducible representations

     Representation     1      1 modes -A  To be done

     Representation     2      1 modes -A  To be done

     Representation     3      1 modes -A  To be done



     Alpha used in Ewald sum =   2.8000
     PHONON       : 11m45.86s CPU    12m21.36s WALL



     Representation #  1 mode #   1

     Self-consistent Calculation

      iter #   1 total cpu time :   756.2 secs   av.it.:   5.7
      thresh= 1.000E-02 alpha_mix =  0.700 |ddv_scf|^2 =  4.184E-05

      iter #   2 total cpu time :   772.2 secs   av.it.:   7.7
      thresh= 6.469E-04 alpha_mix =  0.700 |ddv_scf|^2 =  7.494E-05

      iter #   3 total cpu time :   786.5 secs   av.it.:   6.2
      thresh= 8.657E-04 alpha_mix =  0.700 |ddv_scf|^2 =  6.026E-06

      iter #   4 total cpu time :   801.7 secs   av.it.:   7.2
      thresh= 2.455E-04 alpha_mix =  0.700 |ddv_scf|^2 =  6.360E-09

      iter #   5 total cpu time :   818.3 secs   av.it.:   7.8
      thresh= 7.975E-06 alpha_mix =  0.700 |ddv_scf|^2 =  2.107E-10

      iter #   6 total cpu time :   834.6 secs   av.it.:   7.9
      thresh= 1.452E-06 alpha_mix =  0.700 |ddv_scf|^2 =  9.937E-12

      iter #   7 total cpu time :   851.2 secs   av.it.:   8.0
      thresh= 3.152E-07 alpha_mix =  0.700 |ddv_scf|^2 =  6.445E-13

     End of self-consistent calculation

     Convergence has been achieved 


     Representation #  2 mode #   2

     Self-consistent Calculation

      iter #   1 total cpu time :   866.6 secs   av.it.:   5.8
      thresh= 1.000E-02 alpha_mix =  0.700 |ddv_scf|^2 =  6.122E-04

      iter #   2 total cpu time :   881.7 secs   av.it.:   7.0
      thresh= 2.474E-03 alpha_mix =  0.700 |ddv_scf|^2 =  2.849E-03

      iter #   3 total cpu time :   895.0 secs   av.it.:   5.8
      thresh= 5.337E-03 alpha_mix =  0.700 |ddv_scf|^2 =  5.106E-07

      iter #   4 total cpu time :   911.4 secs   av.it.:   7.8
      thresh= 7.146E-05 alpha_mix =  0.700 |ddv_scf|^2 =  9.201E-09

      iter #   5 total cpu time :   928.0 secs   av.it.:   8.1
      thresh= 9.592E-06 alpha_mix =  0.700 |ddv_scf|^2 =  1.346E-09

      iter #   6 total cpu time :   944.4 secs   av.it.:   7.8
      thresh= 3.669E-06 alpha_mix =  0.700 |ddv_scf|^2 =  2.037E-11

      iter #   7 total cpu time :   960.5 secs   av.it.:   7.7
      thresh= 4.514E-07 alpha_mix =  0.700 |ddv_scf|^2 =  1.918E-12

      iter #   8 total cpu time :   976.5 secs   av.it.:   7.6
      thresh= 1.385E-07 alpha_mix =  0.700 |ddv_scf|^2 =  2.054E-12

      iter #   9 total cpu time :   990.4 secs   av.it.:   6.3
      thresh= 1.433E-07 alpha_mix =  0.700 |ddv_scf|^2 =  5.011E-14

     End of self-consistent calculation

     Convergence has been achieved 


     Representation #  3 mode #   3

     Self-consistent Calculation

      iter #   1 total cpu time :  1005.8 secs   av.it.:   5.8
      thresh= 1.000E-02 alpha_mix =  0.700 |ddv_scf|^2 =  5.932E-04

      iter #   2 total cpu time :  1020.9 secs   av.it.:   7.0
      thresh= 2.436E-03 alpha_mix =  0.700 |ddv_scf|^2 =  2.726E-03

      iter #   3 total cpu time :  1034.0 secs   av.it.:   5.8
      thresh= 5.221E-03 alpha_mix =  0.700 |ddv_scf|^2 =  3.622E-07

      iter #   4 total cpu time :  1050.7 secs   av.it.:   7.9
      thresh= 6.018E-05 alpha_mix =  0.700 |ddv_scf|^2 =  1.201E-08

      iter #   5 total cpu time :  1067.5 secs   av.it.:   8.2
      thresh= 1.096E-05 alpha_mix =  0.700 |ddv_scf|^2 =  9.202E-10

      iter #   6 total cpu time :  1083.9 secs   av.it.:   8.0
      thresh= 3.034E-06 alpha_mix =  0.700 |ddv_scf|^2 =  2.733E-11

      iter #   7 total cpu time :  1099.8 secs   av.it.:   7.6
      thresh= 5.228E-07 alpha_mix =  0.700 |ddv_scf|^2 =  1.291E-12

      iter #   8 total cpu time :  1115.6 secs   av.it.:   7.4
      thresh= 1.136E-07 alpha_mix =  0.700 |ddv_scf|^2 =  3.566E-13

     End of self-consistent calculation

     Convergence has been achieved 

     Number of q in the star =   48
     List of q in the star:
          1  -0.125000000  -0.250000000   0.375000000
          2  -0.250000000  -0.125000000   0.375000000
          3  -0.125000000  -0.375000000   0.250000000
          4   0.125000000  -0.375000000   0.250000000
          5  -0.125000000   0.250000000  -0.375000000
          6  -0.125000000   0.375000000  -0.250000000
          7   0.125000000   0.250000000  -0.375000000
          8   0.125000000   0.375000000  -0.250000000
          9   0.250000000  -0.375000000  -0.125000000
         10  -0.375000000   0.125000000  -0.250000000
         11   0.375000000   0.125000000   0.250000000
         12   0.250000000   0.125000000   0.375000000
         13  -0.375000000  -0.125000000   0.250000000
         14   0.375000000  -0.125000000  -0.250000000
         15   0.125000000  -0.250000000  -0.375000000
         16   0.250000000  -0.125000000  -0.375000000
         17  -0.250000000   0.125000000  -0.375000000
         18  -0.375000000  -0.250000000   0.125000000
         19  -0.375000000   0.250000000  -0.125000000
         20   0.375000000   0.250000000   0.125000000
         21   0.250000000  -0.125000000   0.375000000
         22  -0.250000000   0.375000000  -0.125000000
         23   0.125000000  -0.375000000  -0.250000000
         24   0.125000000   0.375000000   0.250000000
         25   0.250000000   0.125000000  -0.375000000
         26  -0.125000000  -0.250000000  -0.375000000
         27  -0.250000000   0.125000000   0.375000000
         28  -0.125000000   0.375000000   0.250000000
         29  -0.125000000   0.250000000   0.375000000
         30   0.125000000  -0.250000000   0.375000000
         31  -0.125000000  -0.375000000  -0.250000000
         32   0.125000000   0.250000000   0.375000000
         33   0.375000000  -0.250000000  -0.125000000
         34   0.250000000   0.375000000   0.125000000
         35  -0.250000000  -0.375000000   0.125000000
         36   0.375000000   0.250000000  -0.125000000
         37  -0.375000000   0.250000000   0.125000000
         38   0.375000000  -0.250000000   0.125000000
         39  -0.375000000  -0.250000000  -0.125000000
         40  -0.250000000  -0.125000000  -0.375000000
         41   0.250000000  -0.375000000   0.125000000
         42  -0.250000000  -0.375000000  -0.125000000
         43   0.250000000   0.375000000  -0.125000000
         44  -0.250000000   0.375000000   0.125000000
         45  -0.375000000   0.125000000   0.250000000
         46  -0.375000000  -0.125000000  -0.250000000
         47   0.375000000  -0.125000000   0.250000000
         48   0.375000000   0.125000000  -0.250000000

     Diagonalizing the dynamical matrix

     q = (   -0.125000000  -0.250000000   0.375000000 ) 

 **************************************************************************
     freq (    1) =       2.451788 [THz] =      81.782848 [cm-1]
     freq (    2) =       3.476155 [THz] =     115.952055 [cm-1]
     freq (    3) =       5.924697 [THz] =     197.626625 [cm-1]
 **************************************************************************

     Mode symmetry, C_1 (1)     point group:

     freq (  1 -  1) =         81.8  [cm-1]   --> A                  
     freq (  2 -  2) =        116.0  [cm-1]   --> A                  
     freq (  3 -  3) =        197.6  [cm-1]   --> A                  

     Calculation of q =   -0.1250000   0.6250000  -0.5000000

   Info: using nr1, nr2, nr3 values from input

   Info: using nr1, nr2, nr3 values from input

     Parallelization info
     --------------------
     sticks:   dense  smooth     PW     G-vecs:    dense   smooth      PW
     Min         210     102     41                 3824     1354     322
     Max         211     103     42                 3825     1357     323
     Sum         841     411    165                15299     5425    1289



     bravais-lattice index     =            3
     lattice parameter (alat)  =       6.8051  a.u.
     unit-cell volume          =     157.5693 (a.u.)^3
     number of atoms/cell      =            1
     number of atomic types    =            1
     number of electrons       =         9.00
     number of Kohn-Sham states=            9
     kinetic-energy cutoff     =      40.0000  Ry
     charge density cutoff     =     320.0000  Ry
     Exchange-correlation      = SLA  PW   PBE  PBE ( 1  4  3  4 0 0)

     celldm(1)=   6.805091  celldm(2)=   0.000000  celldm(3)=   0.000000
     celldm(4)=   0.000000  celldm(5)=   0.000000  celldm(6)=   0.000000

     crystal axes: (cart. coord. in units of alat)
               a(1) = (   0.500000   0.500000   0.500000 )  
               a(2) = (  -0.500000   0.500000   0.500000 )  
               a(3) = (  -0.500000  -0.500000   0.500000 )  

     reciprocal axes: (cart. coord. in units 2 pi/alat)
               b(1) = (  1.000000  0.000000  1.000000 )  
               b(2) = ( -1.000000  1.000000  0.000000 )  
               b(3) = (  0.000000 -1.000000  1.000000 )  


     PseudoPot. # 1 for Na read from file:
     /home/s1333534/quantum_espresso/qe-6.1/pseudo/Na_pbe_v1.uspp.F.UPF
     MD5 check sum: 76a99c7e9422403d3e93cbc85ab7bccb
     Pseudo is Ultrasoft, Zval =  9.0
     Generated by new atomic code, or converted to UPF format
     Using radial grid of  819 points,  5 beta functions with: 
                l(1) =   0
                l(2) =   0
                l(3) =   1
                l(4) =   1
                l(5) =   2
     Q(r) pseudized with  8 coefficients,  rinner =    1.250   1.250   1.250
                                                       1.250   1.250

     atomic species   valence    mass     pseudopotential
        Na             9.00    22.99000     Na( 1.00)

     48 Sym. Ops., with inversion, found



   Cartesian axes

     site n.     atom                  positions (alat units)
         1           Na  tau(   1) = (   0.0000000   0.0000000   0.0000000  )

     number of k points=  5488  Marzari-Vanderbilt smearing, width (Ry)=  0.0200

     Number of k-points >= 100: set verbosity='high' to print them.

     Dense  grid:    15299 G-vectors     FFT dimensions: (  36,  36,  36)

     Smooth grid:     5425 G-vectors     FFT dimensions: (  24,  24,  24)

     Estimated max dynamical RAM per process >       1.52MB

     Estimated total allocated dynamical RAM >       6.06MB

     The potential is recalculated from file :
     ./_ph0/na.bcc.save/charge-density.dat

     Starting wfc are    5 atomic +    4 random wfc

     Band Structure Calculation
     Davidson diagonalization with overlap

     ethr =  1.11E-10,  avg # of iterations = 18.0

     total cpu time spent up to now is      341.3 secs

     End of band structure calculation

     Number of k-points >= 100: set verbosity='high' to print the bands.

     the Fermi energy is     4.1208 ev

     Writing output data file na.bcc.save

                                                                                

     bravais-lattice index     =            3
     lattice parameter (alat)  =       6.8051  a.u.
     unit-cell volume          =     157.5693 (a.u.)^3
     number of atoms/cell      =            1
     number of atomic types    =            1
     kinetic-energy cut-off    =      40.0000  Ry
     charge density cut-off    =     320.0000  Ry
     convergence threshold     =      1.0E-12
     beta                      =       0.7000
     number of iterations used =            4
     Exchange-correlation      = SLA  PW   PBE  PBE ( 1  4  3  4 0 0)


     celldm(1)=    6.80509  celldm(2)=    0.00000  celldm(3)=    0.00000
     celldm(4)=    0.00000  celldm(5)=    0.00000  celldm(6)=    0.00000

     crystal axes: (cart. coord. in units of alat)
               a(1) = (  0.5000  0.5000  0.5000 )  
               a(2) = ( -0.5000  0.5000  0.5000 )  
               a(3) = ( -0.5000 -0.5000  0.5000 )  

     reciprocal axes: (cart. coord. in units 2 pi/alat)
               b(1) = (  1.0000  0.0000  1.0000 )  
               b(2) = ( -1.0000  1.0000  0.0000 )  
               b(3) = (  0.0000 -1.0000  1.0000 )  


     Atoms inside the unit cell: 

     Cartesian axes

[...]
     celldm(4)=    0.00000  celldm(5)=    0.00000  celldm(6)=    0.00000

     crystal axes: (cart. coord. in units of alat)
               a(1) = (  0.5000  0.5000  0.5000 )  
               a(2) = ( -0.5000  0.5000  0.5000 )  
               a(3) = ( -0.5000 -0.5000  0.5000 )  

     reciprocal axes: (cart. coord. in units 2 pi/alat)
               b(1) = (  1.0000  0.0000  1.0000 )  
               b(2) = ( -1.0000  1.0000  0.0000 )  
               b(3) = (  0.0000 -1.0000  1.0000 )  


     Atoms inside the unit cell: 

     Cartesian axes

     site n.  atom      mass           positions (alat units)
        1     Na  22.9900   tau(    1) = (    0.00000    0.00000    0.00000  )

     Computing dynamical matrix for 
                    q = (   0.0000000   0.8750000  -0.1250000 )

      4 Sym.Ops. (no q -> -q+G )


     G cutoff =  375.3687  (   3825 G-vectors)     FFT grid: ( 36, 36, 36)
     G cutoff =  187.6844  (   1356 G-vectors)  smooth grid: ( 24, 24, 24)

     number of k points=  1568  Marzari-Vanderbilt smearing, width (Ry)=  0.0200

     PseudoPot. # 1 for Na read from file:
     /home/s1333534/quantum_espresso/qe-6.1/pseudo/Na_pbe_v1.uspp.F.UPF
     MD5 check sum: 76a99c7e9422403d3e93cbc85ab7bccb
     Pseudo is Ultrasoft, Zval =  9.0
     Generated by new atomic code, or converted to UPF format
     Using radial grid of  819 points,  5 beta functions with: 
                l(1) =   0
                l(2) =   0
                l(3) =   1
                l(4) =   1
                l(5) =   2
     Q(r) pseudized with  8 coefficients,  rinner =    1.250   1.250   1.250
                                                       1.250   1.250

     Mode symmetry, C_2v (mm2)  point group:


     Atomic displacements:
     There are   3 irreducible representations

     Representation     1      1 modes -A_1  D_1  S_1  To be done

     Representation     2      1 modes -B_1  D_3  S_3  To be done

     Representation     3      1 modes -B_2  D_4  S_4  To be done



     Alpha used in Ewald sum =   2.8000
     PHONON       :     1h15m CPU        1h21m WALL



     Representation #  1 mode #   1

     Self-consistent Calculation

      iter #   1 total cpu time :  4871.3 secs   av.it.:   5.7
      thresh= 1.000E-02 alpha_mix =  0.700 |ddv_scf|^2 =  4.948E-05

      iter #   2 total cpu time :  4876.1 secs   av.it.:   7.4
      thresh= 7.034E-04 alpha_mix =  0.700 |ddv_scf|^2 =  1.235E-06

      iter #   3 total cpu time :  4881.0 secs   av.it.:   7.6
      thresh= 1.111E-04 alpha_mix =  0.700 |ddv_scf|^2 =  4.094E-08

      iter #   4 total cpu time :  4886.0 secs   av.it.:   7.9
      thresh= 2.023E-05 alpha_mix =  0.700 |ddv_scf|^2 =  2.399E-09

      iter #   5 total cpu time :  4890.9 secs   av.it.:   7.8
      thresh= 4.898E-06 alpha_mix =  0.700 |ddv_scf|^2 =  1.824E-10

      iter #   6 total cpu time :  4895.7 secs   av.it.:   7.5
      thresh= 1.351E-06 alpha_mix =  0.700 |ddv_scf|^2 =  1.148E-12

      iter #   7 total cpu time :  4900.7 secs   av.it.:   7.7
      thresh= 1.072E-07 alpha_mix =  0.700 |ddv_scf|^2 =  4.508E-14

     End of self-consistent calculation

     Convergence has been achieved 


     Representation #  2 mode #   2

     Self-consistent Calculation

      iter #   1 total cpu time :  4905.3 secs   av.it.:   5.6
      thresh= 1.000E-02 alpha_mix =  0.700 |ddv_scf|^2 =  4.465E-05

      iter #   2 total cpu time :  4910.0 secs   av.it.:   7.2
      thresh= 6.682E-04 alpha_mix =  0.700 |ddv_scf|^2 =  4.195E-07

      iter #   3 total cpu time :  4914.7 secs   av.it.:   7.3
      thresh= 6.477E-05 alpha_mix =  0.700 |ddv_scf|^2 =  3.809E-08

      iter #   4 total cpu time :  4919.4 secs   av.it.:   7.4
      thresh= 1.952E-05 alpha_mix =  0.700 |ddv_scf|^2 =  1.715E-10

      iter #   5 total cpu time :  4924.1 secs   av.it.:   7.3
      thresh= 1.309E-06 alpha_mix =  0.700 |ddv_scf|^2 =  5.359E-14

     End of self-consistent calculation

     Convergence has been achieved 


     Representation #  3 mode #   3

     Self-consistent Calculation

      iter #   1 total cpu time :  4928.7 secs   av.it.:   5.7
      thresh= 1.000E-02 alpha_mix =  0.700 |ddv_scf|^2 =  6.251E-05

      iter #   2 total cpu time :  4933.5 secs   av.it.:   7.2
      thresh= 7.906E-04 alpha_mix =  0.700 |ddv_scf|^2 =  2.244E-06

      iter #   3 total cpu time :  4938.2 secs   av.it.:   7.2
      thresh= 1.498E-04 alpha_mix =  0.700 |ddv_scf|^2 =  5.001E-08

      iter #   4 total cpu time :  4943.0 secs   av.it.:   7.5
      thresh= 2.236E-05 alpha_mix =  0.700 |ddv_scf|^2 =  1.660E-09

      iter #   5 total cpu time :  4947.6 secs   av.it.:   7.2
      thresh= 4.074E-06 alpha_mix =  0.700 |ddv_scf|^2 =  5.117E-12

      iter #   6 total cpu time :  4952.5 secs   av.it.:   7.6
      thresh= 2.262E-07 alpha_mix =  0.700 |ddv_scf|^2 =  5.444E-15

     End of self-consistent calculation

     Convergence has been achieved 

     Number of q in the star =   12
     List of q in the star:
          1   0.000000000   0.875000000  -0.125000000
          2   0.000000000  -0.875000000  -0.125000000
          3   0.875000000   0.000000000  -0.125000000
          4  -0.875000000   0.000000000  -0.125000000
          5   0.125000000   0.000000000  -0.875000000
          6   0.125000000   0.875000000   0.000000000
          7   0.000000000   0.875000000   0.125000000
          8   0.875000000   0.000000000   0.125000000
          9   0.125000000  -0.875000000   0.000000000
         10  -0.125000000  -0.875000000   0.000000000
         11   0.875000000  -0.125000000   0.000000000
         12   0.000000000  -0.875000000   0.125000000

     Diagonalizing the dynamical matrix

     q = (    0.000000000   0.875000000  -0.125000000 ) 

 **************************************************************************
     freq (    1) =       5.431545 [THz] =     181.176837 [cm-1]
     freq (    2) =       5.540755 [THz] =     184.819690 [cm-1]
     freq (    3) =       6.058668 [THz] =     202.095408 [cm-1]
 **************************************************************************

     Mode symmetry, C_2v (mm2)  point group:

     freq (  1 -  1) =        181.2  [cm-1]   --> A_1  D_1  S_1      
     freq (  2 -  2) =        184.8  [cm-1]   --> B_1  D_3  S_3      
     freq (  3 -  3) =        202.1  [cm-1]   --> B_2  D_4  S_4      

     Calculation of q =    0.0000000   0.0000000  -1.0000000

   Info: using nr1, nr2, nr3 values from input

   Info: using nr1, nr2, nr3 values from input

     Parallelization info
     --------------------
     sticks:   dense  smooth     PW     G-vecs:    dense   smooth      PW
     Min         210     102     39                 3824     1354     312
     Max         211     103     40                 3825     1357     314
     Sum         841     411    159                15299     5425    1253



     bravais-lattice index     =            3
     lattice parameter (alat)  =       6.8051  a.u.
     unit-cell volume          =     157.5693 (a.u.)^3
     number of atoms/cell      =            1
     number of atomic types    =            1
     number of electrons       =         9.00
     number of Kohn-Sham states=            9
     kinetic-energy cutoff     =      40.0000  Ry
     charge density cutoff     =     320.0000  Ry
     Exchange-correlation      = SLA  PW   PBE  PBE ( 1  4  3  4 0 0)

     celldm(1)=   6.805091  celldm(2)=   0.000000  celldm(3)=   0.000000
     celldm(4)=   0.000000  celldm(5)=   0.000000  celldm(6)=   0.000000

     crystal axes: (cart. coord. in units of alat)
               a(1) = (   0.500000   0.500000   0.500000 )  
               a(2) = (  -0.500000   0.500000   0.500000 )  
               a(3) = (  -0.500000  -0.500000   0.500000 )  

     reciprocal axes: (cart. coord. in units 2 pi/alat)
               b(1) = (  1.000000  0.000000  1.000000 )  
               b(2) = ( -1.000000  1.000000  0.000000 )  
               b(3) = (  0.000000 -1.000000  1.000000 )  


     PseudoPot. # 1 for Na read from file:
     /home/s1333534/quantum_espresso/qe-6.1/pseudo/Na_pbe_v1.uspp.F.UPF
     MD5 check sum: 76a99c7e9422403d3e93cbc85ab7bccb
     Pseudo is Ultrasoft, Zval =  9.0
     Generated by new atomic code, or converted to UPF format
     Using radial grid of  819 points,  5 beta functions with: 
                l(1) =   0
                l(2) =   0
                l(3) =   1
                l(4) =   1
                l(5) =   2
     Q(r) pseudized with  8 coefficients,  rinner =    1.250   1.250   1.250
                                                       1.250   1.250

     atomic species   valence    mass     pseudopotential
        Na             9.00    22.99000     Na( 1.00)

     48 Sym. Ops., with inversion, found



   Cartesian axes

     site n.     atom                  positions (alat units)
         1           Na  tau(   1) = (   0.0000000   0.0000000   0.0000000  )

     number of k points=   200  Marzari-Vanderbilt smearing, width (Ry)=  0.0200

     Number of k-points >= 100: set verbosity='high' to print them.

     Dense  grid:    15299 G-vectors     FFT dimensions: (  36,  36,  36)

     Smooth grid:     5425 G-vectors     FFT dimensions: (  24,  24,  24)

     Estimated max dynamical RAM per process >       1.52MB

     Estimated total allocated dynamical RAM >       6.06MB

     The potential is recalculated from file :
     ./_ph0/na.bcc.save/charge-density.dat

     Starting wfc are    5 atomic +    4 random wfc

     Band Structure Calculation
     Davidson diagonalization with overlap

     ethr =  1.11E-10,  avg # of iterations = 18.2

     total cpu time spent up to now is     1141.3 secs

     End of band structure calculation

     Number of k-points >= 100: set verbosity='high' to print the bands.

     the Fermi energy is     4.1208 ev

     Writing output data file na.bcc.save

                                                                                

     bravais-lattice index     =            3
     lattice parameter (alat)  =       6.8051  a.u.
     unit-cell volume          =     157.5693 (a.u.)^3
     number of atoms/cell      =            1
     number of atomic types    =            1
     kinetic-energy cut-off    =      40.0000  Ry
     charge density cut-off    =     320.0000  Ry
     convergence threshold     =      1.0E-12
     beta                      =       0.7000
     number of iterations used =            4
     Exchange-correlation      = SLA  PW   PBE  PBE ( 1  4  3  4 0 0)


     celldm(1)=    6.80509  celldm(2)=    0.00000  celldm(3)=    0.00000
     celldm(4)=    0.00000  celldm(5)=    0.00000  celldm(6)=    0.00000

     crystal axes: (cart. coord. in units of alat)
               a(1) = (  0.5000  0.5000  0.5000 )  
               a(2) = ( -0.5000  0.5000  0.5000 )  
               a(3) = ( -0.5000 -0.5000  0.5000 )  

     reciprocal axes: (cart. coord. in units 2 pi/alat)
               b(1) = (  1.0000  0.0000  1.0000 )  
               b(2) = ( -1.0000  1.0000  0.0000 )  
               b(3) = (  0.0000 -1.0000  1.0000 )  


     Atoms inside the unit cell: 

     Cartesian axes

     site n.  atom      mass           positions (alat units)
        1     Na  22.9900   tau(    1) = (    0.00000    0.00000    0.00000  )

     Computing dynamical matrix for 
                    q = (   0.0000000   0.0000000  -1.0000000 )

     49 Sym.Ops. (with q -> -q+G )


     G cutoff =  375.3687  (   3825 G-vectors)     FFT grid: ( 36, 36, 36)
     G cutoff =  187.6844  (   1354 G-vectors)  smooth grid: ( 24, 24, 24)

     number of k points=   200  Marzari-Vanderbilt smearing, width (Ry)=  0.0200

     PseudoPot. # 1 for Na read from file:
     /home/s1333534/quantum_espresso/qe-6.1/pseudo/Na_pbe_v1.uspp.F.UPF
     MD5 check sum: 76a99c7e9422403d3e93cbc85ab7bccb
     Pseudo is Ultrasoft, Zval =  9.0
     Generated by new atomic code, or converted to UPF format
     Using radial grid of  819 points,  5 beta functions with: 
                l(1) =   0
                l(2) =   0
                l(3) =   1
                l(4) =   1
                l(5) =   2
     Q(r) pseudized with  8 coefficients,  rinner =    1.250   1.250   1.250
                                                       1.250   1.250

     Mode symmetry, O_h (m-3m)  point group:


     Atomic displacements:
     There are   1 irreducible representations

     Representation     1      3 modes -T_1u G_15  G_4-  To be done



     Alpha used in Ewald sum =   2.8000
     PHONON       :     1h17m CPU        1h22m WALL



     Representation #  1 modes #   1  2  3

     Self-consistent Calculation

      iter #   1 total cpu time :  4958.6 secs   av.it.:   5.7
      thresh= 1.000E-02 alpha_mix =  0.700 |ddv_scf|^2 =  5.298E-06

      iter #   2 total cpu time :  4960.7 secs   av.it.:   8.3
      thresh= 2.302E-04 alpha_mix =  0.700 |ddv_scf|^2 =  5.252E-08

      iter #   3 total cpu time :  4962.8 secs   av.it.:   8.2
      thresh= 2.292E-05 alpha_mix =  0.700 |ddv_scf|^2 =  4.580E-09

      iter #   4 total cpu time :  4964.8 secs   av.it.:   8.3
      thresh= 6.768E-06 alpha_mix =  0.700 |ddv_scf|^2 =  2.013E-11

      iter #   5 total cpu time :  4966.9 secs   av.it.:   8.2
      thresh= 4.486E-07 alpha_mix =  0.700 |ddv_scf|^2 =  5.325E-15

     End of self-consistent calculation

     Convergence has been achieved 

     Number of q in the star =    1
     List of q in the star:
          1   0.000000000   0.000000000  -1.000000000

     Diagonalizing the dynamical matrix

     q = (    0.000000000   0.000000000  -1.000000000 ) 

 **************************************************************************
     freq (    1) =       5.771530 [THz] =     192.517514 [cm-1]
     freq (    2) =       5.771530 [THz] =     192.517514 [cm-1]
     freq (    3) =       5.771530 [THz] =     192.517514 [cm-1]
 **************************************************************************

     Mode symmetry, O_h (m-3m)  point group:

     freq (  1 -  3) =        192.5  [cm-1]   --> T_1u G_15  G_4-    

     init_run     :      4.44s CPU      4.49s WALL (      28 calls)
     electrons    :   1040.68s CPU   1092.23s WALL (      28 calls)

     Called by init_run:
     wfcinit      :      0.00s CPU      0.00s WALL (      28 calls)
     potinit      :      0.30s CPU      0.30s WALL (      28 calls)

     Called by electrons:
     c_bands      :   1040.39s CPU   1091.94s WALL (      28 calls)
     v_of_rho     :      0.23s CPU      0.23s WALL (      29 calls)
     newd         :      0.25s CPU      0.27s WALL (      29 calls)

     Called by c_bands:
     init_us_2    :     68.11s CPU     64.55s WALL (  907845 calls)
     cegterg      :    957.91s CPU   1004.60s WALL (   74209 calls)

     Called by sum_band:

     Called by *egterg:
     h_psi        :   2970.35s CPU   3178.40s WALL ( 7459471 calls)
     s_psi        :    118.86s CPU    110.26s WALL (14286347 calls)
     g_psi        :      6.60s CPU      7.84s WALL ( 1137366 calls)
     cdiaghg      :    243.96s CPU    248.29s WALL ( 1200532 calls)

     Called by h_psi:
     h_psi:pot    :   2954.71s CPU   3155.21s WALL ( 7459471 calls)
     h_psi:calbec :     81.34s CPU     92.51s WALL ( 7459471 calls)
     vloc_psi     :   2809.58s CPU   2974.82s WALL ( 7459471 calls)
     add_vuspsi   :     48.79s CPU     66.50s WALL ( 7459471 calls)

     General routines
     calbec       :    170.15s CPU    180.23s WALL (15847000 calls)
     fft          :      2.33s CPU      2.46s WALL (    8962 calls)
     ffts         :      5.88s CPU      5.96s WALL (   97071 calls)
     fftw         :   3103.37s CPU   3179.69s WALL (72145493 calls)
     interpolate  :      0.35s CPU      0.41s WALL (    1243 calls)
     davcio       :     27.02s CPU     45.99s WALL ( 3436122 calls)

     Parallel routines
     fft_scatter  :    627.34s CPU    703.12s WALL (72251526 calls)

     PHONON       :     1h17m CPU        1h22m WALL

     INITIALIZATION: 
     phq_setup    :      0.76s CPU      0.77s WALL (      29 calls)
     phq_init     :     83.69s CPU     87.46s WALL (      29 calls)

     phq_init     :     83.69s CPU     87.46s WALL (      29 calls)
     init_vloc    :      0.06s CPU      0.06s WALL (      29 calls)
     init_us_1    :      2.57s CPU      2.58s WALL (      29 calls)
     newd         :      0.25s CPU      0.27s WALL (      29 calls)
     dvanqq       :      1.04s CPU      1.06s WALL (      29 calls)
     drho         :     65.72s CPU     68.62s WALL (      29 calls)

     DYNAMICAL MATRIX:
     dynmat0      :     10.56s CPU     10.94s WALL (      29 calls)
     phqscf       :   3475.55s CPU   3736.19s WALL (      29 calls)
     dynmatrix    :      0.03s CPU      0.04s WALL (      29 calls)

     phqscf       :   3475.55s CPU   3736.19s WALL (      29 calls)
     solve_linter :   3458.23s CPU   3718.00s WALL (      76 calls)
     drhodv       :     17.23s CPU     18.07s WALL (      76 calls)

     dynmat0      :     10.56s CPU     10.94s WALL (      29 calls)
     dynmat_us    :     10.52s CPU     10.90s WALL (      29 calls)
     d2ionq       :      0.02s CPU      0.02s WALL (      29 calls)

     dynmat_us    :     10.52s CPU     10.90s WALL (      29 calls)
     addusdynmat  :      0.00s CPU      0.00s WALL (      29 calls)

     phqscf       :   3475.55s CPU   3736.19s WALL (      29 calls)
     solve_linter :   3458.23s CPU   3718.00s WALL (      76 calls)

     solve_linter :   3458.23s CPU   3718.00s WALL (      76 calls)
     dvqpsi_us    :    102.90s CPU    109.50s WALL (   95049 calls)
     ortho        :     33.96s CPU     36.93s WALL (  642146 calls)
     cgsolve      :   2673.77s CPU   2853.82s WALL (  642146 calls)
     incdrhoscf   :    295.31s CPU    320.99s WALL (  642146 calls)
     addusddens   :      8.46s CPU      8.51s WALL (     570 calls)
     vpsifft      :    232.16s CPU    250.30s WALL (  547097 calls)
     dv_of_drho   :      2.56s CPU      2.67s WALL (     549 calls)
     mix_pot      :      0.36s CPU      0.69s WALL (     494 calls)
     ef_shift     :      0.01s CPU      0.01s WALL (       6 calls)
     localdos     :      0.05s CPU      0.05s WALL (       1 calls)
     psymdvscf    :      5.70s CPU      5.78s WALL (     426 calls)
     newdq        :      7.57s CPU      7.64s WALL (     494 calls)
     adddvscf     :     12.96s CPU     13.89s WALL (  547097 calls)
     drhodvus     :      0.02s CPU      0.02s WALL (      76 calls)

     dvqpsi_us    :    102.90s CPU    109.50s WALL (   95049 calls)
     dvqpsi_us_on :     19.99s CPU     20.06s WALL (   95049 calls)

     cgsolve      :   2673.77s CPU   2853.82s WALL (  642146 calls)
     ch_psi       :   2601.25s CPU   2786.95s WALL ( 6184730 calls)

     ch_psi       :   2601.25s CPU   2786.95s WALL ( 6184730 calls)
     h_psi        :   2970.35s CPU   3178.40s WALL ( 7459471 calls)
     last         :    187.50s CPU    211.92s WALL ( 6184730 calls)

     h_psi        :   2970.35s CPU   3178.40s WALL ( 7459471 calls)
     add_vuspsi   :     48.79s CPU     66.50s WALL ( 7459471 calls)

     incdrhoscf   :    295.31s CPU    320.99s WALL (  642146 calls)
     addusdbec    :     13.22s CPU     15.90s WALL (  737195 calls)

     drhodvus     :      0.02s CPU      0.02s WALL (      76 calls)

      General routines
     calbec       :    170.15s CPU    180.23s WALL (15847000 calls)
     fft          :      2.33s CPU      2.46s WALL (    8962 calls)
     ffts         :      5.88s CPU      5.96s WALL (   97071 calls)
     fftw         :   3103.37s CPU   3179.69s WALL (72145493 calls)
     davcio       :     27.02s CPU     45.99s WALL ( 3436122 calls)
     write_rec    :      0.40s CPU      3.13s WALL (     570 calls)


     PHONON       :     1h17m CPU        1h22m WALL


   This run was terminated on:  13:11:50  21Dec2017            

=------------------------------------------------------------------------------=
   JOB DONE.
=------------------------------------------------------------------------------=
