
     Program PHONON v.6.1 (svn rev. 13369) starts on 30Oct2017 at 14:27:15 

     This program is part of the open-source Quantum ESPRESSO suite
     for quantum simulation of materials; please cite
         "P. Giannozzi et al., J. Phys.:Condens. Matter 21 395502 (2009);
          URL http://www.quantum-espresso.org", 
     in publications or presentations arising from this work. More details at
     http://www.quantum-espresso.org/quote

     Parallel version (MPI), running on     1 processors

     Reading data from directory:
     ./aluminium.save

   Info: using nr1, nr2, nr3 values from input

   Info: using nr1, nr2, nr3 values from input

     IMPORTANT: XC functional enforced from input :
     Exchange-correlation      =  SLA  PW   PBX  PBC ( 1  4  3  4 0 0)
     Any further DFT definition will be discarded
     Please, verify this is what you really want

               file Al.pbe-n-kjpaw_psl.1.0.0.UPF: wavefunction(s)  3S 3P renormalized

     G-vector sticks info
     --------------------
     sticks:   dense  smooth     PW     G-vecs:    dense   smooth      PW
     Sum         241     241     85                 2445     2445     537



     Dynamical matrices for (12,12,12)  uniform grid of q-points
     (  72q-points):
       N         xq(1)         xq(2)         xq(3) 
       1   0.000000000   0.000000000   0.000000000
       2  -0.083333333   0.083333333  -0.083333333
       3  -0.166666667   0.166666667  -0.166666667
       4  -0.250000000   0.250000000  -0.250000000
       5  -0.333333333   0.333333333  -0.333333333
       6  -0.416666667   0.416666667  -0.416666667
       7   0.500000000  -0.500000000   0.500000000
       8   0.000000000   0.166666667   0.000000000
       9  -0.083333333   0.250000000  -0.083333333
      10  -0.166666667   0.333333333  -0.166666667
      11  -0.250000000   0.416666667  -0.250000000
      12  -0.333333333   0.500000000  -0.333333333
      13   0.583333333  -0.416666667   0.583333333
      14   0.500000000  -0.333333333   0.500000000
      15   0.416666667  -0.250000000   0.416666667
      16   0.333333333  -0.166666667   0.333333333
      17   0.250000000  -0.083333333   0.250000000
      18   0.166666667  -0.000000000   0.166666667
      19   0.000000000   0.333333333   0.000000000
      20  -0.083333333   0.416666667  -0.083333333
      21  -0.166666667   0.500000000  -0.166666667
      22  -0.250000000   0.583333333  -0.250000000
      23   0.666666667  -0.333333333   0.666666667
      24   0.583333333  -0.250000000   0.583333333
      25   0.500000000  -0.166666667   0.500000000
      26   0.416666667  -0.083333333   0.416666667
      27   0.333333333   0.000000000   0.333333333
      28   0.000000000   0.500000000   0.000000000
      29  -0.083333333   0.583333333  -0.083333333
      30  -0.166666667   0.666666667  -0.166666667
      31   0.750000000  -0.250000000   0.750000000
      32   0.666666667  -0.166666667   0.666666667
      33   0.583333333  -0.083333333   0.583333333
      34   0.500000000   0.000000000   0.500000000
      35   0.000000000   0.666666667   0.000000000
      36  -0.083333333   0.750000000  -0.083333333
      37   0.833333333  -0.166666667   0.833333333
      38   0.750000000  -0.083333333   0.750000000
      39   0.666666667  -0.000000000   0.666666667
      40   0.000000000   0.833333333   0.000000000
      41   0.916666667  -0.083333333   0.916666667
      42   0.833333333   0.000000000   0.833333333
      43   0.000000000  -1.000000000   0.000000000
      44  -0.166666667   0.333333333   0.000000000
      45  -0.250000000   0.416666667  -0.083333333
      46  -0.333333333   0.500000000  -0.166666667
      47   0.583333333  -0.416666667   0.750000000
      48   0.500000000  -0.333333333   0.666666667
      49  -0.166666667   0.500000000   0.000000000
      50  -0.250000000   0.583333333  -0.083333333
      51   0.666666667  -0.333333333   0.833333333
      52   0.583333333  -0.250000000   0.750000000
      53   0.500000000  -0.166666667   0.666666667
      54   0.416666667  -0.083333333   0.583333333
      55   0.333333333   0.000000000   0.500000000
      56  -0.166666667   0.666666667  -0.000000000
      57   0.750000000  -0.250000000   0.916666667
      58   0.666666667  -0.166666667   0.833333333
      59   0.583333333  -0.083333333   0.750000000
      60   0.500000000   0.000000000   0.666666667
      61   0.833333333  -0.166666667   1.000000000
      62   0.750000000  -0.083333333   0.916666667
      63   0.666666667   0.000000000   0.833333333
      64  -0.166666667  -1.000000000  -0.000000000
      65   0.666666667  -0.333333333   1.000000000
      66   0.583333333  -0.250000000   0.916666667
      67   0.500000000  -0.166666667   0.833333333
      68   0.666666667  -0.166666667   1.000000000
      69   0.583333333  -0.083333333   0.916666667
      70   0.500000000   0.000000000   0.833333333
      71  -0.333333333  -1.000000000   0.000000000
      72  -0.500000000  -1.000000000   0.000000000

     Calculation of q =    0.0000000   0.0000000   0.0000000

                                                                                

     bravais-lattice index     =            2
     lattice parameter (alat)  =       7.6456  a.u.
     unit-cell volume          =     111.7313 (a.u.)^3
     number of atoms/cell      =            1
     number of atomic types    =            1
     kinetic-energy cut-off    =      30.0000  Ry
     charge density cut-off    =     120.0000  Ry
     convergence threshold     =      1.0E-12
     beta                      =       0.7000
     number of iterations used =            4
     Exchange-correlation      =  SLA  PW   PBX  PBC ( 1  4  3  4 0 0)


     celldm(1)=    7.64560  celldm(2)=    0.00000  celldm(3)=    0.00000
     celldm(4)=    0.00000  celldm(5)=    0.00000  celldm(6)=    0.00000

     crystal axes: (cart. coord. in units of alat)
               a(1) = ( -0.5000  0.0000  0.5000 )  
               a(2) = (  0.0000  0.5000  0.5000 )  
               a(3) = ( -0.5000  0.5000  0.0000 )  

     reciprocal axes: (cart. coord. in units 2 pi/alat)
               b(1) = ( -1.0000 -1.0000  1.0000 )  
               b(2) = (  1.0000  1.0000  1.0000 )  
               b(3) = ( -1.0000  1.0000 -1.0000 )  


     Atoms inside the unit cell: 

     Cartesian axes

     site n.  atom      mass           positions (alat units)
        1     Al  26.9820   tau(    1) = (    0.00000    0.00000    0.00000  )

     Computing dynamical matrix for 
                    q = (   0.0000000   0.0000000   0.0000000 )

     49 Sym.Ops. (with q -> -q+G )


     G cutoff =  177.6825  (   2445 G-vectors)     FFT grid: ( 20, 20, 20)

     number of k points=   182  gaussian smearing, width (Ry)=  0.0500

     PseudoPot. # 1 for Al read from file:
     /home/max/quantum_espresso/qe-6.1/pseudo/Al.pbe-n-kjpaw_psl.1.0.0.UPF
     MD5 check sum: dd5adf945272da8132fc805c9e56c2d6
     Pseudo is Projector augmented-wave + core cor, Zval =  3.0
     Generated using "atomic" code by A. Dal Corso  v.5.1
     Shape of augmentation charge: PSQ
     Using radial grid of 1135 points,  6 beta functions with: 
                l(1) =   0
                l(2) =   0
                l(3) =   1
                l(4) =   1
                l(5) =   2
                l(6) =   2
     Q(r) pseudized with 0 coefficients 


     Mode symmetry, O_h (m-3m)  point group:


     Atomic displacements:
     There are   1 irreducible representations

     Representation     1      3 modes -T_1u G_15  G_4-  To be done



     Alpha used in Ewald sum =   1.4000
     PHONON       :     2.86s CPU         2.93s WALL



     Representation #  1 modes #   1  2  3

     Self-consistent Calculation

     Pert. #  1: Fermi energy shift (Ry) =     0.0000E+00     2.5077E-36
     Pert. #  2: Fermi energy shift (Ry) =    -2.7573E-25     4.3885E-37
     Pert. #  3: Fermi energy shift (Ry) =    -6.0315E-26    -1.2539E-37

      iter #   1 total cpu time :     8.3 secs   av.it.:   3.6
      thresh= 1.000E-02 alpha_mix =  0.700 |ddv_scf|^2 =  8.086E-08

     Pert. #  1: Fermi energy shift (Ry) =     9.9951E-25    -9.1835E-41
     Pert. #  2: Fermi energy shift (Ry) =     1.0340E-25    -1.5918E-39
     Pert. #  3: Fermi energy shift (Ry) =     1.7664E-25    -3.0612E-40

      iter #   2 total cpu time :    13.9 secs   av.it.:   6.6
      thresh= 2.844E-05 alpha_mix =  0.700 |ddv_scf|^2 =  5.220E-09

     Pert. #  1: Fermi energy shift (Ry) =    -3.1019E-25    -5.5101E-40
     Pert. #  2: Fermi energy shift (Ry) =     6.0315E-26     3.9795E-40
     Pert. #  3: Fermi energy shift (Ry) =    -2.1110E-25    -3.6734E-40

      iter #   3 total cpu time :    19.1 secs   av.it.:   6.6
      thresh= 7.225E-06 alpha_mix =  0.700 |ddv_scf|^2 =  1.318E-10

     Pert. #  1: Fermi energy shift (Ry) =     1.2408E-24    -9.9488E-41
     Pert. #  2: Fermi energy shift (Ry) =     1.3786E-25    -4.8979E-40
     Pert. #  3: Fermi energy shift (Ry) =    -7.7548E-26    -3.0612E-41

      iter #   4 total cpu time :    24.4 secs   av.it.:   6.2
      thresh= 1.148E-06 alpha_mix =  0.700 |ddv_scf|^2 =  1.888E-13

     End of self-consistent calculation

     Convergence has been achieved 

     Number of q in the star =    1
     List of q in the star:
          1   0.000000000   0.000000000   0.000000000

     Diagonalizing the dynamical matrix

     q = (    0.000000000   0.000000000   0.000000000 ) 

 **************************************************************************
     freq (    1) =      -0.044124 [THz] =      -1.471808 [cm-1]
     freq (    2) =      -0.044124 [THz] =      -1.471808 [cm-1]
     freq (    3) =      -0.044124 [THz] =      -1.471808 [cm-1]
 **************************************************************************

     Mode symmetry, O_h (m-3m)  point group:

     freq (  1 -  3) =         -1.5  [cm-1]   --> T_1u G_15  G_4- I  

     Calculation of q =   -0.0833333   0.0833333  -0.0833333

   Info: using nr1, nr2, nr3 values from input

   Info: using nr1, nr2, nr3 values from input

     G-vector sticks info
     --------------------
     sticks:   dense  smooth     PW     G-vecs:    dense   smooth      PW
     Sum         241     241     91                 2445     2445     609



     bravais-lattice index     =            2
     lattice parameter (alat)  =       7.6456  a.u.
     unit-cell volume          =     111.7313 (a.u.)^3
     number of atoms/cell      =            1
     number of atomic types    =            1
     number of electrons       =         3.00
     number of Kohn-Sham states=            6
     kinetic-energy cutoff     =      30.0000  Ry
     charge density cutoff     =     120.0000  Ry
     Exchange-correlation      =  SLA  PW   PBX  PBC ( 1  4  3  4 0 0)

     celldm(1)=   7.645600  celldm(2)=   0.000000  celldm(3)=   0.000000
     celldm(4)=   0.000000  celldm(5)=   0.000000  celldm(6)=   0.000000

     crystal axes: (cart. coord. in units of alat)
               a(1) = (  -0.500000   0.000000   0.500000 )  
               a(2) = (   0.000000   0.500000   0.500000 )  
               a(3) = (  -0.500000   0.500000   0.000000 )  

     reciprocal axes: (cart. coord. in units 2 pi/alat)
               b(1) = ( -1.000000 -1.000000  1.000000 )  
               b(2) = (  1.000000  1.000000  1.000000 )  
               b(3) = ( -1.000000  1.000000 -1.000000 )  


     PseudoPot. # 1 for Al read from file:
     /home/max/quantum_espresso/qe-6.1/pseudo/Al.pbe-n-kjpaw_psl.1.0.0.UPF
     MD5 check sum: dd5adf945272da8132fc805c9e56c2d6
     Pseudo is Projector augmented-wave + core cor, Zval =  3.0
     Generated using "atomic" code by A. Dal Corso  v.5.1
     Shape of augmentation charge: PSQ
     Using radial grid of 1135 points,  6 beta functions with: 
                l(1) =   0
                l(2) =   0
                l(3) =   1
                l(4) =   1
                l(5) =   2
                l(6) =   2
     Q(r) pseudized with 0 coefficients 


     atomic species   valence    mass     pseudopotential
        Al             3.00    26.98200     Al( 1.00)

     48 Sym. Ops., with inversion, found



   Cartesian axes

     site n.     atom                  positions (alat units)
         1           Al  tau(   1) = (   0.0000000   0.0000000   0.0000000  )

     number of k points=  2600  gaussian smearing, width (Ry)=  0.0500

     Number of k-points >= 100: set verbosity='high' to print them.

     Dense  grid:     2445 G-vectors     FFT dimensions: (  20,  20,  20)

     Estimated max dynamical RAM per process >       1.19MB

     The potential is recalculated from file :
     ./_ph0/aluminium.save/charge-density.dat

     Starting wfc are    4 atomic +    2 random wfc
     Checking if some PAW data can be deallocated... 

     Band Structure Calculation
     Davidson diagonalization with overlap

     ethr =  3.33E-10,  avg # of iterations = 16.2

     total cpu time spent up to now is       43.2 secs

     End of band structure calculation

     Number of k-points >= 100: set verbosity='high' to print the bands.

     the Fermi energy is     7.8704 ev

     Writing output data file aluminium.save

                                                                                

     bravais-lattice index     =            2
     lattice parameter (alat)  =       7.6456  a.u.
     unit-cell volume          =     111.7313 (a.u.)^3
     number of atoms/cell      =            1
     number of atomic types    =            1
     kinetic-energy cut-off    =      30.0000  Ry
     charge density cut-off    =     120.0000  Ry
     convergence threshold     =      1.0E-12
     beta                      =       0.7000
     number of iterations used =            4
     Exchange-correlation      =  SLA  PW   PBX  PBC ( 1  4  3  4 0 0)


     celldm(1)=    7.64560  celldm(2)=    0.00000  celldm(3)=    0.00000
     celldm(4)=    0.00000  celldm(5)=    0.00000  celldm(6)=    0.00000

     crystal axes: (cart. coord. in units of alat)
               a(1) = ( -0.5000  0.0000  0.5000 )  
               a(2) = (  0.0000  0.5000  0.5000 )  
               a(3) = ( -0.5000  0.5000  0.0000 )  

     reciprocal axes: (cart. coord. in units 2 pi/alat)
               b(1) = ( -1.0000 -1.0000  1.0000 )  
               b(2) = (  1.0000  1.0000  1.0000 )  
               b(3) = ( -1.0000  1.0000 -1.0000 )  


     Atoms inside the unit cell: 

     Cartesian axes

     site n.  atom      mass           positions (alat units)
        1     Al  26.9820   tau(    1) = (    0.00000    0.00000    0.00000  )

     Computing dynamical matrix for 
                    q = (  -0.0833333   0.0833333  -0.0833333 )

      6 Sym.Ops. (no q -> -q+G )


     G cutoff =  177.6825  (   2445 G-vectors)     FFT grid: ( 20, 20, 20)

     number of k points=  2600  gaussian smearing, width (Ry)=  0.0500

     PseudoPot. # 1 for Al read from file:
     /home/max/quantum_espresso/qe-6.1/pseudo/Al.pbe-n-kjpaw_psl.1.0.0.UPF
     MD5 check sum: dd5adf945272da8132fc805c9e56c2d6
     Pseudo is Projector augmented-wave + core cor, Zval =  3.0
     Generated using "atomic" code by A. Dal Corso  v.5.1
     Shape of augmentation charge: PSQ
     Using radial grid of 1135 points,  6 beta functions with: 
                l(1) =   0
                l(2) =   0
                l(3) =   1
                l(4) =   1
                l(5) =   2
                l(6) =   2
     Q(r) pseudized with 0 coefficients 


     Mode symmetry, C_3v (3m)   point group:


     Atomic displacements:
     There are   2 irreducible representations

     Representation     1      1 modes -A_1  L_1  To be done

     Representation     2      2 modes -E    L_3  To be done



     Alpha used in Ewald sum =   1.4000
     PHONON       :  1m15.91s CPU     1m17.92s WALL



     Representation #  1 mode #   1

     Self-consistent Calculation

      iter #   1 total cpu time :    84.6 secs   av.it.:   4.7
      thresh= 1.000E-02 alpha_mix =  0.700 |ddv_scf|^2 =  7.254E+00

      iter #   2 total cpu time :    91.6 secs   av.it.:   7.0
      thresh= 1.000E-02 alpha_mix =  0.700 |ddv_scf|^2 =  2.685E+04

      iter #   3 total cpu time :    98.0 secs   av.it.:   7.0
      thresh= 1.000E-02 alpha_mix =  0.700 |ddv_scf|^2 =  9.944E-01

      iter #   4 total cpu time :   102.5 secs   av.it.:   3.4
      thresh= 1.000E-02 alpha_mix =  0.700 |ddv_scf|^2 =  6.326E-06

      iter #   5 total cpu time :   107.9 secs   av.it.:   4.6
      thresh= 2.515E-04 alpha_mix =  0.700 |ddv_scf|^2 =  2.503E-07

      iter #   6 total cpu time :   112.5 secs   av.it.:   3.9
      thresh= 5.003E-05 alpha_mix =  0.700 |ddv_scf|^2 =  4.145E-06

      iter #   7 total cpu time :   116.5 secs   av.it.:   1.8
      thresh= 2.036E-04 alpha_mix =  0.700 |ddv_scf|^2 =  1.769E-08

      iter #   8 total cpu time :   121.6 secs   av.it.:   4.1
      thresh= 1.330E-05 alpha_mix =  0.700 |ddv_scf|^2 =  2.175E-10

      iter #   9 total cpu time :   126.2 secs   av.it.:   4.0
      thresh= 1.475E-06 alpha_mix =  0.700 |ddv_scf|^2 =  2.082E-12

      iter #  10 total cpu time :   131.3 secs   av.it.:   4.7
      thresh= 1.443E-07 alpha_mix =  0.700 |ddv_scf|^2 =  3.439E-14

     End of self-consistent calculation

     Convergence has been achieved 


     Representation #  2 modes #   2  3

     Self-consistent Calculation

      iter #   1 total cpu time :   144.2 secs   av.it.:   3.7
      thresh= 1.000E-02 alpha_mix =  0.700 |ddv_scf|^2 =  1.801E-07

      iter #   2 total cpu time :   155.7 secs   av.it.:   6.5
      thresh= 4.244E-05 alpha_mix =  0.700 |ddv_scf|^2 =  1.167E-08

      iter #   3 total cpu time :   167.4 secs   av.it.:   6.5
      thresh= 1.080E-05 alpha_mix =  0.700 |ddv_scf|^2 =  2.947E-10

      iter #   4 total cpu time :   178.7 secs   av.it.:   6.2
      thresh= 1.717E-06 alpha_mix =  0.700 |ddv_scf|^2 =  4.998E-13

     End of self-consistent calculation

     Convergence has been achieved 

     Number of q in the star =    8
     List of q in the star:
          1  -0.083333333   0.083333333  -0.083333333
          2   0.083333333  -0.083333333  -0.083333333
          3   0.083333333  -0.083333333   0.083333333
          4   0.083333333   0.083333333  -0.083333333
          5   0.083333333   0.083333333   0.083333333
          6  -0.083333333  -0.083333333  -0.083333333
          7  -0.083333333  -0.083333333   0.083333333
          8  -0.083333333   0.083333333   0.083333333

     Diagonalizing the dynamical matrix

     q = (   -0.083333333   0.083333333  -0.083333333 ) 

 **************************************************************************
     freq (    1) =       1.150983 [THz] =      38.392670 [cm-1]
     freq (    2) =       1.150983 [THz] =      38.392670 [cm-1]
     freq (    3) =       2.376635 [THz] =      79.275995 [cm-1]
 **************************************************************************

     Mode symmetry, C_3v (3m)   point group:

     freq (  1 -  2) =         38.4  [cm-1]   --> E    L_3           
     freq (  3 -  3) =         79.3  [cm-1]   --> A_1  L_1           

     Calculation of q =   -0.1666667   0.1666667  -0.1666667

   Info: using nr1, nr2, nr3 values from input

   Info: using nr1, nr2, nr3 values from input

     G-vector sticks info
     --------------------
     sticks:   dense  smooth     PW     G-vecs:    dense   smooth      PW
     Sum         241     241     91                 2445     2445     609



     bravais-lattice index     =            2
     lattice parameter (alat)  =       7.6456  a.u.
     unit-cell volume          =     111.7313 (a.u.)^3
     number of atoms/cell      =            1
     number of atomic types    =            1
     number of electrons       =         3.00
     number of Kohn-Sham states=            6
     kinetic-energy cutoff     =      30.0000  Ry
     charge density cutoff     =     120.0000  Ry
     Exchange-correlation      =  SLA  PW   PBX  PBC ( 1  4  3  4 0 0)

     celldm(1)=   7.645600  celldm(2)=   0.000000  celldm(3)=   0.000000
     celldm(4)=   0.000000  celldm(5)=   0.000000  celldm(6)=   0.000000

     crystal axes: (cart. coord. in units of alat)
               a(1) = (  -0.500000   0.000000   0.500000 )  
               a(2) = (   0.000000   0.500000   0.500000 )  
               a(3) = (  -0.500000   0.500000   0.000000 )  

     reciprocal axes: (cart. coord. in units 2 pi/alat)
               b(1) = ( -1.000000 -1.000000  1.000000 )  
               b(2) = (  1.000000  1.000000  1.000000 )  
               b(3) = ( -1.000000  1.000000 -1.000000 )  


     PseudoPot. # 1 for Al read from file:
     /home/max/quantum_espresso/qe-6.1/pseudo/Al.pbe-n-kjpaw_psl.1.0.0.UPF
     MD5 check sum: dd5adf945272da8132fc805c9e56c2d6
     Pseudo is Projector augmented-wave + core cor, Zval =  3.0
     Generated using "atomic" code by A. Dal Corso  v.5.1
     Shape of augmentation charge: PSQ
     Using radial grid of 1135 points,  6 beta functions with: 
                l(1) =   0
                l(2) =   0
                l(3) =   1
                l(4) =   1
                l(5) =   2
                l(6) =   2
     Q(r) pseudized with 0 coefficients 


     atomic species   valence    mass     pseudopotential
        Al             3.00    26.98200     Al( 1.00)

     48 Sym. Ops., with inversion, found



   Cartesian axes

     site n.     atom                  positions (alat units)
         1           Al  tau(   1) = (   0.0000000   0.0000000   0.0000000  )

     number of k points=  2600  gaussian smearing, width (Ry)=  0.0500

     Number of k-points >= 100: set verbosity='high' to print them.

     Dense  grid:     2445 G-vectors     FFT dimensions: (  20,  20,  20)

     Estimated max dynamical RAM per process >       1.19MB

     The potential is recalculated from file :
     ./_ph0/aluminium.save/charge-density.dat

     Starting wfc are    4 atomic +    2 random wfc
     Checking if some PAW data can be deallocated... 

     Band Structure Calculation
     Davidson diagonalization with overlap

     ethr =  3.33E-10,  avg # of iterations = 16.3

     total cpu time spent up to now is       94.8 secs

     End of band structure calculation

     Number of k-points >= 100: set verbosity='high' to print the bands.

     the Fermi energy is     7.8704 ev

     Writing output data file aluminium.save

                                                                                

     bravais-lattice index     =            2
     lattice parameter (alat)  =       7.6456  a.u.
     unit-cell volume          =     111.7313 (a.u.)^3
     number of atoms/cell      =            1
     number of atomic types    =            1
     kinetic-energy cut-off    =      30.0000  Ry
     charge density cut-off    =     120.0000  Ry
     convergence threshold     =      1.0E-12
     beta                      =       0.7000
     number of iterations used =            4
     Exchange-correlation      =  SLA  PW   PBX  PBC ( 1  4  3  4 0 0)


     celldm(1)=    7.64560  celldm(2)=    0.00000  celldm(3)=    0.00000
     celldm(4)=    0.00000  celldm(5)=    0.00000  celldm(6)=    0.00000

     crystal axes: (cart. coord. in units of alat)
               a(1) = ( -0.5000  0.0000  0.5000 )  
               a(2) = (  0.0000  0.5000  0.5000 )  
               a(3) = ( -0.5000  0.5000  0.0000 )  

     reciprocal axes: (cart. coord. in units 2 pi/alat)
               b(1) = ( -1.0000 -1.0000  1.0000 )  
               b(2) = (  1.0000  1.0000  1.0000 )  
               b(3) = ( -1.0000  1.0000 -1.0000 )  


     Atoms inside the unit cell: 

     Cartesian axes

     site n.  atom      mass           positions (alat units)
        1     Al  26.9820   tau(    1) = (    0.00000    0.00000    0.00000  )

     Computing dynamical matrix for 
                    q = (  -0.1666667   0.1666667  -0.1666667 )

      6 Sym.Ops. (no q -> -q+G )


     G cutoff =  177.6825  (   2445 G-vectors)     FFT grid: ( 20, 20, 20)

     number of k points=  2600  gaussian smearing, width (Ry)=  0.0500

     PseudoPot. # 1 for Al read from file:
     /home/max/quantum_espresso/qe-6.1/pseudo/Al.pbe-n-kjpaw_psl.1.0.0.UPF
     MD5 check sum: dd5adf945272da8132fc805c9e56c2d6
     Pseudo is Projector augmented-wave + core cor, Zval =  3.0
     Generated using "atomic" code by A. Dal Corso  v.5.1
     Shape of augmentation charge: PSQ
     Using radial grid of 1135 points,  6 beta functions with: 
                l(1) =   0
                l(2) =   0
                l(3) =   1
                l(4) =   1
                l(5) =   2
                l(6) =   2
     Q(r) pseudized with 0 coefficients 


     Mode symmetry, C_3v (3m)   point group:


     Atomic displacements:
     There are   2 irreducible representations

     Representation     1      1 modes -A_1  L_1  To be done

     Representation     2      2 modes -E    L_3  To be done



     Alpha used in Ewald sum =   1.4000
     PHONON       :  3m48.17s CPU     3m57.63s WALL



     Representation #  1 mode #   1

     Self-consistent Calculation

      iter #   1 total cpu time :   244.3 secs   av.it.:   4.7
      thresh= 1.000E-02 alpha_mix =  0.700 |ddv_scf|^2 =  1.030E-01

      iter #   2 total cpu time :   250.2 secs   av.it.:   6.0
      thresh= 1.000E-02 alpha_mix =  0.700 |ddv_scf|^2 =  2.229E+01

      iter #   3 total cpu time :   256.2 secs   av.it.:   6.0
      thresh= 1.000E-02 alpha_mix =  0.700 |ddv_scf|^2 =  4.859E-05

      iter #   4 total cpu time :   261.5 secs   av.it.:   4.3
      thresh= 6.970E-04 alpha_mix =  0.700 |ddv_scf|^2 =  4.548E-09

      iter #   5 total cpu time :   267.8 secs   av.it.:   6.4
      thresh= 6.744E-06 alpha_mix =  0.700 |ddv_scf|^2 =  8.662E-10

      iter #   6 total cpu time :   272.9 secs   av.it.:   4.9
      thresh= 2.943E-06 alpha_mix =  0.700 |ddv_scf|^2 =  1.272E-11

      iter #   7 total cpu time :   277.9 secs   av.it.:   5.7
      thresh= 3.567E-07 alpha_mix =  0.700 |ddv_scf|^2 =  6.963E-10

      iter #   8 total cpu time :   281.9 secs   av.it.:   3.1
      thresh= 2.639E-06 alpha_mix =  0.700 |ddv_scf|^2 =  8.427E-14

     End of self-consistent calculation

     Convergence has been achieved 


     Representation #  2 modes #   2  3

     Self-consistent Calculation

      iter #   1 total cpu time :   292.8 secs   av.it.:   3.7
      thresh= 1.000E-02 alpha_mix =  0.700 |ddv_scf|^2 =  1.751E-07

      iter #   2 total cpu time :   303.3 secs   av.it.:   6.6
      thresh= 4.185E-05 alpha_mix =  0.700 |ddv_scf|^2 =  1.146E-08

      iter #   3 total cpu time :   313.7 secs   av.it.:   6.6
      thresh= 1.071E-05 alpha_mix =  0.700 |ddv_scf|^2 =  2.906E-10

      iter #   4 total cpu time :   323.7 secs   av.it.:   6.2
      thresh= 1.705E-06 alpha_mix =  0.700 |ddv_scf|^2 =  7.286E-13

     End of self-consistent calculation

     Convergence has been achieved 

     Number of q in the star =    8
     List of q in the star:
          1  -0.166666667   0.166666667  -0.166666667
          2   0.166666667  -0.166666667  -0.166666667
          3   0.166666667  -0.166666667   0.166666667
          4   0.166666667   0.166666667  -0.166666667
          5   0.166666667   0.166666667   0.166666667
          6  -0.166666667  -0.166666667  -0.166666667
          7  -0.166666667  -0.166666667   0.166666667
          8  -0.166666667   0.166666667   0.166666667

     Diagonalizing the dynamical matrix

     q = (   -0.166666667   0.166666667  -0.166666667 ) 

 **************************************************************************
     freq (    1) =       2.269253 [THz] =      75.694122 [cm-1]
     freq (    2) =       2.269253 [THz] =      75.694122 [cm-1]
     freq (    3) =       4.637938 [THz] =     154.704944 [cm-1]
 **************************************************************************

     Mode symmetry, C_3v (3m)   point group:

     freq (  1 -  2) =         75.7  [cm-1]   --> E    L_3           
     freq (  3 -  3) =        154.7  [cm-1]   --> A_1  L_1           

     Calculation of q =   -0.2500000   0.2500000  -0.2500000

   Info: using nr1, nr2, nr3 values from input

   Info: using nr1, nr2, nr3 values from input

     G-vector sticks info
     --------------------
     sticks:   dense  smooth     PW     G-vecs:    dense   smooth      PW
     Sum         241     241     97                 2445     2445     645



     bravais-lattice index     =            2
     lattice parameter (alat)  =       7.6456  a.u.
     unit-cell volume          =     111.7313 (a.u.)^3
     number of atoms/cell      =            1
     number of atomic types    =            1
     number of electrons       =         3.00
     number of Kohn-Sham states=            6
     kinetic-energy cutoff     =      30.0000  Ry
     charge density cutoff     =     120.0000  Ry
     Exchange-correlation      =  SLA  PW   PBX  PBC ( 1  4  3  4 0 0)

     celldm(1)=   7.645600  celldm(2)=   0.000000  celldm(3)=   0.000000
     celldm(4)=   0.000000  celldm(5)=   0.000000  celldm(6)=   0.000000

     crystal axes: (cart. coord. in units of alat)
               a(1) = (  -0.500000   0.000000   0.500000 )  
               a(2) = (   0.000000   0.500000   0.500000 )  
               a(3) = (  -0.500000   0.500000   0.000000 )  

     reciprocal axes: (cart. coord. in units 2 pi/alat)
               b(1) = ( -1.000000 -1.000000  1.000000 )  
               b(2) = (  1.000000  1.000000  1.000000 )  
               b(3) = ( -1.000000  1.000000 -1.000000 )  


     PseudoPot. # 1 for Al read from file:
     /home/max/quantum_espresso/qe-6.1/pseudo/Al.pbe-n-kjpaw_psl.1.0.0.UPF
     MD5 check sum: dd5adf945272da8132fc805c9e56c2d6
     Pseudo is Projector augmented-wave + core cor, Zval =  3.0
     Generated using "atomic" code by A. Dal Corso  v.5.1
     Shape of augmentation charge: PSQ
     Using radial grid of 1135 points,  6 beta functions with: 
                l(1) =   0
                l(2) =   0
                l(3) =   1
                l(4) =   1
                l(5) =   2
                l(6) =   2
     Q(r) pseudized with 0 coefficients 


     atomic species   valence    mass     pseudopotential
        Al             3.00    26.98200     Al( 1.00)

     48 Sym. Ops., with inversion, found



   Cartesian axes

     site n.     atom                  positions (alat units)
         1           Al  tau(   1) = (   0.0000000   0.0000000   0.0000000  )

     number of k points=  2600  gaussian smearing, width (Ry)=  0.0500

     Number of k-points >= 100: set verbosity='high' to print them.

     Dense  grid:     2445 G-vectors     FFT dimensions: (  20,  20,  20)

     Estimated max dynamical RAM per process >       1.19MB

     The potential is recalculated from file :
     ./_ph0/aluminium.save/charge-density.dat

     Starting wfc are    4 atomic +    2 random wfc
     Checking if some PAW data can be deallocated... 

     Band Structure Calculation
     Davidson diagonalization with overlap

     ethr =  3.33E-10,  avg # of iterations = 16.3

     total cpu time spent up to now is      141.2 secs

     End of band structure calculation

     Number of k-points >= 100: set verbosity='high' to print the bands.

     the Fermi energy is     7.8704 ev

     Writing output data file aluminium.save

                                                                                

     bravais-lattice index     =            2
     lattice parameter (alat)  =       7.6456  a.u.
     unit-cell volume          =     111.7313 (a.u.)^3
     number of atoms/cell      =            1
     number of atomic types    =            1
     kinetic-energy cut-off    =      30.0000  Ry
     charge density cut-off    =     120.0000  Ry
     convergence threshold     =      1.0E-12
     beta                      =       0.7000
     number of iterations used =            4
     Exchange-correlation      =  SLA  PW   PBX  PBC ( 1  4  3  4 0 0)


     celldm(1)=    7.64560  celldm(2)=    0.00000  celldm(3)=    0.00000
     celldm(4)=    0.00000  celldm(5)=    0.00000  celldm(6)=    0.00000

     crystal axes: (cart. coord. in units of alat)
               a(1) = ( -0.5000  0.0000  0.5000 )  
               a(2) = (  0.0000  0.5000  0.5000 )  
               a(3) = ( -0.5000  0.5000  0.0000 )  

     reciprocal axes: (cart. coord. in units 2 pi/alat)
               b(1) = ( -1.0000 -1.0000  1.0000 )  
               b(2) = (  1.0000  1.0000  1.0000 )  
               b(3) = ( -1.0000  1.0000 -1.0000 )  


     Atoms inside the unit cell: 

     Cartesian axes

     site n.  atom      mass           positions (alat units)
        1     Al  26.9820   tau(    1) = (    0.00000    0.00000    0.00000  )

     Computing dynamical matrix for 
                    q = (  -0.2500000   0.2500000  -0.2500000 )

      6 Sym.Ops. (no q -> -q+G )


     G cutoff =  177.6825  (   2445 G-vectors)     FFT grid: ( 20, 20, 20)

     number of k points=  2600  gaussian smearing, width (Ry)=  0.0500

     PseudoPot. # 1 for Al read from file:
     /home/max/quantum_espresso/qe-6.1/pseudo/Al.pbe-n-kjpaw_psl.1.0.0.UPF
     MD5 check sum: dd5adf945272da8132fc805c9e56c2d6
     Pseudo is Projector augmented-wave + core cor, Zval =  3.0
     Generated using "atomic" code by A. Dal Corso  v.5.1
     Shape of augmentation charge: PSQ
     Using radial grid of 1135 points,  6 beta functions with: 
                l(1) =   0
                l(2) =   0
                l(3) =   1
                l(4) =   1
                l(5) =   2
                l(6) =   2
     Q(r) pseudized with 0 coefficients 


     Mode symmetry, C_3v (3m)   point group:


     Atomic displacements:
     There are   2 irreducible representations

     Representation     1      1 modes -A_1  L_1  To be done

     Representation     2      2 modes -E    L_3  To be done



     Alpha used in Ewald sum =   1.4000
     PHONON       :  6m 1.06s CPU     6m16.12s WALL



     Representation #  1 mode #   1

     Self-consistent Calculation

      iter #   1 total cpu time :   381.9 secs   av.it.:   4.7
      thresh= 1.000E-02 alpha_mix =  0.700 |ddv_scf|^2 =  7.676E-03

      iter #   2 total cpu time :   386.6 secs   av.it.:   5.5
      thresh= 8.761E-03 alpha_mix =  0.700 |ddv_scf|^2 =  2.922E-01

      iter #   3 total cpu time :   391.5 secs   av.it.:   5.3
      thresh= 1.000E-02 alpha_mix =  0.700 |ddv_scf|^2 =  1.985E-07

      iter #   4 total cpu time :   396.4 secs   av.it.:   6.1
      thresh= 4.455E-05 alpha_mix =  0.700 |ddv_scf|^2 =  6.003E-09

      iter #   5 total cpu time :   401.3 secs   av.it.:   6.0
      thresh= 7.748E-06 alpha_mix =  0.700 |ddv_scf|^2 =  1.717E-10

      iter #   6 total cpu time :   406.0 secs   av.it.:   6.0
      thresh= 1.310E-06 alpha_mix =  0.700 |ddv_scf|^2 =  7.082E-12

      iter #   7 total cpu time :   410.8 secs   av.it.:   5.9
      thresh= 2.661E-07 alpha_mix =  0.700 |ddv_scf|^2 =  6.395E-14

     End of self-consistent calculation

     Convergence has been achieved 


     Representation #  2 modes #   2  3

     Self-consistent Calculation

      iter #   1 total cpu time :   421.2 secs   av.it.:   3.7
      thresh= 1.000E-02 alpha_mix =  0.700 |ddv_scf|^2 =  1.684E-07

      iter #   2 total cpu time :   431.0 secs   av.it.:   6.7
      thresh= 4.104E-05 alpha_mix =  0.700 |ddv_scf|^2 =  1.118E-08

      iter #   3 total cpu time :   440.7 secs   av.it.:   6.6
      thresh= 1.058E-05 alpha_mix =  0.700 |ddv_scf|^2 =  2.876E-10

      iter #   4 total cpu time :   450.2 secs   av.it.:   6.3
      thresh= 1.696E-06 alpha_mix =  0.700 |ddv_scf|^2 =  1.058E-12

      iter #   5 total cpu time :   459.9 secs   av.it.:   6.7
      thresh= 1.028E-07 alpha_mix =  0.700 |ddv_scf|^2 =  1.440E-14

     End of self-consistent calculation

     Convergence has been achieved 

     Number of q in the star =    8
     List of q in the star:
          1  -0.250000000   0.250000000  -0.250000000
          2   0.250000000  -0.250000000  -0.250000000
          3   0.250000000  -0.250000000   0.250000000
          4   0.250000000   0.250000000  -0.250000000
          5   0.250000000   0.250000000   0.250000000
          6  -0.250000000  -0.250000000  -0.250000000
          7  -0.250000000  -0.250000000   0.250000000
          8  -0.250000000   0.250000000   0.250000000

     Diagonalizing the dynamical matrix

     q = (   -0.250000000   0.250000000  -0.250000000 ) 

 **************************************************************************
     freq (    1) =       3.242734 [THz] =     108.165948 [cm-1]
     freq (    2) =       3.242734 [THz] =     108.165948 [cm-1]
     freq (    3) =       6.606412 [THz] =     220.366181 [cm-1]
 **************************************************************************

     Mode symmetry, C_3v (3m)   point group:

     freq (  1 -  2) =        108.2  [cm-1]   --> E    L_3           
     freq (  3 -  3) =        220.4  [cm-1]   --> A_1  L_1           

     Calculation of q =   -0.3333333   0.3333333  -0.3333333

   Info: using nr1, nr2, nr3 values from input

   Info: using nr1, nr2, nr3 values from input

     G-vector sticks info
     --------------------
     sticks:   dense  smooth     PW     G-vecs:    dense   smooth      PW
     Sum         241     241    109                 2445     2445     701



     bravais-lattice index     =            2
     lattice parameter (alat)  =       7.6456  a.u.
     unit-cell volume          =     111.7313 (a.u.)^3
     number of atoms/cell      =            1
     number of atomic types    =            1
     number of electrons       =         3.00
     number of Kohn-Sham states=            6
     kinetic-energy cutoff     =      30.0000  Ry
     charge density cutoff     =     120.0000  Ry
     Exchange-correlation      =  SLA  PW   PBX  PBC ( 1  4  3  4 0 0)

     celldm(1)=   7.645600  celldm(2)=   0.000000  celldm(3)=   0.000000
     celldm(4)=   0.000000  celldm(5)=   0.000000  celldm(6)=   0.000000

     crystal axes: (cart. coord. in units of alat)
               a(1) = (  -0.500000   0.000000   0.500000 )  
               a(2) = (   0.000000   0.500000   0.500000 )  
               a(3) = (  -0.500000   0.500000   0.000000 )  

     reciprocal axes: (cart. coord. in units 2 pi/alat)
               b(1) = ( -1.000000 -1.000000  1.000000 )  
               b(2) = (  1.000000  1.000000  1.000000 )  
               b(3) = ( -1.000000  1.000000 -1.000000 )  


     PseudoPot. # 1 for Al read from file:
     /home/max/quantum_espresso/qe-6.1/pseudo/Al.pbe-n-kjpaw_psl.1.0.0.UPF
     MD5 check sum: dd5adf945272da8132fc805c9e56c2d6
     Pseudo is Projector augmented-wave + core cor, Zval =  3.0
     Generated using "atomic" code by A. Dal Corso  v.5.1
     Shape of augmentation charge: PSQ
     Using radial grid of 1135 points,  6 beta functions with: 
                l(1) =   0
                l(2) =   0
                l(3) =   1
                l(4) =   1
                l(5) =   2
                l(6) =   2
     Q(r) pseudized with 0 coefficients 


     atomic species   valence    mass     pseudopotential
        Al             3.00    26.98200     Al( 1.00)

     48 Sym. Ops., with inversion, found



   Cartesian axes

     site n.     atom                  positions (alat units)
         1           Al  tau(   1) = (   0.0000000   0.0000000   0.0000000  )

     number of k points=  2600  gaussian smearing, width (Ry)=  0.0500

     Number of k-points >= 100: set verbosity='high' to print them.

     Dense  grid:     2445 G-vectors     FFT dimensions: (  20,  20,  20)

     Estimated max dynamical RAM per process >       1.19MB

     The potential is recalculated from file :
     ./_ph0/aluminium.save/charge-density.dat

     Starting wfc are    4 atomic +    2 random wfc
     Checking if some PAW data can be deallocated... 

     Band Structure Calculation
     Davidson diagonalization with overlap

     ethr =  3.33E-10,  avg # of iterations = 16.2

     total cpu time spent up to now is      183.7 secs

     End of band structure calculation

     Number of k-points >= 100: set verbosity='high' to print the bands.

     the Fermi energy is     7.8704 ev

     Writing output data file aluminium.save

                                                                                

     bravais-lattice index     =            2
     lattice parameter (alat)  =       7.6456  a.u.
     unit-cell volume          =     111.7313 (a.u.)^3
     number of atoms/cell      =            1
     number of atomic types    =            1
     kinetic-energy cut-off    =      30.0000  Ry
     charge density cut-off    =     120.0000  Ry
     convergence threshold     =      1.0E-12
     beta                      =       0.7000
     number of iterations used =            4
     Exchange-correlation      =  SLA  PW   PBX  PBC ( 1  4  3  4 0 0)


     celldm(1)=    7.64560  celldm(2)=    0.00000  celldm(3)=    0.00000
     celldm(4)=    0.00000  celldm(5)=    0.00000  celldm(6)=    0.00000

     crystal axes: (cart. coord. in units of alat)
               a(1) = ( -0.5000  0.0000  0.5000 )  
               a(2) = (  0.0000  0.5000  0.5000 )  
               a(3) = ( -0.5000  0.5000  0.0000 )  

     reciprocal axes: (cart. coord. in units 2 pi/alat)
               b(1) = ( -1.0000 -1.0000  1.0000 )  
               b(2) = (  1.0000  1.0000  1.0000 )  
               b(3) = ( -1.0000  1.0000 -1.0000 )  


     Atoms inside the unit cell: 

     Cartesian axes

     site n.  atom      mass           positions (alat units)
        1     Al  26.9820   tau(    1) = (    0.00000    0.00000    0.00000  )

     Computing dynamical matrix for 
                    q = (  -0.3333333   0.3333333  -0.3333333 )

      6 Sym.Ops. (no q -> -q+G )


     G cutoff =  177.6825  (   2445 G-vectors)     FFT grid: ( 20, 20, 20)

     number of k points=  2600  gaussian smearing, width (Ry)=  0.0500

     PseudoPot. # 1 for Al read from file:
     /home/max/quantum_espresso/qe-6.1/pseudo/Al.pbe-n-kjpaw_psl.1.0.0.UPF
     MD5 check sum: dd5adf945272da8132fc805c9e56c2d6
     Pseudo is Projector augmented-wave + core cor, Zval =  3.0
     Generated using "atomic" code by A. Dal Corso  v.5.1
     Shape of augmentation charge: PSQ
     Using radial grid of 1135 points,  6 beta functions with: 
                l(1) =   0
                l(2) =   0
                l(3) =   1
                l(4) =   1
                l(5) =   2
                l(6) =   2
     Q(r) pseudized with 0 coefficients 


     Mode symmetry, C_3v (3m)   point group:


     Atomic displacements:
     There are   2 irreducible representations

     Representation     1      1 modes -A_1  L_1  To be done

     Representation     2      2 modes -E    L_3  To be done



     Alpha used in Ewald sum =   1.4000
     PHONON       :  8m 8.50s CPU     8m28.09s WALL



     Representation #  1 mode #   1

     Self-consistent Calculation

      iter #   1 total cpu time :   513.5 secs   av.it.:   4.7
      thresh= 1.000E-02 alpha_mix =  0.700 |ddv_scf|^2 =  1.084E-03

      iter #   2 total cpu time :   518.0 secs   av.it.:   5.8
      thresh= 3.292E-03 alpha_mix =  0.700 |ddv_scf|^2 =  1.111E-02

      iter #   3 total cpu time :   522.3 secs   av.it.:   4.7
      thresh= 1.000E-02 alpha_mix =  0.700 |ddv_scf|^2 =  1.662E-07

      iter #   4 total cpu time :   527.3 secs   av.it.:   6.6
      thresh= 4.076E-05 alpha_mix =  0.700 |ddv_scf|^2 =  1.074E-08

      iter #   5 total cpu time :   531.9 secs   av.it.:   6.1
      thresh= 1.036E-05 alpha_mix =  0.700 |ddv_scf|^2 =  7.545E-10

      iter #   6 total cpu time :   536.6 secs   av.it.:   6.1
      thresh= 2.747E-06 alpha_mix =  0.700 |ddv_scf|^2 =  1.738E-11

      iter #   7 total cpu time :   541.2 secs   av.it.:   5.6
      thresh= 4.168E-07 alpha_mix =  0.700 |ddv_scf|^2 =  2.509E-13

     End of self-consistent calculation

     Convergence has been achieved 


     Representation #  2 modes #   2  3

     Self-consistent Calculation

      iter #   1 total cpu time :   551.4 secs   av.it.:   3.7
      thresh= 1.000E-02 alpha_mix =  0.700 |ddv_scf|^2 =  1.619E-07

      iter #   2 total cpu time :   561.0 secs   av.it.:   6.7
      thresh= 4.024E-05 alpha_mix =  0.700 |ddv_scf|^2 =  1.088E-08

      iter #   3 total cpu time :   570.6 secs   av.it.:   6.6
      thresh= 1.043E-05 alpha_mix =  0.700 |ddv_scf|^2 =  2.880E-10

      iter #   4 total cpu time :   580.1 secs   av.it.:   6.4
      thresh= 1.697E-06 alpha_mix =  0.700 |ddv_scf|^2 =  1.415E-12

      iter #   5 total cpu time :   590.2 secs   av.it.:   6.7
      thresh= 1.190E-07 alpha_mix =  0.700 |ddv_scf|^2 =  1.160E-14

     End of self-consistent calculation

     Convergence has been achieved 

     Number of q in the star =    8
     List of q in the star:
          1  -0.333333333   0.333333333  -0.333333333
          2   0.333333333  -0.333333333  -0.333333333
          3   0.333333333  -0.333333333   0.333333333
          4   0.333333333   0.333333333  -0.333333333
          5   0.333333333   0.333333333   0.333333333
          6  -0.333333333  -0.333333333  -0.333333333
          7  -0.333333333  -0.333333333   0.333333333
          8  -0.333333333   0.333333333   0.333333333

     Diagonalizing the dynamical matrix

     q = (   -0.333333333   0.333333333  -0.333333333 ) 

 **************************************************************************
     freq (    1) =       3.864900 [THz] =     128.919191 [cm-1]
     freq (    2) =       3.864900 [THz] =     128.919191 [cm-1]
     freq (    3) =       8.208092 [THz] =     273.792475 [cm-1]
 **************************************************************************

     Mode symmetry, C_3v (3m)   point group:

     freq (  1 -  2) =        128.9  [cm-1]   --> E    L_3           
     freq (  3 -  3) =        273.8  [cm-1]   --> A_1  L_1           

     Calculation of q =   -0.4166667   0.4166667  -0.4166667

   Info: using nr1, nr2, nr3 values from input

   Info: using nr1, nr2, nr3 values from input

     G-vector sticks info
     --------------------
     sticks:   dense  smooth     PW     G-vecs:    dense   smooth      PW
     Sum         241     241    109                 2445     2445     725



     bravais-lattice index     =            2
     lattice parameter (alat)  =       7.6456  a.u.
     unit-cell volume          =     111.7313 (a.u.)^3
     number of atoms/cell      =            1
     number of atomic types    =            1
     number of electrons       =         3.00
     number of Kohn-Sham states=            6
     kinetic-energy cutoff     =      30.0000  Ry
     charge density cutoff     =     120.0000  Ry
     Exchange-correlation      =  SLA  PW   PBX  PBC ( 1  4  3  4 0 0)

     celldm(1)=   7.645600  celldm(2)=   0.000000  celldm(3)=   0.000000
     celldm(4)=   0.000000  celldm(5)=   0.000000  celldm(6)=   0.000000

     crystal axes: (cart. coord. in units of alat)
               a(1) = (  -0.500000   0.000000   0.500000 )  
               a(2) = (   0.000000   0.500000   0.500000 )  
               a(3) = (  -0.500000   0.500000   0.000000 )  

     reciprocal axes: (cart. coord. in units 2 pi/alat)
               b(1) = ( -1.000000 -1.000000  1.000000 )  
               b(2) = (  1.000000  1.000000  1.000000 )  
               b(3) = ( -1.000000  1.000000 -1.000000 )  


     PseudoPot. # 1 for Al read from file:
     /home/max/quantum_espresso/qe-6.1/pseudo/Al.pbe-n-kjpaw_psl.1.0.0.UPF
     MD5 check sum: dd5adf945272da8132fc805c9e56c2d6
     Pseudo is Projector augmented-wave + core cor, Zval =  3.0
     Generated using "atomic" code by A. Dal Corso  v.5.1
     Shape of augmentation charge: PSQ
     Using radial grid of 1135 points,  6 beta functions with: 
                l(1) =   0
                l(2) =   0
                l(3) =   1
                l(4) =   1
                l(5) =   2
                l(6) =   2
     Q(r) pseudized with 0 coefficients 


     atomic species   valence    mass     pseudopotential
        Al             3.00    26.98200     Al( 1.00)

     48 Sym. Ops., with inversion, found



   Cartesian axes

     site n.     atom                  positions (alat units)
         1           Al  tau(   1) = (   0.0000000   0.0000000   0.0000000  )

     number of k points=  2600  gaussian smearing, width (Ry)=  0.0500

     Number of k-points >= 100: set verbosity='high' to print them.

     Dense  grid:     2445 G-vectors     FFT dimensions: (  20,  20,  20)

     Estimated max dynamical RAM per process >       1.19MB

     The potential is recalculated from file :
     ./_ph0/aluminium.save/charge-density.dat

     Starting wfc are    4 atomic +    2 random wfc
     Checking if some PAW data can be deallocated... 

     Band Structure Calculation
     Davidson diagonalization with overlap

     ethr =  3.33E-10,  avg # of iterations = 16.2

     total cpu time spent up to now is      226.1 secs

     End of band structure calculation

     Number of k-points >= 100: set verbosity='high' to print the bands.

     the Fermi energy is     7.8704 ev

     Writing output data file aluminium.save

                                                                                

     bravais-lattice index     =            2
     lattice parameter (alat)  =       7.6456  a.u.
     unit-cell volume          =     111.7313 (a.u.)^3
     number of atoms/cell      =            1
     number of atomic types    =            1
     kinetic-energy cut-off    =      30.0000  Ry
     charge density cut-off    =     120.0000  Ry
     convergence threshold     =      1.0E-12
     beta                      =       0.7000
     number of iterations used =            4
     Exchange-correlation      =  SLA  PW   PBX  PBC ( 1  4  3  4 0 0)


     celldm(1)=    7.64560  celldm(2)=    0.00000  celldm(3)=    0.00000
     celldm(4)=    0.00000  celldm(5)=    0.00000  celldm(6)=    0.00000

     crystal axes: (cart. coord. in units of alat)
               a(1) = ( -0.5000  0.0000  0.5000 )  
               a(2) = (  0.0000  0.5000  0.5000 )  
               a(3) = ( -0.5000  0.5000  0.0000 )  

     reciprocal axes: (cart. coord. in units 2 pi/alat)
               b(1) = ( -1.0000 -1.0000  1.0000 )  
               b(2) = (  1.0000  1.0000  1.0000 )  
               b(3) = ( -1.0000  1.0000 -1.0000 )  


     Atoms inside the unit cell: 

     Cartesian axes

     site n.  atom      mass           positions (alat units)
        1     Al  26.9820   tau(    1) = (    0.00000    0.00000    0.00000  )

     Computing dynamical matrix for 
                    q = (  -0.4166667   0.4166667  -0.4166667 )

      6 Sym.Ops. (no q -> -q+G )


     G cutoff =  177.6825  (   2445 G-vectors)     FFT grid: ( 20, 20, 20)

     number of k points=  2600  gaussian smearing, width (Ry)=  0.0500

     PseudoPot. # 1 for Al read from file:
     /home/max/quantum_espresso/qe-6.1/pseudo/Al.pbe-n-kjpaw_psl.1.0.0.UPF
     MD5 check sum: dd5adf945272da8132fc805c9e56c2d6
     Pseudo is Projector augmented-wave + core cor, Zval =  3.0
     Generated using "atomic" code by A. Dal Corso  v.5.1
     Shape of augmentation charge: PSQ
     Using radial grid of 1135 points,  6 beta functions with: 
                l(1) =   0
                l(2) =   0
                l(3) =   1
                l(4) =   1
                l(5) =   2
                l(6) =   2
     Q(r) pseudized with 0 coefficients 


     Mode symmetry, C_3v (3m)   point group:


     Atomic displacements:
     There are   2 irreducible representations

     Representation     1      1 modes -A_1  L_1  To be done

     Representation     2      2 modes -E    L_3  To be done



     Alpha used in Ewald sum =   1.4000
     PHONON       : 10m14.61s CPU    10m38.90s WALL



     Representation #  1 mode #   1

     Self-consistent Calculation

      iter #   1 total cpu time :   644.3 secs   av.it.:   4.7
      thresh= 1.000E-02 alpha_mix =  0.700 |ddv_scf|^2 =  2.116E-04

      iter #   2 total cpu time :   648.9 secs   av.it.:   6.1
      thresh= 1.455E-03 alpha_mix =  0.700 |ddv_scf|^2 =  6.748E-04

      iter #   3 total cpu time :   653.4 secs   av.it.:   5.2
      thresh= 2.598E-03 alpha_mix =  0.700 |ddv_scf|^2 =  9.635E-07

      iter #   4 total cpu time :   658.1 secs   av.it.:   6.1
      thresh= 9.816E-05 alpha_mix =  0.700 |ddv_scf|^2 =  1.205E-08

      iter #   5 total cpu time :   662.8 secs   av.it.:   6.2
      thresh= 1.098E-05 alpha_mix =  0.700 |ddv_scf|^2 =  4.299E-10

      iter #   6 total cpu time :   667.5 secs   av.it.:   6.0
      thresh= 2.073E-06 alpha_mix =  0.700 |ddv_scf|^2 =  9.856E-12

      iter #   7 total cpu time :   671.9 secs   av.it.:   5.4
      thresh= 3.139E-07 alpha_mix =  0.700 |ddv_scf|^2 =  2.228E-15

     End of self-consistent calculation

     Convergence has been achieved 


     Representation #  2 modes #   2  3

     Self-consistent Calculation

      iter #   1 total cpu time :   682.1 secs   av.it.:   3.6
      thresh= 1.000E-02 alpha_mix =  0.700 |ddv_scf|^2 =  1.572E-07

      iter #   2 total cpu time :   691.8 secs   av.it.:   6.7
      thresh= 3.965E-05 alpha_mix =  0.700 |ddv_scf|^2 =  1.063E-08

      iter #   3 total cpu time :   701.4 secs   av.it.:   6.5
      thresh= 1.031E-05 alpha_mix =  0.700 |ddv_scf|^2 =  2.901E-10

      iter #   4 total cpu time :   710.7 secs   av.it.:   6.4
      thresh= 1.703E-06 alpha_mix =  0.700 |ddv_scf|^2 =  1.704E-12

      iter #   5 total cpu time :   720.4 secs   av.it.:   6.7
      thresh= 1.305E-07 alpha_mix =  0.700 |ddv_scf|^2 =  7.589E-15

     End of self-consistent calculation

     Convergence has been achieved 

     Number of q in the star =    8
     List of q in the star:
          1  -0.416666667   0.416666667  -0.416666667
          2   0.416666667  -0.416666667  -0.416666667
          3   0.416666667  -0.416666667   0.416666667
          4   0.416666667   0.416666667  -0.416666667
          5   0.416666667   0.416666667   0.416666667
          6  -0.416666667  -0.416666667  -0.416666667
          7  -0.416666667  -0.416666667   0.416666667
          8  -0.416666667   0.416666667   0.416666667

     Diagonalizing the dynamical matrix

     q = (   -0.416666667   0.416666667  -0.416666667 ) 

 **************************************************************************
     freq (    1) =       4.100652 [THz] =     136.783018 [cm-1]
     freq (    2) =       4.100652 [THz] =     136.783018 [cm-1]
     freq (    3) =       9.172481 [THz] =     305.961025 [cm-1]
 **************************************************************************

     Mode symmetry, C_3v (3m)   point group:

     freq (  1 -  2) =        136.8  [cm-1]   --> E    L_3           
     freq (  3 -  3) =        306.0  [cm-1]   --> A_1  L_1           

     Calculation of q =    0.5000000  -0.5000000   0.5000000

   Info: using nr1, nr2, nr3 values from input

   Info: using nr1, nr2, nr3 values from input

     G-vector sticks info
     --------------------
     sticks:   dense  smooth     PW     G-vecs:    dense   smooth      PW
     Sum         241     241    109                 2445     2445     749



     bravais-lattice index     =            2
     lattice parameter (alat)  =       7.6456  a.u.
     unit-cell volume          =     111.7313 (a.u.)^3
     number of atoms/cell      =            1
     number of atomic types    =            1
     number of electrons       =         3.00
     number of Kohn-Sham states=            6
     kinetic-energy cutoff     =      30.0000  Ry
     charge density cutoff     =     120.0000  Ry
     Exchange-correlation      =  SLA  PW   PBX  PBC ( 1  4  3  4 0 0)

     celldm(1)=   7.645600  celldm(2)=   0.000000  celldm(3)=   0.000000
     celldm(4)=   0.000000  celldm(5)=   0.000000  celldm(6)=   0.000000

     crystal axes: (cart. coord. in units of alat)
               a(1) = (  -0.500000   0.000000   0.500000 )  
               a(2) = (   0.000000   0.500000   0.500000 )  
               a(3) = (  -0.500000   0.500000   0.000000 )  

     reciprocal axes: (cart. coord. in units 2 pi/alat)
               b(1) = ( -1.000000 -1.000000  1.000000 )  
               b(2) = (  1.000000  1.000000  1.000000 )  
               b(3) = ( -1.000000  1.000000 -1.000000 )  


     PseudoPot. # 1 for Al read from file:
     /home/max/quantum_espresso/qe-6.1/pseudo/Al.pbe-n-kjpaw_psl.1.0.0.UPF
     MD5 check sum: dd5adf945272da8132fc805c9e56c2d6
     Pseudo is Projector augmented-wave + core cor, Zval =  3.0
     Generated using "atomic" code by A. Dal Corso  v.5.1
     Shape of augmentation charge: PSQ
     Using radial grid of 1135 points,  6 beta functions with: 
                l(1) =   0
                l(2) =   0
                l(3) =   1
                l(4) =   1
                l(5) =   2
                l(6) =   2
     Q(r) pseudized with 0 coefficients 


     atomic species   valence    mass     pseudopotential
        Al             3.00    26.98200     Al( 1.00)

     48 Sym. Ops., with inversion, found



   Cartesian axes

     site n.     atom                  positions (alat units)
         1           Al  tau(   1) = (   0.0000000   0.0000000   0.0000000  )

     number of k points=  1300  gaussian smearing, width (Ry)=  0.0500

     Number of k-points >= 100: set verbosity='high' to print them.

     Dense  grid:     2445 G-vectors     FFT dimensions: (  20,  20,  20)

     Estimated max dynamical RAM per process >       1.19MB

     The potential is recalculated from file :
     ./_ph0/aluminium.save/charge-density.dat

     Starting wfc are    4 atomic +    2 random wfc
     Checking if some PAW data can be deallocated... 

     Band Structure Calculation
     Davidson diagonalization with overlap

     ethr =  3.33E-10,  avg # of iterations = 16.3

     total cpu time spent up to now is      249.3 secs

     End of band structure calculation

     Number of k-points >= 100: set verbosity='high' to print the bands.

     the Fermi energy is     7.8704 ev

     Writing output data file aluminium.save

                                                                                

     bravais-lattice index     =            2
     lattice parameter (alat)  =       7.6456  a.u.
     unit-cell volume          =     111.7313 (a.u.)^3
     number of atoms/cell      =            1
     number of atomic types    =            1
     kinetic-energy cut-off    =      30.0000  Ry
     charge density cut-off    =     120.0000  Ry
     convergence threshold     =      1.0E-12
     beta                      =       0.7000
     number of iterations used =            4
     Exchange-correlation      =  SLA  PW   PBX  PBC ( 1  4  3  4 0 0)


     celldm(1)=    7.64560  celldm(2)=    0.00000  celldm(3)=    0.00000
     celldm(4)=    0.00000  celldm(5)=    0.00000  celldm(6)=    0.00000

     crystal axes: (cart. coord. in units of alat)
               a(1) = ( -0.5000  0.0000  0.5000 )  
               a(2) = (  0.0000  0.5000  0.5000 )  
               a(3) = ( -0.5000  0.5000  0.0000 )  

     reciprocal axes: (cart. coord. in units 2 pi/alat)
               b(1) = ( -1.0000 -1.0000  1.0000 )  
               b(2) = (  1.0000  1.0000  1.0000 )  
               b(3) = ( -1.0000  1.0000 -1.0000 )  


     Atoms inside the unit cell: 

     Cartesian axes

     site n.  atom      mass           positions (alat units)
        1     Al  26.9820   tau(    1) = (    0.00000    0.00000    0.00000  )

     Computing dynamical matrix for 
                    q = (   0.5000000  -0.5000000   0.5000000 )

     13 Sym.Ops. (with q -> -q+G )


     G cutoff =  177.6825  (   2445 G-vectors)     FFT grid: ( 20, 20, 20)

     number of k points=  1300  gaussian smearing, width (Ry)=  0.0500

     PseudoPot. # 1 for Al read from file:
     /home/max/quantum_espresso/qe-6.1/pseudo/Al.pbe-n-kjpaw_psl.1.0.0.UPF
     MD5 check sum: dd5adf945272da8132fc805c9e56c2d6
     Pseudo is Projector augmented-wave + core cor, Zval =  3.0
     Generated using "atomic" code by A. Dal Corso  v.5.1
     Shape of augmentation charge: PSQ
     Using radial grid of 1135 points,  6 beta functions with: 
                l(1) =   0
                l(2) =   0
                l(3) =   1
                l(4) =   1
                l(5) =   2
                l(6) =   2
     Q(r) pseudized with 0 coefficients 


     Mode symmetry, D_3d (-3m)  point group:


     Atomic displacements:
     There are   2 irreducible representations

     Representation     1      1 modes -A_2u L_2'  To be done

     Representation     2      2 modes -E_u  L_3'  To be done



     Alpha used in Ewald sum =   1.4000
     PHONON       : 11m57.49s CPU    12m25.69s WALL



     Representation #  1 mode #   1

     Self-consistent Calculation

      iter #   1 total cpu time :   748.8 secs   av.it.:   4.7
      thresh= 1.000E-02 alpha_mix =  0.700 |ddv_scf|^2 =  8.477E-05

      iter #   2 total cpu time :   751.9 secs   av.it.:   6.3
      thresh= 9.207E-04 alpha_mix =  0.700 |ddv_scf|^2 =  9.121E-05

      iter #   3 total cpu time :   754.7 secs   av.it.:   5.9
      thresh= 9.550E-04 alpha_mix =  0.700 |ddv_scf|^2 =  2.384E-08

      iter #   4 total cpu time :   757.7 secs   av.it.:   6.2
      thresh= 1.544E-05 alpha_mix =  0.700 |ddv_scf|^2 =  7.676E-10

      iter #   5 total cpu time :   760.5 secs   av.it.:   5.8
      thresh= 2.771E-06 alpha_mix =  0.700 |ddv_scf|^2 =  1.189E-11

      iter #   6 total cpu time :   763.4 secs   av.it.:   5.3
      thresh= 3.448E-07 alpha_mix =  0.700 |ddv_scf|^2 =  3.002E-15

     End of self-consistent calculation

     Convergence has been achieved 


     Representation #  2 modes #   2  3

     Self-consistent Calculation

      iter #   1 total cpu time :   769.6 secs   av.it.:   3.6
      thresh= 1.000E-02 alpha_mix =  0.700 |ddv_scf|^2 =  1.554E-07

      iter #   2 total cpu time :   775.5 secs   av.it.:   6.6
      thresh= 3.942E-05 alpha_mix =  0.700 |ddv_scf|^2 =  1.055E-08

      iter #   3 total cpu time :   781.4 secs   av.it.:   6.4
      thresh= 1.027E-05 alpha_mix =  0.700 |ddv_scf|^2 =  2.879E-10

      iter #   4 total cpu time :   787.1 secs   av.it.:   6.3
      thresh= 1.697E-06 alpha_mix =  0.700 |ddv_scf|^2 =  1.744E-12

      iter #   5 total cpu time :   792.9 secs   av.it.:   6.6
      thresh= 1.321E-07 alpha_mix =  0.700 |ddv_scf|^2 =  8.232E-15

     End of self-consistent calculation

     Convergence has been achieved 

     Number of q in the star =    4
     List of q in the star:
          1   0.500000000  -0.500000000   0.500000000
          2   0.500000000   0.500000000   0.500000000
          3  -0.500000000   0.500000000   0.500000000
          4   0.500000000   0.500000000  -0.500000000

     Diagonalizing the dynamical matrix

     q = (    0.500000000  -0.500000000   0.500000000 ) 

 **************************************************************************
     freq (    1) =       4.115951 [THz] =     137.293345 [cm-1]
     freq (    2) =       4.115951 [THz] =     137.293345 [cm-1]
     freq (    3) =       9.489285 [THz] =     316.528464 [cm-1]
 **************************************************************************

     Mode symmetry, D_3d (-3m)  point group:

     freq (  1 -  2) =        137.3  [cm-1]   --> E_u  L_3'          
     freq (  3 -  3) =        316.5  [cm-1]   --> A_2u L_2'          

     Calculation of q =    0.0000000   0.1666667   0.0000000

   Info: using nr1, nr2, nr3 values from input

   Info: using nr1, nr2, nr3 values from input

     G-vector sticks info
     --------------------
     sticks:   dense  smooth     PW     G-vecs:    dense   smooth      PW
     Sum         241     241     91                 2445     2445     609



     bravais-lattice index     =            2
     lattice parameter (alat)  =       7.6456  a.u.
     unit-cell volume          =     111.7313 (a.u.)^3
     number of atoms/cell      =            1
     number of atomic types    =            1
     number of electrons       =         3.00
     number of Kohn-Sham states=            6
     kinetic-energy cutoff     =      30.0000  Ry
     charge density cutoff     =     120.0000  Ry
     Exchange-correlation      =  SLA  PW   PBX  PBC ( 1  4  3  4 0 0)

     celldm(1)=   7.645600  celldm(2)=   0.000000  celldm(3)=   0.000000
     celldm(4)=   0.000000  celldm(5)=   0.000000  celldm(6)=   0.000000

     crystal axes: (cart. coord. in units of alat)
               a(1) = (  -0.500000   0.000000   0.500000 )  
               a(2) = (   0.000000   0.500000   0.500000 )  
               a(3) = (  -0.500000   0.500000   0.000000 )  

     reciprocal axes: (cart. coord. in units 2 pi/alat)
               b(1) = ( -1.000000 -1.000000  1.000000 )  
               b(2) = (  1.000000  1.000000  1.000000 )  
               b(3) = ( -1.000000  1.000000 -1.000000 )  


     PseudoPot. # 1 for Al read from file:
     /home/max/quantum_espresso/qe-6.1/pseudo/Al.pbe-n-kjpaw_psl.1.0.0.UPF
     MD5 check sum: dd5adf945272da8132fc805c9e56c2d6
     Pseudo is Projector augmented-wave + core cor, Zval =  3.0
     Generated using "atomic" code by A. Dal Corso  v.5.1
     Shape of augmentation charge: PSQ
     Using radial grid of 1135 points,  6 beta functions with: 
                l(1) =   0
                l(2) =   0
                l(3) =   1
                l(4) =   1
                l(5) =   2
                l(6) =   2
     Q(r) pseudized with 0 coefficients 


     atomic species   valence    mass     pseudopotential
        Al             3.00    26.98200     Al( 1.00)

     48 Sym. Ops., with inversion, found



   Cartesian axes

     site n.     atom                  positions (alat units)
         1           Al  tau(   1) = (   0.0000000   0.0000000   0.0000000  )

     number of k points=  1872  gaussian smearing, width (Ry)=  0.0500

     Number of k-points >= 100: set verbosity='high' to print them.

     Dense  grid:     2445 G-vectors     FFT dimensions: (  20,  20,  20)

     Estimated max dynamical RAM per process >       1.19MB

     The potential is recalculated from file :
     ./_ph0/aluminium.save/charge-density.dat

     Starting wfc are    4 atomic +    2 random wfc
     Checking if some PAW data can be deallocated... 

     Band Structure Calculation
     Davidson diagonalization with overlap

     ethr =  3.33E-10,  avg # of iterations = 16.1

     total cpu time spent up to now is      278.8 secs

     End of band structure calculation

     Number of k-points >= 100: set verbosity='high' to print the bands.

     the Fermi energy is     7.8704 ev

     Writing output data file aluminium.save

                                                                                

     bravais-lattice index     =            2
     lattice parameter (alat)  =       7.6456  a.u.
     unit-cell volume          =     111.7313 (a.u.)^3
     number of atoms/cell      =            1
     number of atomic types    =            1
     kinetic-energy cut-off    =      30.0000  Ry
     charge density cut-off    =     120.0000  Ry
     convergence threshold     =      1.0E-12
     beta                      =       0.7000
     number of iterations used =            4
     Exchange-correlation      =  SLA  PW   PBX  PBC ( 1  4  3  4 0 0)


     celldm(1)=    7.64560  celldm(2)=    0.00000  celldm(3)=    0.00000
     celldm(4)=    0.00000  celldm(5)=    0.00000  celldm(6)=    0.00000

     crystal axes: (cart. coord. in units of alat)
               a(1) = ( -0.5000  0.0000  0.5000 )  
               a(2) = (  0.0000  0.5000  0.5000 )  
               a(3) = ( -0.5000  0.5000  0.0000 )  

     reciprocal axes: (cart. coord. in units 2 pi/alat)
               b(1) = ( -1.0000 -1.0000  1.0000 )  
               b(2) = (  1.0000  1.0000  1.0000 )  
               b(3) = ( -1.0000  1.0000 -1.0000 )  


     Atoms inside the unit cell: 

     Cartesian axes

     site n.  atom      mass           positions (alat units)
        1     Al  26.9820   tau(    1) = (    0.00000    0.00000    0.00000  )

     Computing dynamical matrix for 
                    q = (   0.0000000   0.1666667   0.0000000 )

      8 Sym.Ops. (no q -> -q+G )


     G cutoff =  177.6825  (   2445 G-vectors)     FFT grid: ( 20, 20, 20)

     number of k points=  1872  gaussian smearing, width (Ry)=  0.0500

     PseudoPot. # 1 for Al read from file:
     /home/max/quantum_espresso/qe-6.1/pseudo/Al.pbe-n-kjpaw_psl.1.0.0.UPF
     MD5 check sum: dd5adf945272da8132fc805c9e56c2d6
     Pseudo is Projector augmented-wave + core cor, Zval =  3.0
     Generated using "atomic" code by A. Dal Corso  v.5.1
     Shape of augmentation charge: PSQ
     Using radial grid of 1135 points,  6 beta functions with: 
                l(1) =   0
                l(2) =   0
                l(3) =   1
                l(4) =   1
                l(5) =   2
                l(6) =   2
     Q(r) pseudized with 0 coefficients 


     Mode symmetry, C_4v (4mm)  point group:


     Atomic displacements:
     There are   2 irreducible representations

     Representation     1      1 modes -A_1  G_1 D_1  To be done

     Representation     2      2 modes -E    G_5 D_5  To be done



     Alpha used in Ewald sum =   1.4000
     PHONON       : 13m16.80s CPU    13m47.48s WALL



     Representation #  1 mode #   1

     Self-consistent Calculation

      iter #   1 total cpu time :   831.5 secs   av.it.:   4.6
      thresh= 1.000E-02 alpha_mix =  0.700 |ddv_scf|^2 =  3.008E+00

      iter #   2 total cpu time :   835.4 secs   av.it.:   6.6
      thresh= 1.000E-02 alpha_mix =  0.700 |ddv_scf|^2 =  6.177E+03

      iter #   3 total cpu time :   839.3 secs   av.it.:   6.6
      thresh= 1.000E-02 alpha_mix =  0.700 |ddv_scf|^2 =  1.270E-01

      iter #   4 total cpu time :   842.1 secs   av.it.:   2.8
      thresh= 1.000E-02 alpha_mix =  0.700 |ddv_scf|^2 =  2.980E-07

      iter #   5 total cpu time :   845.7 secs   av.it.:   5.8
      thresh= 5.459E-05 alpha_mix =  0.700 |ddv_scf|^2 =  1.100E-07

      iter #   6 total cpu time :   848.9 secs   av.it.:   3.8
      thresh= 3.316E-05 alpha_mix =  0.700 |ddv_scf|^2 =  1.398E-08

      iter #   7 total cpu time :   851.8 secs   av.it.:   3.0
      thresh= 1.182E-05 alpha_mix =  0.700 |ddv_scf|^2 =  2.656E-08

      iter #   8 total cpu time :   854.6 secs   av.it.:   2.9
      thresh= 1.630E-05 alpha_mix =  0.700 |ddv_scf|^2 =  1.673E-11

      iter #   9 total cpu time :   858.0 secs   av.it.:   5.0
      thresh= 4.091E-07 alpha_mix =  0.700 |ddv_scf|^2 =  1.743E-12

      iter #  10 total cpu time :   861.1 secs   av.it.:   4.2
      thresh= 1.320E-07 alpha_mix =  0.700 |ddv_scf|^2 =  5.065E-14

     End of self-consistent calculation

     Convergence has been achieved 


     Representation #  2 modes #   2  3

     Self-consistent Calculation

      iter #   1 total cpu time :   868.9 secs   av.it.:   3.6
      thresh= 1.000E-02 alpha_mix =  0.700 |ddv_scf|^2 =  1.764E-07

      iter #   2 total cpu time :   876.4 secs   av.it.:   6.5
      thresh= 4.199E-05 alpha_mix =  0.700 |ddv_scf|^2 =  1.171E-08

      iter #   3 total cpu time :   883.9 secs   av.it.:   6.5
      thresh= 1.082E-05 alpha_mix =  0.700 |ddv_scf|^2 =  2.989E-10

      iter #   4 total cpu time :   891.3 secs   av.it.:   6.1
      thresh= 1.729E-06 alpha_mix =  0.700 |ddv_scf|^2 =  8.209E-13

     End of self-consistent calculation

     Convergence has been achieved 

     Number of q in the star =    6
     List of q in the star:
          1   0.000000000   0.166666667   0.000000000
          2   0.000000000  -0.166666667   0.000000000
          3   0.166666667   0.000000000   0.000000000
          4   0.000000000   0.000000000   0.166666667
          5   0.000000000   0.000000000  -0.166666667
          6  -0.166666667   0.000000000   0.000000000

     Diagonalizing the dynamical matrix

     q = (    0.000000000   0.166666667   0.000000000 ) 

 **************************************************************************
     freq (    1) =       1.448629 [THz] =      48.321046 [cm-1]
     freq (    2) =       1.448629 [THz] =      48.321046 [cm-1]
     freq (    3) =       2.626444 [THz] =      87.608728 [cm-1]
 **************************************************************************

     Mode symmetry, C_4v (4mm)  point group:

     freq (  1 -  2) =         48.3  [cm-1]   --> E    G_5 D_5       
     freq (  3 -  3) =         87.6  [cm-1]   --> A_1  G_1 D_1       

     Calculation of q =   -0.0833333   0.2500000  -0.0833333

   Info: using nr1, nr2, nr3 values from input

   Info: using nr1, nr2, nr3 values from input

     G-vector sticks info
     --------------------
     sticks:   dense  smooth     PW     G-vecs:    dense   smooth      PW
     Sum         241     241     91                 2445     2445     609



     bravais-lattice index     =            2
     lattice parameter (alat)  =       7.6456  a.u.
     unit-cell volume          =     111.7313 (a.u.)^3
     number of atoms/cell      =            1
     number of atomic types    =            1
     number of electrons       =         3.00
     number of Kohn-Sham states=            6
     kinetic-energy cutoff     =      30.0000  Ry
     charge density cutoff     =     120.0000  Ry
     Exchange-correlation      =  SLA  PW   PBX  PBC ( 1  4  3  4 0 0)

     celldm(1)=   7.645600  celldm(2)=   0.000000  celldm(3)=   0.000000
     celldm(4)=   0.000000  celldm(5)=   0.000000  celldm(6)=   0.000000

     crystal axes: (cart. coord. in units of alat)
               a(1) = (  -0.500000   0.000000   0.500000 )  
               a(2) = (   0.000000   0.500000   0.500000 )  
               a(3) = (  -0.500000   0.500000   0.000000 )  

     reciprocal axes: (cart. coord. in units 2 pi/alat)
               b(1) = ( -1.000000 -1.000000  1.000000 )  
               b(2) = (  1.000000  1.000000  1.000000 )  
               b(3) = ( -1.000000  1.000000 -1.000000 )  


     PseudoPot. # 1 for Al read from file:
     /home/max/quantum_espresso/qe-6.1/pseudo/Al.pbe-n-kjpaw_psl.1.0.0.UPF
     MD5 check sum: dd5adf945272da8132fc805c9e56c2d6
     Pseudo is Projector augmented-wave + core cor, Zval =  3.0
     Generated using "atomic" code by A. Dal Corso  v.5.1
     Shape of augmentation charge: PSQ
     Using radial grid of 1135 points,  6 beta functions with: 
                l(1) =   0
                l(2) =   0
                l(3) =   1
                l(4) =   1
                l(5) =   2
                l(6) =   2
     Q(r) pseudized with 0 coefficients 


     atomic species   valence    mass     pseudopotential
        Al             3.00    26.98200     Al( 1.00)

     48 Sym. Ops., with inversion, found



   Cartesian axes

     site n.     atom                  positions (alat units)
         1           Al  tau(   1) = (   0.0000000   0.0000000   0.0000000  )

     number of k points=  7200  gaussian smearing, width (Ry)=  0.0500

     Number of k-points >= 100: set verbosity='high' to print them.

     Dense  grid:     2445 G-vectors     FFT dimensions: (  20,  20,  20)

     Estimated max dynamical RAM per process >       1.19MB

     The potential is recalculated from file :
     ./_ph0/aluminium.save/charge-density.dat

     Starting wfc are    4 atomic +    2 random wfc
     Checking if some PAW data can be deallocated... 

     Band Structure Calculation
     Davidson diagonalization with overlap

     ethr =  3.33E-10,  avg # of iterations = 16.1

     total cpu time spent up to now is      387.2 secs

     End of band structure calculation

     Number of k-points >= 100: set verbosity='high' to print the bands.

     the Fermi energy is     7.8704 ev

     Writing output data file aluminium.save

                                                                                

     bravais-lattice index     =            2
     lattice parameter (alat)  =       7.6456  a.u.
     unit-cell volume          =     111.7313 (a.u.)^3
     number of atoms/cell      =            1
     number of atomic types    =            1
     kinetic-energy cut-off    =      30.0000  Ry
     charge density cut-off    =     120.0000  Ry
     convergence threshold     =      1.0E-12
     beta                      =       0.7000
     number of iterations used =            4
     Exchange-correlation      =  SLA  PW   PBX  PBC ( 1  4  3  4 0 0)


     celldm(1)=    7.64560  celldm(2)=    0.00000  celldm(3)=    0.00000
     celldm(4)=    0.00000  celldm(5)=    0.00000  celldm(6)=    0.00000

     crystal axes: (cart. coord. in units of alat)
               a(1) = ( -0.5000  0.0000  0.5000 )  
               a(2) = (  0.0000  0.5000  0.5000 )  
               a(3) = ( -0.5000  0.5000  0.0000 )  

     reciprocal axes: (cart. coord. in units 2 pi/alat)
               b(1) = ( -1.0000 -1.0000  1.0000 )  
               b(2) = (  1.0000  1.0000  1.0000 )  
               b(3) = ( -1.0000  1.0000 -1.0000 )  


     Atoms inside the unit cell: 

     Cartesian axes

     site n.  atom      mass           positions (alat units)
        1     Al  26.9820   tau(    1) = (    0.00000    0.00000    0.00000  )

     Computing dynamical matrix for 
                    q = (  -0.0833333   0.2500000  -0.0833333 )

      2 Sym.Ops. (no q -> -q+G )


     G cutoff =  177.6825  (   2445 G-vectors)     FFT grid: ( 20, 20, 20)

     number of k points=  7200  gaussian smearing, width (Ry)=  0.0500

     PseudoPot. # 1 for Al read from file:
     /home/max/quantum_espresso/qe-6.1/pseudo/Al.pbe-n-kjpaw_psl.1.0.0.UPF
     MD5 check sum: dd5adf945272da8132fc805c9e56c2d6
     Pseudo is Projector augmented-wave + core cor, Zval =  3.0
     Generated using "atomic" code by A. Dal Corso  v.5.1
     Shape of augmentation charge: PSQ
     Using radial grid of 1135 points,  6 beta functions with: 
                l(1) =   0
                l(2) =   0
                l(3) =   1
                l(4) =   1
                l(5) =   2
                l(6) =   2
     Q(r) pseudized with 0 coefficients 


     Mode symmetry, C_s (m)     point group:


     Atomic displacements:
     There are   3 irreducible representations

     Representation     1      1 modes -A'  To be done

     Representation     2      1 modes -A'  To be done

     Representation     3      1 modes -A''  To be done



     Alpha used in Ewald sum =   1.4000
     PHONON       : 16m23.40s CPU    17m 0.02s WALL



     Representation #  1 mode #   1

     Self-consistent Calculation

      iter #   1 total cpu time :  1032.7 secs   av.it.:   4.6
      thresh= 1.000E-02 alpha_mix =  0.700 |ddv_scf|^2 =  1.175E-01

      iter #   2 total cpu time :  1043.9 secs   av.it.:   6.1
      thresh= 1.000E-02 alpha_mix =  0.700 |ddv_scf|^2 =  3.049E+01

      iter #   3 total cpu time :  1054.9 secs   av.it.:   6.0
      thresh= 1.000E-02 alpha_mix =  0.700 |ddv_scf|^2 =  7.975E-05

      iter #   4 total cpu time :  1063.9 secs   av.it.:   4.1
      thresh= 8.930E-04 alpha_mix =  0.700 |ddv_scf|^2 =  4.237E-09

      iter #   5 total cpu time :  1075.3 secs   av.it.:   6.5
      thresh= 6.510E-06 alpha_mix =  0.700 |ddv_scf|^2 =  6.934E-09

      iter #   6 total cpu time :  1084.4 secs   av.it.:   4.2
      thresh= 8.327E-06 alpha_mix =  0.700 |ddv_scf|^2 =  5.699E-08

      iter #   7 total cpu time :  1093.0 secs   av.it.:   3.7
      thresh= 2.387E-05 alpha_mix =  0.700 |ddv_scf|^2 =  6.224E-12

      iter #   8 total cpu time :  1104.2 secs   av.it.:   5.9
      thresh= 2.495E-07 alpha_mix =  0.700 |ddv_scf|^2 =  3.065E-13

     End of self-consistent calculation

     Convergence has been achieved 


     Representation #  2 mode #   2

     Self-consistent Calculation

      iter #   1 total cpu time :  1118.3 secs   av.it.:   4.3
      thresh= 1.000E-02 alpha_mix =  0.700 |ddv_scf|^2 =  1.769E-02

      iter #   2 total cpu time :  1128.7 secs   av.it.:   5.3
      thresh= 1.000E-02 alpha_mix =  0.700 |ddv_scf|^2 =  4.591E+00

      iter #   3 total cpu time :  1139.0 secs   av.it.:   5.3
      thresh= 1.000E-02 alpha_mix =  0.700 |ddv_scf|^2 =  1.305E-05

[...]
        1     Al  26.9820   tau(    1) = (    0.00000    0.00000    0.00000  )

     Computing dynamical matrix for 
                    q = (  -0.3333333  -1.0000000   0.0000000 )

      4 Sym.Ops. (no q -> -q+G )


     G cutoff =  177.6825  (   2445 G-vectors)     FFT grid: ( 20, 20, 20)

     number of k points=  3456  gaussian smearing, width (Ry)=  0.0500

     PseudoPot. # 1 for Al read from file:
     /home/max/quantum_espresso/qe-6.1/pseudo/Al.pbe-n-kjpaw_psl.1.0.0.UPF
     MD5 check sum: dd5adf945272da8132fc805c9e56c2d6
     Pseudo is Projector augmented-wave + core cor, Zval =  3.0
     Generated using "atomic" code by A. Dal Corso  v.5.1
     Shape of augmentation charge: PSQ
     Using radial grid of 1135 points,  6 beta functions with: 
                l(1) =   0
                l(2) =   0
                l(3) =   1
                l(4) =   1
                l(5) =   2
                l(6) =   2
     Q(r) pseudized with 0 coefficients 


     Mode symmetry, C_2v (mm2)  point group:


     Atomic displacements:
     There are   3 irreducible representations

     Representation     1      1 modes -A_1  D_1  S_1  To be done

     Representation     2      1 modes -B_1  D_3  S_3  To be done

     Representation     3      1 modes -B_2  D_4  S_4  To be done



     Alpha used in Ewald sum =   1.4000
     PHONON       :     7h27m CPU        8h 8m WALL



     Representation #  1 mode #   1

     Self-consistent Calculation

      iter #   1 total cpu time : 29307.5 secs   av.it.:   4.4
      thresh= 1.000E-02 alpha_mix =  0.700 |ddv_scf|^2 =  2.216E-06

      iter #   2 total cpu time : 29314.4 secs   av.it.:   6.5
      thresh= 1.489E-04 alpha_mix =  0.700 |ddv_scf|^2 =  3.289E-07

      iter #   3 total cpu time : 29321.1 secs   av.it.:   6.3
      thresh= 5.735E-05 alpha_mix =  0.700 |ddv_scf|^2 =  1.733E-08

      iter #   4 total cpu time : 29328.1 secs   av.it.:   6.4
      thresh= 1.316E-05 alpha_mix =  0.700 |ddv_scf|^2 =  1.313E-09

      iter #   5 total cpu time : 29334.9 secs   av.it.:   6.4
      thresh= 3.623E-06 alpha_mix =  0.700 |ddv_scf|^2 =  5.698E-11

      iter #   6 total cpu time : 29341.6 secs   av.it.:   6.0
      thresh= 7.549E-07 alpha_mix =  0.700 |ddv_scf|^2 =  8.782E-14

     End of self-consistent calculation

     Convergence has been achieved 


     Representation #  2 mode #   2

     Self-consistent Calculation

      iter #   1 total cpu time : 29349.6 secs   av.it.:   4.3
      thresh= 1.000E-02 alpha_mix =  0.700 |ddv_scf|^2 =  2.122E-06

      iter #   2 total cpu time : 29356.3 secs   av.it.:   6.4
      thresh= 1.457E-04 alpha_mix =  0.700 |ddv_scf|^2 =  1.866E-07

      iter #   3 total cpu time : 29363.5 secs   av.it.:   6.2
      thresh= 4.320E-05 alpha_mix =  0.700 |ddv_scf|^2 =  8.957E-09

      iter #   4 total cpu time : 29371.0 secs   av.it.:   6.1
      thresh= 9.464E-06 alpha_mix =  0.700 |ddv_scf|^2 =  2.652E-10

      iter #   5 total cpu time : 29378.8 secs   av.it.:   5.8
      thresh= 1.629E-06 alpha_mix =  0.700 |ddv_scf|^2 =  3.099E-13

     End of self-consistent calculation

     Convergence has been achieved 


     Representation #  3 mode #   3

     Self-consistent Calculation

      iter #   1 total cpu time : 29388.5 secs   av.it.:   4.5
      thresh= 1.000E-02 alpha_mix =  0.700 |ddv_scf|^2 =  1.176E-05

      iter #   2 total cpu time : 29395.6 secs   av.it.:   6.3
      thresh= 3.430E-04 alpha_mix =  0.700 |ddv_scf|^2 =  3.290E-06

      iter #   3 total cpu time : 29402.4 secs   av.it.:   6.1
      thresh= 1.814E-04 alpha_mix =  0.700 |ddv_scf|^2 =  1.554E-08

      iter #   4 total cpu time : 29409.3 secs   av.it.:   6.2
      thresh= 1.246E-05 alpha_mix =  0.700 |ddv_scf|^2 =  4.384E-10

      iter #   5 total cpu time : 29416.0 secs   av.it.:   5.8
      thresh= 2.094E-06 alpha_mix =  0.700 |ddv_scf|^2 =  4.216E-13

     End of self-consistent calculation

     Convergence has been achieved 

     Number of q in the star =   12
     List of q in the star:
          1  -0.333333333  -1.000000000   0.000000000
          2   0.000000000  -1.000000000  -0.333333333
          3   0.333333333  -1.000000000   0.000000000
          4   0.000000000   1.000000000   0.333333333
          5  -1.000000000   0.000000000  -0.333333333
          6   1.000000000   0.000000000   0.333333333
          7  -1.000000000  -0.333333333   0.000000000
          8   0.000000000  -0.333333333  -1.000000000
          9   0.000000000   0.333333333  -1.000000000
         10   1.000000000   0.333333333   0.000000000
         11  -0.333333333   0.000000000   1.000000000
         12   0.333333333   0.000000000   1.000000000

     Diagonalizing the dynamical matrix

     q = (   -0.333333333  -1.000000000   0.000000000 ) 

 **************************************************************************
     freq (    1) =       6.284986 [THz] =     209.644569 [cm-1]
     freq (    2) =       6.804249 [THz] =     226.965311 [cm-1]
     freq (    3) =       8.671316 [THz] =     289.243951 [cm-1]
 **************************************************************************

     Mode symmetry, C_2v (mm2)  point group:

     freq (  1 -  1) =        209.6  [cm-1]   --> A_1  D_1  S_1      
     freq (  2 -  2) =        227.0  [cm-1]   --> B_1  D_3  S_3      
     freq (  3 -  3) =        289.2  [cm-1]   --> B_2  D_4  S_4      

     Calculation of q =   -0.5000000  -1.0000000   0.0000000

   Info: using nr1, nr2, nr3 values from input

   Info: using nr1, nr2, nr3 values from input

     G-vector sticks info
     --------------------
     sticks:   dense  smooth     PW     G-vecs:    dense   smooth      PW
     Sum         241     241    121                 2445     2445     821



     bravais-lattice index     =            2
     lattice parameter (alat)  =       7.6456  a.u.
     unit-cell volume          =     111.7313 (a.u.)^3
     number of atoms/cell      =            1
     number of atomic types    =            1
     number of electrons       =         3.00
     number of Kohn-Sham states=            6
     kinetic-energy cutoff     =      30.0000  Ry
     charge density cutoff     =     120.0000  Ry
     Exchange-correlation      =  SLA  PW   PBX  PBC ( 1  4  3  4 0 0)

     celldm(1)=   7.645600  celldm(2)=   0.000000  celldm(3)=   0.000000
     celldm(4)=   0.000000  celldm(5)=   0.000000  celldm(6)=   0.000000

     crystal axes: (cart. coord. in units of alat)
               a(1) = (  -0.500000   0.000000   0.500000 )  
               a(2) = (   0.000000   0.500000   0.500000 )  
               a(3) = (  -0.500000   0.500000   0.000000 )  

     reciprocal axes: (cart. coord. in units 2 pi/alat)
               b(1) = ( -1.000000 -1.000000  1.000000 )  
               b(2) = (  1.000000  1.000000  1.000000 )  
               b(3) = ( -1.000000  1.000000 -1.000000 )  


     PseudoPot. # 1 for Al read from file:
     /home/max/quantum_espresso/qe-6.1/pseudo/Al.pbe-n-kjpaw_psl.1.0.0.UPF
     MD5 check sum: dd5adf945272da8132fc805c9e56c2d6
     Pseudo is Projector augmented-wave + core cor, Zval =  3.0
     Generated using "atomic" code by A. Dal Corso  v.5.1
     Shape of augmentation charge: PSQ
     Using radial grid of 1135 points,  6 beta functions with: 
                l(1) =   0
                l(2) =   0
                l(3) =   1
                l(4) =   1
                l(5) =   2
                l(6) =   2
     Q(r) pseudized with 0 coefficients 


     atomic species   valence    mass     pseudopotential
        Al             3.00    26.98200     Al( 1.00)

     48 Sym. Ops., with inversion, found



   Cartesian axes

     site n.     atom                  positions (alat units)
         1           Al  tau(   1) = (   0.0000000   0.0000000   0.0000000  )

     number of k points=  1728  gaussian smearing, width (Ry)=  0.0500

     Number of k-points >= 100: set verbosity='high' to print them.

     Dense  grid:     2445 G-vectors     FFT dimensions: (  20,  20,  20)

     Estimated max dynamical RAM per process >       1.19MB

     The potential is recalculated from file :
     ./_ph0/aluminium.save/charge-density.dat

     Starting wfc are    4 atomic +    2 random wfc
     Checking if some PAW data can be deallocated... 

     Band Structure Calculation
     Davidson diagonalization with overlap

     ethr =  3.33E-10,  avg # of iterations = 16.0

     total cpu time spent up to now is     9558.9 secs

     End of band structure calculation

     Number of k-points >= 100: set verbosity='high' to print the bands.

     the Fermi energy is     7.8704 ev

     Writing output data file aluminium.save

                                                                                

     bravais-lattice index     =            2
     lattice parameter (alat)  =       7.6456  a.u.
     unit-cell volume          =     111.7313 (a.u.)^3
     number of atoms/cell      =            1
     number of atomic types    =            1
     kinetic-energy cut-off    =      30.0000  Ry
     charge density cut-off    =     120.0000  Ry
     convergence threshold     =      1.0E-12
     beta                      =       0.7000
     number of iterations used =            4
     Exchange-correlation      =  SLA  PW   PBX  PBC ( 1  4  3  4 0 0)


     celldm(1)=    7.64560  celldm(2)=    0.00000  celldm(3)=    0.00000
     celldm(4)=    0.00000  celldm(5)=    0.00000  celldm(6)=    0.00000

     crystal axes: (cart. coord. in units of alat)
               a(1) = ( -0.5000  0.0000  0.5000 )  
               a(2) = (  0.0000  0.5000  0.5000 )  
               a(3) = ( -0.5000  0.5000  0.0000 )  

     reciprocal axes: (cart. coord. in units 2 pi/alat)
               b(1) = ( -1.0000 -1.0000  1.0000 )  
               b(2) = (  1.0000  1.0000  1.0000 )  
               b(3) = ( -1.0000  1.0000 -1.0000 )  


     Atoms inside the unit cell: 

     Cartesian axes

     site n.  atom      mass           positions (alat units)
        1     Al  26.9820   tau(    1) = (    0.00000    0.00000    0.00000  )

     Computing dynamical matrix for 
                    q = (  -0.5000000  -1.0000000   0.0000000 )

      8 Sym.Ops. (no q -> -q+G )


     G cutoff =  177.6825  (   2445 G-vectors)     FFT grid: ( 20, 20, 20)

     number of k points=  1728  gaussian smearing, width (Ry)=  0.0500

     PseudoPot. # 1 for Al read from file:
     /home/max/quantum_espresso/qe-6.1/pseudo/Al.pbe-n-kjpaw_psl.1.0.0.UPF
     MD5 check sum: dd5adf945272da8132fc805c9e56c2d6
     Pseudo is Projector augmented-wave + core cor, Zval =  3.0
     Generated using "atomic" code by A. Dal Corso  v.5.1
     Shape of augmentation charge: PSQ
     Using radial grid of 1135 points,  6 beta functions with: 
                l(1) =   0
                l(2) =   0
                l(3) =   1
                l(4) =   1
                l(5) =   2
                l(6) =   2
     Q(r) pseudized with 0 coefficients 


     Mode symmetry, D_2d (-42m) point group:


     Atomic displacements:
     There are   2 irreducible representations

     Representation     1      1 modes -B_2  X_3  W_2  To be done

     Representation     2      2 modes -E    X_5  W_3  To be done



     Alpha used in Ewald sum =   1.4000
     PHONON       :     7h29m CPU        8h10m WALL



     Representation #  1 mode #   1

     Self-consistent Calculation

      iter #   1 total cpu time : 29457.5 secs   av.it.:   4.4
      thresh= 1.000E-02 alpha_mix =  0.700 |ddv_scf|^2 =  2.670E-06

      iter #   2 total cpu time : 29461.7 secs   av.it.:   6.5
      thresh= 1.634E-04 alpha_mix =  0.700 |ddv_scf|^2 =  3.106E-07

      iter #   3 total cpu time : 29466.2 secs   av.it.:   6.4
      thresh= 5.573E-05 alpha_mix =  0.700 |ddv_scf|^2 =  1.033E-08

      iter #   4 total cpu time : 29470.4 secs   av.it.:   6.4
      thresh= 1.016E-05 alpha_mix =  0.700 |ddv_scf|^2 =  2.806E-10

      iter #   5 total cpu time : 29474.6 secs   av.it.:   5.9
      thresh= 1.675E-06 alpha_mix =  0.700 |ddv_scf|^2 =  3.136E-13

     End of self-consistent calculation

     Convergence has been achieved 


     Representation #  2 modes #   2  3

     Self-consistent Calculation

      iter #   1 total cpu time : 29484.0 secs   av.it.:   4.5
      thresh= 1.000E-02 alpha_mix =  0.700 |ddv_scf|^2 =  1.379E-06

      iter #   2 total cpu time : 29492.6 secs   av.it.:   7.0
      thresh= 1.174E-04 alpha_mix =  0.700 |ddv_scf|^2 =  2.325E-07

      iter #   3 total cpu time : 29501.5 secs   av.it.:   6.8
      thresh= 4.821E-05 alpha_mix =  0.700 |ddv_scf|^2 =  3.156E-09

      iter #   4 total cpu time : 29510.2 secs   av.it.:   6.7
      thresh= 5.618E-06 alpha_mix =  0.700 |ddv_scf|^2 =  8.848E-11

      iter #   5 total cpu time : 29519.0 secs   av.it.:   6.4
      thresh= 9.406E-07 alpha_mix =  0.700 |ddv_scf|^2 =  6.758E-14

     End of self-consistent calculation

     Convergence has been achieved 

     Number of q in the star =    6
     List of q in the star:
          1  -0.500000000  -1.000000000   0.000000000
          2   0.000000000   1.000000000   0.500000000
          3   0.000000000   1.000000000  -0.500000000
          4   0.500000000   1.000000000   0.000000000
          5  -1.000000000  -0.500000000   0.000000000
          6   0.000000000  -0.500000000  -1.000000000

     Diagonalizing the dynamical matrix

     q = (   -0.500000000  -1.000000000   0.000000000 ) 

 **************************************************************************
     freq (    1) =       6.376147 [THz] =     212.685362 [cm-1]
     freq (    2) =       7.780547 [THz] =     259.531111 [cm-1]
     freq (    3) =       7.780547 [THz] =     259.531111 [cm-1]
 **************************************************************************

     Mode symmetry, D_2d (-42m) point group:

     freq (  1 -  1) =        212.7  [cm-1]   --> B_2  X_3  W_2      
     freq (  2 -  3) =        259.5  [cm-1]   --> E    X_5  W_3      

     init_run     :     59.99s CPU     60.25s WALL (      71 calls)
     electrons    :   7926.66s CPU   8205.48s WALL (      71 calls)

     Called by init_run:
     wfcinit      :      0.00s CPU      0.00s WALL (      71 calls)
     potinit      :     15.53s CPU     15.57s WALL (      71 calls)

     Called by electrons:
     c_bands      :   7921.36s CPU   8200.09s WALL (      71 calls)
     v_of_rho     :      0.35s CPU      0.35s WALL (      72 calls)
     newd         :      0.47s CPU      0.47s WALL (      72 calls)
     PAW_pot      :     15.28s CPU     15.32s WALL (      72 calls)

     Called by c_bands:
     init_us_2    :    958.74s CPU   1019.37s WALL ( 7459772 calls)
     cegterg      :   7208.70s CPU   7454.36s WALL (  590247 calls)

     Called by sum_band:

     Called by *egterg:
     h_psi        :  11890.23s CPU  12960.55s WALL (43266308 calls)
     s_psi        :   1944.64s CPU   2066.78s WALL (82542354 calls)
     g_psi        :     84.11s CPU     87.09s WALL ( 8142395 calls)
     cdiaghg      :    884.99s CPU    917.55s WALL ( 8650111 calls)

     Called by h_psi:
     h_psi:pot    :  11775.40s CPU  12838.19s WALL (43266308 calls)
     h_psi:calbec :   1137.14s CPU   1629.79s WALL (43266308 calls)
     vloc_psi     :   9514.48s CPU  10024.24s WALL (43266308 calls)
     add_vuspsi   :   1036.20s CPU   1095.99s WALL (43266308 calls)

     General routines
     calbec       :   2848.47s CPU   3446.21s WALL (95159064 calls)
     fft          :      1.32s CPU      1.35s WALL (   24275 calls)
     ffts         :     37.11s CPU     39.57s WALL (  763278 calls)
     fftw         :   9660.39s CPU  10200.24s WALL (******** calls)
     davcio       :    323.17s CPU    383.87s WALL (28168436 calls)

     Parallel routines
     fft_scatter  :   1379.02s CPU   1448.07s WALL (******** calls)

     PHONON       :     7h30m CPU        8h11m WALL

     INITIALIZATION: 
     phq_setup    :      1.50s CPU      1.52s WALL (      72 calls)
     phq_init     :    978.67s CPU   1008.08s WALL (      72 calls)

     phq_init     :    978.67s CPU   1008.08s WALL (      72 calls)
     set_drhoc    :     13.83s CPU     13.95s WALL (     216 calls)
     init_vloc    :      0.10s CPU      0.10s WALL (      72 calls)
     init_us_1    :     26.98s CPU     27.13s WALL (      72 calls)
     newd         :      0.47s CPU      0.47s WALL (      72 calls)
     dvanqq       :      3.75s CPU      3.78s WALL (      72 calls)
     drho         :    673.81s CPU    693.43s WALL (      72 calls)

     DYNAMICAL MATRIX:
     dynmat0      :    188.04s CPU    192.67s WALL (      72 calls)
     phqscf       :  17432.97s CPU  18943.33s WALL (      72 calls)
     dynmatrix    :      0.12s CPU      0.14s WALL (      72 calls)

     phqscf       :  17432.97s CPU  18943.33s WALL (      72 calls)
     solve_linter :  17009.26s CPU  18506.06s WALL (     201 calls)
     drhodv       :    423.30s CPU    434.98s WALL (     201 calls)

     dynmat0      :    188.04s CPU    192.67s WALL (      72 calls)
     dynmat_us    :    178.50s CPU    183.05s WALL (      72 calls)
     d2ionq       :      0.03s CPU      0.03s WALL (      72 calls)
     dynmatcc     :      9.44s CPU      9.52s WALL (      72 calls)

     dynmat_us    :    178.50s CPU    183.05s WALL (      72 calls)
     addusdynmat  :      0.00s CPU      0.00s WALL (      72 calls)

     phqscf       :  17432.97s CPU  18943.33s WALL (      72 calls)
     solve_linter :  17009.26s CPU  18506.06s WALL (     201 calls)

     solve_linter :  17009.26s CPU  18506.06s WALL (     201 calls)
     dvqpsi_us    :    880.34s CPU    934.22s WALL (  762120 calls)
     ortho        :    768.78s CPU    822.18s WALL ( 5250096 calls)
     cgsolve      :   9956.30s CPU  11037.98s WALL ( 5250096 calls)
     incdrhoscf   :   1412.93s CPU   1509.95s WALL ( 5250096 calls)
     addusddens   :     23.90s CPU     24.19s WALL (    1535 calls)
     vpsifft      :    908.78s CPU    973.61s WALL ( 4487976 calls)
     dv_of_drho   :      1.81s CPU      1.84s WALL (    1403 calls)
     mix_pot      :      0.84s CPU      1.69s WALL (    1334 calls)
     ef_shift     :      0.00s CPU      0.01s WALL (       5 calls)
     localdos     :      0.09s CPU      0.09s WALL (       1 calls)
     psymdvscf    :      1.62s CPU      1.64s WALL (    1021 calls)
     newdq        :     21.08s CPU     21.24s WALL (    1334 calls)
     adddvscf     :    313.18s CPU    336.57s WALL ( 4487976 calls)
     drhodvus     :      0.02s CPU      0.03s WALL (     201 calls)

     dvqpsi_us    :    880.34s CPU    934.22s WALL (  762120 calls)
     dvqpsi_us_on :    358.63s CPU    379.50s WALL (  762120 calls)

     cgsolve      :   9956.30s CPU  11037.98s WALL ( 5250096 calls)
     ch_psi       :   9650.53s CPU  10709.09s WALL (34025950 calls)

     ch_psi       :   9650.53s CPU  10709.09s WALL (34025950 calls)
     h_psi        :  11890.23s CPU  12960.55s WALL (43266308 calls)
     last         :   1600.99s CPU   1706.12s WALL (34025950 calls)

     h_psi        :  11890.23s CPU  12960.55s WALL (43266308 calls)
     add_vuspsi   :   1036.20s CPU   1095.99s WALL (43266308 calls)

     incdrhoscf   :   1412.93s CPU   1509.95s WALL ( 5250096 calls)
     addusdbec    :    416.36s CPU    442.61s WALL ( 6012216 calls)

     drhodvus     :      0.02s CPU      0.03s WALL (     201 calls)

      General routines
     calbec       :   2848.47s CPU   3446.21s WALL (95159064 calls)
     fft          :      1.32s CPU      1.35s WALL (   24275 calls)
     ffts         :     37.11s CPU     39.57s WALL (  763278 calls)
     fftw         :   9660.39s CPU  10200.24s WALL (******** calls)
     davcio       :    323.17s CPU    383.87s WALL (28168436 calls)
     write_rec    :      2.06s CPU      5.58s WALL (    1535 calls)


     PHONON       :     7h30m CPU        8h11m WALL


   This run was terminated on:  22:39:14  30Oct2017            

=------------------------------------------------------------------------------=
   JOB DONE.
=------------------------------------------------------------------------------=
