
     Program MATDYN v.6.1 (svn rev. 13369) starts on 31Oct2017 at 10: 7:49 

     This program is part of the open-source Quantum ESPRESSO suite
     for quantum simulation of materials; please cite
         "P. Giannozzi et al., J. Phys.:Condens. Matter 21 395502 (2009);
          URL http://www.quantum-espresso.org", 
     in publications or presentations arising from this work. More details at
     http://www.quantum-espresso.org/quote

     Parallel version (MPI), running on     1 processors
 mass for atomic type   1 not given; uses mass from file aluminium.121212.fc                                                                                                                                                                                                                                             
     Message from routine matdyn:
     Z* not found in file aluminium.121212.fc, TO-LO splitting at q=0 will be absent!
     A direction for q was not specified:TO-LO splitting will be absent

     MATDYN       :  1m53.23s CPU     1m53.51s WALL


   This run was terminated on:  10: 9:43  31Oct2017            

=------------------------------------------------------------------------------=
   JOB DONE.
=------------------------------------------------------------------------------=
