
     Program Q2R v.6.1 (svn rev. 13369) starts on 30Oct2017 at 22:45:16 

     This program is part of the open-source Quantum ESPRESSO suite
     for quantum simulation of materials; please cite
         "P. Giannozzi et al., J. Phys.:Condens. Matter 21 395502 (2009);
          URL http://www.quantum-espresso.org", 
     in publications or presentations arising from this work. More details at
     http://www.quantum-espresso.org/quote

     Parallel version (MPI), running on     1 processors

     reading grid info from file aluminium.dyn0    
  reading force constants from file aluminium.dyn1
  Dielectric Tensor not found
  nqs=            1
 q=   0.00000000  0.00000000  0.00000000
  reading force constants from file aluminium.dyn2
  nqs=            8
 q=  -0.08333333  0.08333333 -0.08333333
 q=   0.08333333 -0.08333333 -0.08333333
 q=   0.08333333 -0.08333333  0.08333333
 q=   0.08333333  0.08333333 -0.08333333
 q=   0.08333333  0.08333333  0.08333333
 q=  -0.08333333 -0.08333333 -0.08333333
 q=  -0.08333333 -0.08333333  0.08333333
 q=  -0.08333333  0.08333333  0.08333333
  reading force constants from file aluminium.dyn3
  nqs=            8
 q=  -0.16666667  0.16666667 -0.16666667
 q=   0.16666667 -0.16666667 -0.16666667
 q=   0.16666667 -0.16666667  0.16666667
 q=   0.16666667  0.16666667 -0.16666667
 q=   0.16666667  0.16666667  0.16666667
 q=  -0.16666667 -0.16666667 -0.16666667
 q=  -0.16666667 -0.16666667  0.16666667
 q=  -0.16666667  0.16666667  0.16666667
  reading force constants from file aluminium.dyn4
  nqs=            8
 q=  -0.25000000  0.25000000 -0.25000000
 q=   0.25000000 -0.25000000 -0.25000000
 q=   0.25000000 -0.25000000  0.25000000
 q=   0.25000000  0.25000000 -0.25000000
 q=   0.25000000  0.25000000  0.25000000
 q=  -0.25000000 -0.25000000 -0.25000000
 q=  -0.25000000 -0.25000000  0.25000000
 q=  -0.25000000  0.25000000  0.25000000
  reading force constants from file aluminium.dyn5
  nqs=            8
 q=  -0.33333333  0.33333333 -0.33333333
 q=   0.33333333 -0.33333333 -0.33333333
 q=   0.33333333 -0.33333333  0.33333333
 q=   0.33333333  0.33333333 -0.33333333
 q=   0.33333333  0.33333333  0.33333333
 q=  -0.33333333 -0.33333333 -0.33333333
 q=  -0.33333333 -0.33333333  0.33333333
 q=  -0.33333333  0.33333333  0.33333333
  reading force constants from file aluminium.dyn6
  nqs=            8
 q=  -0.41666667  0.41666667 -0.41666667
 q=   0.41666667 -0.41666667 -0.41666667
 q=   0.41666667 -0.41666667  0.41666667
 q=   0.41666667  0.41666667 -0.41666667
 q=   0.41666667  0.41666667  0.41666667
 q=  -0.41666667 -0.41666667 -0.41666667
 q=  -0.41666667 -0.41666667  0.41666667
 q=  -0.41666667  0.41666667  0.41666667
  reading force constants from file aluminium.dyn7
  nqs=            4
 q=   0.50000000 -0.50000000  0.50000000
 q=   0.50000000  0.50000000  0.50000000
 q=  -0.50000000  0.50000000  0.50000000
 q=   0.50000000  0.50000000 -0.50000000
  reading force constants from file aluminium.dyn8
  nqs=            6
 q=   0.00000000  0.16666667  0.00000000
 q=   0.00000000 -0.16666667  0.00000000
 q=   0.16666667  0.00000000  0.00000000
 q=   0.00000000  0.00000000  0.16666667
 q=   0.00000000  0.00000000 -0.16666667
 q=  -0.16666667  0.00000000  0.00000000
  reading force constants from file aluminium.dyn9
  nqs=           24
 q=  -0.08333333  0.25000000 -0.08333333
 q=   0.08333333  0.25000000 -0.08333333
 q=  -0.08333333  0.25000000  0.08333333
 q=   0.08333333  0.25000000  0.08333333
 q=   0.08333333 -0.25000000  0.08333333
 q=   0.25000000 -0.08333333  0.08333333
 q=   0.08333333 -0.08333333  0.25000000
 q=  -0.08333333 -0.25000000 -0.08333333
 q=   0.08333333 -0.25000000 -0.08333333
 q=  -0.08333333 -0.25000000  0.08333333
 q=   0.08333333 -0.08333333 -0.25000000
 q=   0.25000000 -0.08333333 -0.08333333
 q=  -0.25000000 -0.08333333  0.08333333
 q=   0.25000000  0.08333333  0.08333333
 q=  -0.08333333 -0.08333333  0.25000000
 q=   0.08333333  0.08333333  0.25000000
 q=  -0.25000000  0.08333333 -0.08333333
 q=  -0.08333333  0.08333333 -0.25000000
 q=  -0.25000000 -0.08333333 -0.08333333
 q=   0.08333333  0.08333333 -0.25000000
 q=   0.25000000  0.08333333 -0.08333333
 q=  -0.08333333 -0.08333333 -0.25000000
 q=  -0.25000000  0.08333333  0.08333333
 q=  -0.08333333  0.08333333  0.25000000
  reading force constants from file aluminium.dyn10
  nqs=           24
 q=  -0.16666667  0.33333333 -0.16666667
 q=   0.16666667  0.33333333 -0.16666667
 q=  -0.16666667  0.33333333  0.16666667
 q=   0.16666667  0.33333333  0.16666667
 q=   0.16666667 -0.33333333  0.16666667
 q=   0.33333333 -0.16666667  0.16666667
 q=   0.16666667 -0.16666667  0.33333333
 q=  -0.16666667 -0.33333333 -0.16666667
 q=   0.16666667 -0.33333333 -0.16666667
 q=  -0.16666667 -0.33333333  0.16666667
 q=   0.16666667 -0.16666667 -0.33333333
 q=   0.33333333 -0.16666667 -0.16666667
 q=  -0.33333333 -0.16666667  0.16666667
 q=   0.33333333  0.16666667  0.16666667
 q=  -0.16666667 -0.16666667  0.33333333
 q=   0.16666667  0.16666667  0.33333333
 q=  -0.33333333  0.16666667 -0.16666667
 q=  -0.16666667  0.16666667 -0.33333333
 q=  -0.33333333 -0.16666667 -0.16666667
 q=   0.16666667  0.16666667 -0.33333333
 q=   0.33333333  0.16666667 -0.16666667
 q=  -0.16666667 -0.16666667 -0.33333333
 q=  -0.33333333  0.16666667  0.16666667
 q=  -0.16666667  0.16666667  0.33333333
  reading force constants from file aluminium.dyn11
  nqs=           24
 q=  -0.25000000  0.41666667 -0.25000000
 q=   0.25000000  0.41666667 -0.25000000
 q=  -0.25000000  0.41666667  0.25000000
 q=   0.25000000  0.41666667  0.25000000
 q=   0.25000000 -0.41666667  0.25000000
 q=   0.41666667 -0.25000000  0.25000000
 q=   0.25000000 -0.25000000  0.41666667
 q=  -0.25000000 -0.41666667 -0.25000000
 q=   0.25000000 -0.41666667 -0.25000000
 q=  -0.25000000 -0.41666667  0.25000000
 q=   0.25000000 -0.25000000 -0.41666667
 q=   0.41666667 -0.25000000 -0.25000000
 q=  -0.41666667 -0.25000000  0.25000000
 q=   0.41666667  0.25000000  0.25000000
 q=  -0.25000000 -0.25000000  0.41666667
 q=   0.25000000  0.25000000  0.41666667
 q=  -0.41666667  0.25000000 -0.25000000
 q=  -0.25000000  0.25000000 -0.41666667
 q=  -0.41666667 -0.25000000 -0.25000000
 q=   0.25000000  0.25000000 -0.41666667
 q=   0.41666667  0.25000000 -0.25000000
 q=  -0.25000000 -0.25000000 -0.41666667
 q=  -0.41666667  0.25000000  0.25000000
 q=  -0.25000000  0.25000000  0.41666667
  reading force constants from file aluminium.dyn12
  nqs=           24
 q=  -0.33333333  0.50000000 -0.33333333
 q=   0.33333333  0.50000000 -0.33333333
 q=  -0.33333333  0.50000000  0.33333333
 q=   0.33333333  0.50000000  0.33333333
 q=   0.33333333 -0.50000000  0.33333333
 q=   0.50000000 -0.33333333  0.33333333
 q=   0.33333333 -0.33333333  0.50000000
 q=  -0.33333333 -0.50000000 -0.33333333
 q=   0.33333333 -0.50000000 -0.33333333
 q=  -0.33333333 -0.50000000  0.33333333
 q=   0.33333333 -0.33333333 -0.50000000
 q=   0.50000000 -0.33333333 -0.33333333
 q=  -0.50000000 -0.33333333  0.33333333
 q=   0.50000000  0.33333333  0.33333333
 q=  -0.33333333 -0.33333333  0.50000000
 q=   0.33333333  0.33333333  0.50000000
 q=  -0.50000000  0.33333333 -0.33333333
 q=  -0.33333333  0.33333333 -0.50000000
 q=  -0.50000000 -0.33333333 -0.33333333
 q=   0.33333333  0.33333333 -0.50000000
 q=   0.50000000  0.33333333 -0.33333333
 q=  -0.33333333 -0.33333333 -0.50000000
 q=  -0.50000000  0.33333333  0.33333333
 q=  -0.33333333  0.33333333  0.50000000
  reading force constants from file aluminium.dyn13
  nqs=           24
 q=   0.58333333 -0.41666667  0.58333333
 q=  -0.58333333 -0.41666667  0.58333333
 q=   0.58333333 -0.41666667 -0.58333333
 q=  -0.58333333 -0.41666667 -0.58333333
 q=  -0.58333333  0.41666667 -0.58333333
 q=  -0.41666667  0.58333333 -0.58333333
 q=  -0.58333333  0.58333333 -0.41666667
 q=   0.58333333  0.41666667  0.58333333
 q=  -0.58333333  0.41666667  0.58333333
 q=   0.58333333  0.41666667 -0.58333333
 q=  -0.58333333  0.58333333  0.41666667
 q=  -0.41666667  0.58333333  0.58333333
 q=   0.41666667  0.58333333 -0.58333333
 q=  -0.41666667 -0.58333333 -0.58333333
 q=   0.58333333  0.58333333 -0.41666667
 q=  -0.58333333 -0.58333333 -0.41666667
 q=   0.41666667 -0.58333333  0.58333333
 q=   0.58333333 -0.58333333  0.41666667
 q=   0.41666667  0.58333333  0.58333333
 q=  -0.58333333 -0.58333333  0.41666667
 q=  -0.41666667 -0.58333333  0.58333333
 q=   0.58333333  0.58333333  0.41666667
 q=   0.41666667 -0.58333333 -0.58333333
 q=   0.58333333 -0.58333333 -0.41666667
  reading force constants from file aluminium.dyn14
  nqs=           24
 q=   0.50000000 -0.33333333  0.50000000
 q=  -0.50000000 -0.33333333  0.50000000
 q=   0.50000000 -0.33333333 -0.50000000
 q=  -0.50000000 -0.33333333 -0.50000000
 q=  -0.50000000  0.33333333 -0.50000000
 q=  -0.33333333  0.50000000 -0.50000000
 q=  -0.50000000  0.50000000 -0.33333333
 q=   0.50000000  0.33333333  0.50000000
 q=  -0.50000000  0.33333333  0.50000000
 q=   0.50000000  0.33333333 -0.50000000
 q=  -0.50000000  0.50000000  0.33333333
 q=  -0.33333333  0.50000000  0.50000000
 q=   0.33333333  0.50000000 -0.50000000
 q=  -0.33333333 -0.50000000 -0.50000000
 q=   0.50000000  0.50000000 -0.33333333
 q=  -0.50000000 -0.50000000 -0.33333333
 q=   0.33333333 -0.50000000  0.50000000
 q=   0.50000000 -0.50000000  0.33333333
 q=   0.33333333  0.50000000  0.50000000
 q=  -0.50000000 -0.50000000  0.33333333
 q=  -0.33333333 -0.50000000  0.50000000
 q=   0.50000000  0.50000000  0.33333333
 q=   0.33333333 -0.50000000 -0.50000000
 q=   0.50000000 -0.50000000 -0.33333333
  reading force constants from file aluminium.dyn15
  nqs=           24
 q=   0.41666667 -0.25000000  0.41666667
 q=  -0.41666667 -0.25000000  0.41666667
 q=   0.41666667 -0.25000000 -0.41666667
 q=  -0.41666667 -0.25000000 -0.41666667
 q=  -0.41666667  0.25000000 -0.41666667
 q=  -0.25000000  0.41666667 -0.41666667
 q=  -0.41666667  0.41666667 -0.25000000
 q=   0.41666667  0.25000000  0.41666667
 q=  -0.41666667  0.25000000  0.41666667
 q=   0.41666667  0.25000000 -0.41666667
 q=  -0.41666667  0.41666667  0.25000000
 q=  -0.25000000  0.41666667  0.41666667
 q=   0.25000000  0.41666667 -0.41666667
 q=  -0.25000000 -0.41666667 -0.41666667
 q=   0.41666667  0.41666667 -0.25000000
 q=  -0.41666667 -0.41666667 -0.25000000
 q=   0.25000000 -0.41666667  0.41666667
 q=   0.41666667 -0.41666667  0.25000000
 q=   0.25000000  0.41666667  0.41666667
 q=  -0.41666667 -0.41666667  0.25000000
 q=  -0.25000000 -0.41666667  0.41666667
 q=   0.41666667  0.41666667  0.25000000
 q=   0.25000000 -0.41666667 -0.41666667
 q=   0.41666667 -0.41666667 -0.25000000
  reading force constants from file aluminium.dyn16
  nqs=           24
 q=   0.33333333 -0.16666667  0.33333333
 q=  -0.33333333 -0.16666667  0.33333333
 q=   0.33333333 -0.16666667 -0.33333333
 q=  -0.33333333 -0.16666667 -0.33333333
 q=  -0.33333333  0.16666667 -0.33333333
 q=  -0.16666667  0.33333333 -0.33333333
 q=  -0.33333333  0.33333333 -0.16666667
 q=   0.33333333  0.16666667  0.33333333
 q=  -0.33333333  0.16666667  0.33333333
 q=   0.33333333  0.16666667 -0.33333333
 q=  -0.33333333  0.33333333  0.16666667
 q=  -0.16666667  0.33333333  0.33333333
 q=   0.16666667  0.33333333 -0.33333333
 q=  -0.16666667 -0.33333333 -0.33333333
 q=   0.33333333  0.33333333 -0.16666667
 q=  -0.33333333 -0.33333333 -0.16666667
 q=   0.16666667 -0.33333333  0.33333333
 q=   0.33333333 -0.33333333  0.16666667
 q=   0.16666667  0.33333333  0.33333333
 q=  -0.33333333 -0.33333333  0.16666667
 q=  -0.16666667 -0.33333333  0.33333333
 q=   0.33333333  0.33333333  0.16666667
 q=   0.16666667 -0.33333333 -0.33333333
 q=   0.33333333 -0.33333333 -0.16666667
  reading force constants from file aluminium.dyn17
  nqs=           24
 q=   0.25000000 -0.08333333  0.25000000
 q=  -0.25000000 -0.08333333  0.25000000
 q=   0.25000000 -0.08333333 -0.25000000
 q=  -0.25000000 -0.08333333 -0.25000000
 q=  -0.25000000  0.08333333 -0.25000000
 q=  -0.08333333  0.25000000 -0.25000000
 q=  -0.25000000  0.25000000 -0.08333333
 q=   0.25000000  0.08333333  0.25000000
 q=  -0.25000000  0.08333333  0.25000000
 q=   0.25000000  0.08333333 -0.25000000
 q=  -0.25000000  0.25000000  0.08333333
 q=  -0.08333333  0.25000000  0.25000000
 q=   0.08333333  0.25000000 -0.25000000
 q=  -0.08333333 -0.25000000 -0.25000000
 q=   0.25000000  0.25000000 -0.08333333
 q=  -0.25000000 -0.25000000 -0.08333333
 q=   0.08333333 -0.25000000  0.25000000
 q=   0.25000000 -0.25000000  0.08333333
 q=   0.08333333  0.25000000  0.25000000
 q=  -0.25000000 -0.25000000  0.08333333
 q=  -0.08333333 -0.25000000  0.25000000
 q=   0.25000000  0.25000000  0.08333333
 q=   0.08333333 -0.25000000 -0.25000000
 q=   0.25000000 -0.25000000 -0.08333333
  reading force constants from file aluminium.dyn18
  nqs=           12
 q=   0.16666667 -0.00000000  0.16666667
 q=  -0.16666667 -0.00000000 -0.16666667
 q=   0.16666667 -0.00000000 -0.16666667
 q=  -0.16666667 -0.00000000  0.16666667
 q=  -0.00000000  0.16666667 -0.16666667
 q=  -0.16666667  0.16666667 -0.00000000
 q=  -0.00000000  0.16666667  0.16666667
 q=  -0.00000000 -0.16666667 -0.16666667
 q=   0.16666667  0.16666667 -0.00000000
 q=  -0.16666667 -0.16666667 -0.00000000
 q=   0.00000000 -0.16666667  0.16666667
 q=   0.16666667 -0.16666667  0.00000000
  reading force constants from file aluminium.dyn19
  nqs=            6
 q=   0.00000000  0.33333333  0.00000000
 q=   0.00000000 -0.33333333  0.00000000
 q=   0.33333333  0.00000000  0.00000000
 q=   0.00000000  0.00000000  0.33333333
 q=   0.00000000  0.00000000 -0.33333333
 q=  -0.33333333  0.00000000  0.00000000
  reading force constants from file aluminium.dyn20
  nqs=           24
 q=  -0.08333333  0.41666667 -0.08333333
 q=   0.08333333  0.41666667  0.08333333
 q=  -0.08333333  0.41666667  0.08333333
 q=   0.08333333  0.41666667 -0.08333333
 q=   0.08333333 -0.41666667  0.08333333
 q=   0.41666667 -0.08333333  0.08333333
 q=   0.08333333 -0.08333333  0.41666667
 q=  -0.08333333 -0.41666667 -0.08333333
 q=   0.08333333 -0.41666667 -0.08333333
 q=  -0.08333333 -0.41666667  0.08333333
 q=   0.08333333 -0.08333333 -0.41666667
 q=   0.41666667 -0.08333333 -0.08333333
 q=  -0.41666667 -0.08333333  0.08333333
 q=   0.41666667  0.08333333  0.08333333
 q=  -0.08333333 -0.08333333  0.41666667
 q=   0.08333333  0.08333333  0.41666667
 q=  -0.41666667  0.08333333 -0.08333333
 q=  -0.08333333  0.08333333 -0.41666667
 q=  -0.41666667 -0.08333333 -0.08333333
 q=   0.08333333  0.08333333 -0.41666667
 q=   0.41666667  0.08333333 -0.08333333
 q=  -0.08333333 -0.08333333 -0.41666667
 q=  -0.41666667  0.08333333  0.08333333
 q=  -0.08333333  0.08333333  0.41666667
  reading force constants from file aluminium.dyn21
  nqs=           24
 q=  -0.16666667  0.50000000 -0.16666667
 q=   0.16666667  0.50000000  0.16666667
 q=  -0.16666667  0.50000000  0.16666667
 q=   0.16666667  0.50000000 -0.16666667
 q=   0.16666667 -0.50000000  0.16666667
 q=   0.50000000 -0.16666667  0.16666667
 q=   0.16666667 -0.16666667  0.50000000
 q=  -0.16666667 -0.50000000 -0.16666667
 q=   0.16666667 -0.50000000 -0.16666667
 q=  -0.16666667 -0.50000000  0.16666667
 q=   0.16666667 -0.16666667 -0.50000000
 q=   0.50000000 -0.16666667 -0.16666667
 q=  -0.50000000 -0.16666667  0.16666667
 q=   0.50000000  0.16666667  0.16666667
 q=  -0.16666667 -0.16666667  0.50000000
 q=   0.16666667  0.16666667  0.50000000
 q=  -0.50000000  0.16666667 -0.16666667
 q=  -0.16666667  0.16666667 -0.50000000
 q=  -0.50000000 -0.16666667 -0.16666667
 q=   0.16666667  0.16666667 -0.50000000
 q=   0.50000000  0.16666667 -0.16666667
 q=  -0.16666667 -0.16666667 -0.50000000
 q=  -0.50000000  0.16666667  0.16666667
 q=  -0.16666667  0.16666667  0.50000000
  reading force constants from file aluminium.dyn22
  nqs=           24
 q=  -0.25000000  0.58333333 -0.25000000
 q=   0.25000000  0.58333333  0.25000000
 q=  -0.25000000  0.58333333  0.25000000
 q=   0.25000000  0.58333333 -0.25000000
 q=   0.25000000 -0.58333333  0.25000000
 q=   0.58333333 -0.25000000  0.25000000
 q=   0.25000000 -0.25000000  0.58333333
 q=  -0.25000000 -0.58333333 -0.25000000
 q=   0.25000000 -0.58333333 -0.25000000
 q=  -0.25000000 -0.58333333  0.25000000
 q=   0.25000000 -0.25000000 -0.58333333
 q=   0.58333333 -0.25000000 -0.25000000
 q=  -0.58333333 -0.25000000  0.25000000
 q=   0.58333333  0.25000000  0.25000000
 q=  -0.25000000 -0.25000000  0.58333333
 q=   0.25000000  0.25000000  0.58333333
 q=  -0.58333333  0.25000000 -0.25000000
 q=  -0.25000000  0.25000000 -0.58333333
 q=  -0.58333333 -0.25000000 -0.25000000
 q=   0.25000000  0.25000000 -0.58333333
 q=   0.58333333  0.25000000 -0.25000000
 q=  -0.25000000 -0.25000000 -0.58333333
 q=  -0.58333333  0.25000000  0.25000000
 q=  -0.25000000  0.25000000  0.58333333
  reading force constants from file aluminium.dyn23
  nqs=           24
 q=   0.66666667 -0.33333333  0.66666667
 q=  -0.66666667 -0.33333333 -0.66666667
 q=   0.66666667 -0.33333333 -0.66666667
 q=  -0.66666667 -0.33333333  0.66666667
 q=  -0.66666667  0.33333333 -0.66666667
 q=  -0.33333333  0.66666667 -0.66666667
 q=  -0.66666667  0.66666667 -0.33333333
 q=   0.66666667  0.33333333  0.66666667
 q=  -0.66666667  0.33333333  0.66666667
 q=   0.66666667  0.33333333 -0.66666667
 q=  -0.66666667  0.66666667  0.33333333
 q=  -0.33333333  0.66666667  0.66666667
 q=   0.33333333  0.66666667 -0.66666667
 q=  -0.33333333 -0.66666667 -0.66666667
 q=   0.66666667  0.66666667 -0.33333333
 q=  -0.66666667 -0.66666667 -0.33333333
 q=   0.33333333 -0.66666667  0.66666667
 q=   0.66666667 -0.66666667  0.33333333
 q=   0.33333333  0.66666667  0.66666667
 q=  -0.66666667 -0.66666667  0.33333333
 q=  -0.33333333 -0.66666667  0.66666667
 q=   0.66666667  0.66666667  0.33333333
 q=   0.33333333 -0.66666667 -0.66666667
 q=   0.66666667 -0.66666667 -0.33333333
  reading force constants from file aluminium.dyn24
  nqs=           24
 q=   0.58333333 -0.25000000  0.58333333
 q=  -0.58333333 -0.25000000 -0.58333333
 q=   0.58333333 -0.25000000 -0.58333333
 q=  -0.58333333 -0.25000000  0.58333333
 q=  -0.58333333  0.25000000 -0.58333333
 q=  -0.25000000  0.58333333 -0.58333333
 q=  -0.58333333  0.58333333 -0.25000000
 q=   0.58333333  0.25000000  0.58333333
 q=  -0.58333333  0.25000000  0.58333333
 q=   0.58333333  0.25000000 -0.58333333
 q=  -0.58333333  0.58333333  0.25000000
 q=  -0.25000000  0.58333333  0.58333333
 q=   0.25000000  0.58333333 -0.58333333
 q=  -0.25000000 -0.58333333 -0.58333333
 q=   0.58333333  0.58333333 -0.25000000
 q=  -0.58333333 -0.58333333 -0.25000000
 q=   0.25000000 -0.58333333  0.58333333
 q=   0.58333333 -0.58333333  0.25000000
 q=   0.25000000  0.58333333  0.58333333
 q=  -0.58333333 -0.58333333  0.25000000
 q=  -0.25000000 -0.58333333  0.58333333
 q=   0.58333333  0.58333333  0.25000000
 q=   0.25000000 -0.58333333 -0.58333333
 q=   0.58333333 -0.58333333 -0.25000000
  reading force constants from file aluminium.dyn25
  nqs=           24
 q=   0.50000000 -0.16666667  0.50000000
 q=  -0.50000000 -0.16666667 -0.50000000
 q=   0.50000000 -0.16666667 -0.50000000
 q=  -0.50000000 -0.16666667  0.50000000
 q=  -0.50000000  0.16666667 -0.50000000
 q=  -0.16666667  0.50000000 -0.50000000
 q=  -0.50000000  0.50000000 -0.16666667
 q=   0.50000000  0.16666667  0.50000000
 q=  -0.50000000  0.16666667  0.50000000
 q=   0.50000000  0.16666667 -0.50000000
 q=  -0.50000000  0.50000000  0.16666667
 q=  -0.16666667  0.50000000  0.50000000
 q=   0.16666667  0.50000000 -0.50000000
 q=  -0.16666667 -0.50000000 -0.50000000
 q=   0.50000000  0.50000000 -0.16666667
 q=  -0.50000000 -0.50000000 -0.16666667
 q=   0.16666667 -0.50000000  0.50000000
 q=   0.50000000 -0.50000000  0.16666667
 q=   0.16666667  0.50000000  0.50000000
 q=  -0.50000000 -0.50000000  0.16666667
 q=  -0.16666667 -0.50000000  0.50000000
 q=   0.50000000  0.50000000  0.16666667
 q=   0.16666667 -0.50000000 -0.50000000
 q=   0.50000000 -0.50000000 -0.16666667
  reading force constants from file aluminium.dyn26
  nqs=           24
 q=   0.41666667 -0.08333333  0.41666667
 q=  -0.41666667 -0.08333333 -0.41666667
 q=   0.41666667 -0.08333333 -0.41666667
 q=  -0.41666667 -0.08333333  0.41666667
 q=  -0.41666667  0.08333333 -0.41666667
 q=  -0.08333333  0.41666667 -0.41666667
 q=  -0.41666667  0.41666667 -0.08333333
 q=   0.41666667  0.08333333  0.41666667
 q=  -0.41666667  0.08333333  0.41666667
 q=   0.41666667  0.08333333 -0.41666667
 q=  -0.41666667  0.41666667  0.08333333
 q=  -0.08333333  0.41666667  0.41666667
 q=   0.08333333  0.41666667 -0.41666667
 q=  -0.08333333 -0.41666667 -0.41666667
 q=   0.41666667  0.41666667 -0.08333333
 q=  -0.41666667 -0.41666667 -0.08333333
 q=   0.08333333 -0.41666667  0.41666667
 q=   0.41666667 -0.41666667  0.08333333
 q=   0.08333333  0.41666667  0.41666667
 q=  -0.41666667 -0.41666667  0.08333333
 q=  -0.08333333 -0.41666667  0.41666667
 q=   0.41666667  0.41666667  0.08333333
 q=   0.08333333 -0.41666667 -0.41666667
 q=   0.41666667 -0.41666667 -0.08333333
  reading force constants from file aluminium.dyn27
  nqs=           12
 q=   0.33333333  0.00000000  0.33333333
 q=  -0.33333333  0.00000000  0.33333333
 q=  -0.33333333  0.00000000 -0.33333333
 q=   0.33333333  0.00000000 -0.33333333
 q=   0.00000000  0.33333333 -0.33333333
 q=  -0.33333333  0.33333333  0.00000000
 q=   0.00000000  0.33333333  0.33333333
 q=   0.00000000 -0.33333333 -0.33333333
 q=   0.33333333  0.33333333  0.00000000
 q=  -0.33333333 -0.33333333  0.00000000
 q=   0.00000000 -0.33333333  0.33333333
 q=   0.33333333 -0.33333333  0.00000000
  reading force constants from file aluminium.dyn28
  nqs=            6
 q=   0.00000000  0.50000000  0.00000000
 q=   0.00000000 -0.50000000  0.00000000
 q=   0.50000000  0.00000000  0.00000000
 q=   0.00000000  0.00000000  0.50000000
 q=   0.00000000  0.00000000 -0.50000000
 q=  -0.50000000  0.00000000  0.00000000
  reading force constants from file aluminium.dyn29
  nqs=           24
 q=  -0.08333333  0.58333333 -0.08333333
 q=   0.08333333  0.58333333 -0.08333333
 q=   0.08333333  0.58333333  0.08333333
 q=  -0.08333333  0.58333333  0.08333333
 q=   0.08333333 -0.58333333  0.08333333
 q=   0.58333333 -0.08333333  0.08333333
 q=   0.08333333 -0.08333333  0.58333333
 q=  -0.08333333 -0.58333333 -0.08333333
 q=   0.08333333 -0.58333333 -0.08333333
 q=  -0.08333333 -0.58333333  0.08333333
 q=   0.08333333 -0.08333333 -0.58333333
 q=   0.58333333 -0.08333333 -0.08333333
 q=  -0.58333333 -0.08333333  0.08333333
 q=   0.58333333  0.08333333  0.08333333
 q=  -0.08333333 -0.08333333  0.58333333
 q=   0.08333333  0.08333333  0.58333333
 q=  -0.58333333  0.08333333 -0.08333333
 q=  -0.08333333  0.08333333 -0.58333333
 q=  -0.58333333 -0.08333333 -0.08333333
 q=   0.08333333  0.08333333 -0.58333333
 q=   0.58333333  0.08333333 -0.08333333
 q=  -0.08333333 -0.08333333 -0.58333333
 q=  -0.58333333  0.08333333  0.08333333
 q=  -0.08333333  0.08333333  0.58333333
  reading force constants from file aluminium.dyn30
  nqs=           24
 q=  -0.16666667  0.66666667 -0.16666667
 q=   0.16666667  0.66666667 -0.16666667
 q=   0.16666667  0.66666667  0.16666667
 q=  -0.16666667  0.66666667  0.16666667
 q=   0.16666667 -0.66666667  0.16666667
 q=   0.66666667 -0.16666667  0.16666667
 q=   0.16666667 -0.16666667  0.66666667
 q=  -0.16666667 -0.66666667 -0.16666667
 q=   0.16666667 -0.66666667 -0.16666667
 q=  -0.16666667 -0.66666667  0.16666667
 q=   0.16666667 -0.16666667 -0.66666667
 q=   0.66666667 -0.16666667 -0.16666667
 q=  -0.66666667 -0.16666667  0.16666667
 q=   0.66666667  0.16666667  0.16666667
 q=  -0.16666667 -0.16666667  0.66666667
 q=   0.16666667  0.16666667  0.66666667
 q=  -0.66666667  0.16666667 -0.16666667
 q=  -0.16666667  0.16666667 -0.66666667
 q=  -0.66666667 -0.16666667 -0.16666667
 q=   0.16666667  0.16666667 -0.66666667
 q=   0.66666667  0.16666667 -0.16666667
 q=  -0.16666667 -0.16666667 -0.66666667
 q=  -0.66666667  0.16666667  0.16666667
 q=  -0.16666667  0.16666667  0.66666667
  reading force constants from file aluminium.dyn31
  nqs=           24
 q=   0.75000000 -0.25000000  0.75000000
 q=  -0.75000000 -0.25000000  0.75000000
 q=  -0.75000000 -0.25000000 -0.75000000
 q=   0.75000000 -0.25000000 -0.75000000
 q=  -0.75000000  0.25000000 -0.75000000
 q=  -0.25000000  0.75000000 -0.75000000
 q=  -0.75000000  0.75000000 -0.25000000
 q=   0.75000000  0.25000000  0.75000000
 q=  -0.75000000  0.25000000  0.75000000
 q=   0.75000000  0.25000000 -0.75000000
 q=  -0.75000000  0.75000000  0.25000000
 q=  -0.25000000  0.75000000  0.75000000
 q=   0.25000000  0.75000000 -0.75000000
 q=  -0.25000000 -0.75000000 -0.75000000
 q=   0.75000000  0.75000000 -0.25000000
 q=  -0.75000000 -0.75000000 -0.25000000
 q=   0.25000000 -0.75000000  0.75000000
 q=   0.75000000 -0.75000000  0.25000000
 q=   0.25000000  0.75000000  0.75000000
 q=  -0.75000000 -0.75000000  0.25000000
 q=  -0.25000000 -0.75000000  0.75000000
 q=   0.75000000  0.75000000  0.25000000
 q=   0.25000000 -0.75000000 -0.75000000
 q=   0.75000000 -0.75000000 -0.25000000
  reading force constants from file aluminium.dyn32
  nqs=           24
 q=   0.66666667 -0.16666667  0.66666667
 q=  -0.66666667 -0.16666667  0.66666667
 q=  -0.66666667 -0.16666667 -0.66666667
 q=   0.66666667 -0.16666667 -0.66666667
 q=  -0.66666667  0.16666667 -0.66666667
 q=  -0.16666667  0.66666667 -0.66666667
 q=  -0.66666667  0.66666667 -0.16666667
 q=   0.66666667  0.16666667  0.66666667
 q=  -0.66666667  0.16666667  0.66666667
 q=   0.66666667  0.16666667 -0.66666667
 q=  -0.66666667  0.66666667  0.16666667
 q=  -0.16666667  0.66666667  0.66666667
 q=   0.16666667  0.66666667 -0.66666667
 q=  -0.16666667 -0.66666667 -0.66666667
 q=   0.66666667  0.66666667 -0.16666667
 q=  -0.66666667 -0.66666667 -0.16666667
 q=   0.16666667 -0.66666667  0.66666667
 q=   0.66666667 -0.66666667  0.16666667
 q=   0.16666667  0.66666667  0.66666667
 q=  -0.66666667 -0.66666667  0.16666667
 q=  -0.16666667 -0.66666667  0.66666667
 q=   0.66666667  0.66666667  0.16666667
 q=   0.16666667 -0.66666667 -0.66666667
 q=   0.66666667 -0.66666667 -0.16666667
  reading force constants from file aluminium.dyn33
  nqs=           24
 q=   0.58333333 -0.08333333  0.58333333
 q=  -0.58333333 -0.08333333  0.58333333
 q=  -0.58333333 -0.08333333 -0.58333333
 q=   0.58333333 -0.08333333 -0.58333333
 q=  -0.58333333  0.08333333 -0.58333333
 q=  -0.08333333  0.58333333 -0.58333333
 q=  -0.58333333  0.58333333 -0.08333333
 q=   0.58333333  0.08333333  0.58333333
 q=  -0.58333333  0.08333333  0.58333333
 q=   0.58333333  0.08333333 -0.58333333
 q=  -0.58333333  0.58333333  0.08333333
 q=  -0.08333333  0.58333333  0.58333333
 q=   0.08333333  0.58333333 -0.58333333
 q=  -0.08333333 -0.58333333 -0.58333333
 q=   0.58333333  0.58333333 -0.08333333
 q=  -0.58333333 -0.58333333 -0.08333333
 q=   0.08333333 -0.58333333  0.58333333
 q=   0.58333333 -0.58333333  0.08333333
 q=   0.08333333  0.58333333  0.58333333
 q=  -0.58333333 -0.58333333  0.08333333
 q=  -0.08333333 -0.58333333  0.58333333
 q=   0.58333333  0.58333333  0.08333333
 q=   0.08333333 -0.58333333 -0.58333333
 q=   0.58333333 -0.58333333 -0.08333333
  reading force constants from file aluminium.dyn34
  nqs=           12
 q=   0.50000000  0.00000000  0.50000000
 q=  -0.50000000  0.00000000  0.50000000
 q=   0.50000000  0.00000000 -0.50000000
 q=  -0.50000000  0.00000000 -0.50000000
 q=   0.00000000  0.50000000 -0.50000000
 q=  -0.50000000  0.50000000  0.00000000
 q=   0.00000000  0.50000000  0.50000000
 q=   0.00000000 -0.50000000 -0.50000000
 q=   0.50000000  0.50000000  0.00000000
 q=  -0.50000000 -0.50000000  0.00000000
 q=   0.00000000 -0.50000000  0.50000000
 q=   0.50000000 -0.50000000  0.00000000
  reading force constants from file aluminium.dyn35
  nqs=            6
 q=   0.00000000  0.66666667  0.00000000
 q=   0.00000000 -0.66666667  0.00000000
 q=   0.66666667  0.00000000  0.00000000
 q=   0.00000000  0.00000000  0.66666667
 q=   0.00000000  0.00000000 -0.66666667
 q=  -0.66666667  0.00000000  0.00000000
  reading force constants from file aluminium.dyn36
  nqs=           24
 q=  -0.08333333  0.75000000 -0.08333333
 q=   0.08333333  0.75000000 -0.08333333
 q=  -0.08333333  0.75000000  0.08333333
 q=   0.08333333  0.75000000  0.08333333
 q=   0.08333333 -0.75000000  0.08333333
 q=   0.75000000 -0.08333333  0.08333333
 q=   0.08333333 -0.08333333  0.75000000
 q=  -0.08333333 -0.75000000 -0.08333333
 q=   0.08333333 -0.75000000 -0.08333333
 q=  -0.08333333 -0.75000000  0.08333333
 q=   0.08333333 -0.08333333 -0.75000000
 q=   0.75000000 -0.08333333 -0.08333333
 q=  -0.75000000 -0.08333333  0.08333333
 q=   0.75000000  0.08333333  0.08333333
 q=  -0.08333333 -0.08333333  0.75000000
 q=   0.08333333  0.08333333  0.75000000
 q=  -0.75000000  0.08333333 -0.08333333
 q=  -0.08333333  0.08333333 -0.75000000
 q=  -0.75000000 -0.08333333 -0.08333333
 q=   0.08333333  0.08333333 -0.75000000
 q=   0.75000000  0.08333333 -0.08333333
 q=  -0.08333333 -0.08333333 -0.75000000
 q=  -0.75000000  0.08333333  0.08333333
 q=  -0.08333333  0.08333333  0.75000000
  reading force constants from file aluminium.dyn37
  nqs=           24
 q=   0.83333333 -0.16666667  0.83333333
 q=  -0.83333333 -0.16666667  0.83333333
 q=   0.83333333 -0.16666667 -0.83333333
 q=  -0.83333333 -0.16666667 -0.83333333
 q=  -0.83333333  0.16666667 -0.83333333
 q=  -0.16666667  0.83333333 -0.83333333
 q=  -0.83333333  0.83333333 -0.16666667
 q=   0.83333333  0.16666667  0.83333333
 q=  -0.83333333  0.16666667  0.83333333
 q=   0.83333333  0.16666667 -0.83333333
 q=  -0.83333333  0.83333333  0.16666667
 q=  -0.16666667  0.83333333  0.83333333
 q=   0.16666667  0.83333333 -0.83333333
 q=  -0.16666667 -0.83333333 -0.83333333
 q=   0.83333333  0.83333333 -0.16666667
 q=  -0.83333333 -0.83333333 -0.16666667
 q=   0.16666667 -0.83333333  0.83333333
 q=   0.83333333 -0.83333333  0.16666667
 q=   0.16666667  0.83333333  0.83333333
 q=  -0.83333333 -0.83333333  0.16666667
 q=  -0.16666667 -0.83333333  0.83333333
 q=   0.83333333  0.83333333  0.16666667
 q=   0.16666667 -0.83333333 -0.83333333
 q=   0.83333333 -0.83333333 -0.16666667
  reading force constants from file aluminium.dyn38
  nqs=           24
 q=   0.75000000 -0.08333333  0.75000000
 q=  -0.75000000 -0.08333333  0.75000000
 q=   0.75000000 -0.08333333 -0.75000000
 q=  -0.75000000 -0.08333333 -0.75000000
 q=  -0.75000000  0.08333333 -0.75000000
 q=  -0.08333333  0.75000000 -0.75000000
 q=  -0.75000000  0.75000000 -0.08333333
 q=   0.75000000  0.08333333  0.75000000
 q=  -0.75000000  0.08333333  0.75000000
 q=   0.75000000  0.08333333 -0.75000000
 q=  -0.75000000  0.75000000  0.08333333
 q=  -0.08333333  0.75000000  0.75000000
 q=   0.08333333  0.75000000 -0.75000000
 q=  -0.08333333 -0.75000000 -0.75000000
 q=   0.75000000  0.75000000 -0.08333333
 q=  -0.75000000 -0.75000000 -0.08333333
 q=   0.08333333 -0.75000000  0.75000000
 q=   0.75000000 -0.75000000  0.08333333
 q=   0.08333333  0.75000000  0.75000000
 q=  -0.75000000 -0.75000000  0.08333333
 q=  -0.08333333 -0.75000000  0.75000000
 q=   0.75000000  0.75000000  0.08333333
 q=   0.08333333 -0.75000000 -0.75000000
 q=   0.75000000 -0.75000000 -0.08333333
  reading force constants from file aluminium.dyn39
  nqs=           12
 q=   0.66666667  0.00000000  0.66666667
 q=  -0.66666667  0.00000000 -0.66666667
 q=   0.66666667  0.00000000 -0.66666667
 q=  -0.66666667  0.00000000  0.66666667
 q=   0.00000000  0.66666667 -0.66666667
 q=  -0.66666667  0.66666667  0.00000000
 q=   0.00000000  0.66666667  0.66666667
 q=   0.00000000 -0.66666667 -0.66666667
 q=   0.66666667  0.66666667  0.00000000
 q=  -0.66666667 -0.66666667  0.00000000
 q=   0.00000000 -0.66666667  0.66666667
 q=   0.66666667 -0.66666667  0.00000000
  reading force constants from file aluminium.dyn40
  nqs=            6
 q=   0.00000000  0.83333333  0.00000000
 q=   0.00000000 -0.83333333  0.00000000
 q=   0.83333333  0.00000000  0.00000000
 q=   0.00000000  0.00000000  0.83333333
 q=   0.00000000  0.00000000 -0.83333333
 q=  -0.83333333  0.00000000  0.00000000
  reading force constants from file aluminium.dyn41
  nqs=           24
 q=   0.91666667 -0.08333333  0.91666667
 q=  -0.91666667 -0.08333333 -0.91666667
 q=   0.91666667 -0.08333333 -0.91666667
 q=  -0.91666667 -0.08333333  0.91666667
 q=  -0.91666667  0.08333333 -0.91666667
 q=  -0.08333333  0.91666667 -0.91666667
 q=  -0.91666667  0.91666667 -0.08333333
 q=   0.91666667  0.08333333  0.91666667
 q=  -0.91666667  0.08333333  0.91666667
 q=   0.91666667  0.08333333 -0.91666667
 q=  -0.91666667  0.91666667  0.08333333
 q=  -0.08333333  0.91666667  0.91666667
 q=   0.08333333  0.91666667 -0.91666667
 q=  -0.08333333 -0.91666667 -0.91666667
 q=   0.91666667  0.91666667 -0.08333333
 q=  -0.91666667 -0.91666667 -0.08333333
 q=   0.08333333 -0.91666667  0.91666667
 q=   0.91666667 -0.91666667  0.08333333
 q=   0.08333333  0.91666667  0.91666667
 q=  -0.91666667 -0.91666667  0.08333333
 q=  -0.08333333 -0.91666667  0.91666667
 q=   0.91666667  0.91666667  0.08333333
 q=   0.08333333 -0.91666667 -0.91666667
 q=   0.91666667 -0.91666667 -0.08333333
  reading force constants from file aluminium.dyn42
  nqs=           12
 q=   0.83333333  0.00000000  0.83333333
 q=  -0.83333333  0.00000000  0.83333333
 q=  -0.83333333  0.00000000 -0.83333333
 q=   0.83333333  0.00000000 -0.83333333
 q=   0.00000000  0.83333333 -0.83333333
 q=  -0.83333333  0.83333333  0.00000000
 q=   0.00000000  0.83333333  0.83333333
 q=   0.00000000 -0.83333333 -0.83333333
 q=   0.83333333  0.83333333  0.00000000
 q=  -0.83333333 -0.83333333  0.00000000
 q=   0.00000000 -0.83333333  0.83333333
 q=   0.83333333 -0.83333333  0.00000000
  reading force constants from file aluminium.dyn43
  nqs=            3
 q=   0.00000000 -1.00000000  0.00000000
 q=  -1.00000000  0.00000000  0.00000000
 q=   0.00000000  0.00000000 -1.00000000
  reading force constants from file aluminium.dyn44
  nqs=           24
 q=  -0.16666667  0.33333333  0.00000000
 q=   0.00000000 -0.33333333 -0.16666667
 q=  -0.16666667 -0.33333333  0.00000000
 q=   0.00000000  0.33333333 -0.16666667
 q=   0.16666667  0.33333333  0.00000000
 q=   0.00000000 -0.33333333  0.16666667
 q=   0.00000000  0.33333333  0.16666667
 q=   0.16666667 -0.33333333  0.00000000
 q=   0.33333333  0.00000000 -0.16666667
 q=  -0.33333333  0.00000000  0.16666667
 q=   0.33333333  0.00000000  0.16666667
 q=   0.33333333 -0.16666667  0.00000000
 q=   0.00000000 -0.16666667  0.33333333
 q=   0.00000000  0.16666667  0.33333333
 q=   0.00000000 -0.16666667 -0.33333333
 q=  -0.33333333  0.16666667  0.00000000
 q=  -0.33333333  0.00000000 -0.16666667
 q=  -0.16666667  0.00000000 -0.33333333
 q=  -0.33333333 -0.16666667  0.00000000
 q=   0.33333333  0.16666667  0.00000000
 q=   0.16666667  0.00000000 -0.33333333
 q=   0.00000000  0.16666667 -0.33333333
 q=  -0.16666667  0.00000000  0.33333333
 q=   0.16666667  0.00000000  0.33333333
  reading force constants from file aluminium.dyn45
  nqs=           48
 q=  -0.25000000  0.41666667 -0.08333333
 q=  -0.25000000  0.41666667  0.08333333
 q=  -0.08333333 -0.41666667 -0.25000000
 q=  -0.25000000 -0.41666667 -0.08333333
 q=   0.08333333  0.41666667 -0.25000000
 q=   0.25000000  0.41666667  0.08333333
 q=   0.25000000  0.41666667 -0.08333333
 q=  -0.08333333  0.41666667 -0.25000000
 q=   0.08333333 -0.41666667  0.25000000
 q=   0.08333333  0.41666667  0.25000000
 q=   0.08333333 -0.41666667 -0.25000000
 q=  -0.08333333 -0.41666667  0.25000000
 q=   0.25000000 -0.41666667 -0.08333333
 q=  -0.08333333  0.41666667  0.25000000
 q=  -0.25000000 -0.41666667  0.08333333
 q=   0.25000000 -0.41666667  0.08333333
 q=   0.41666667 -0.08333333 -0.25000000
 q=  -0.41666667 -0.08333333  0.25000000
 q=   0.41666667  0.08333333  0.25000000
 q=   0.41666667 -0.25000000  0.08333333
 q=  -0.08333333 -0.25000000  0.41666667
 q=   0.41666667 -0.08333333  0.25000000
 q=   0.08333333  0.25000000  0.41666667
 q=   0.08333333 -0.25000000 -0.41666667
 q=  -0.41666667  0.25000000 -0.08333333
 q=  -0.41666667  0.08333333 -0.25000000
 q=  -0.25000000  0.08333333 -0.41666667
 q=   0.08333333 -0.25000000  0.41666667
 q=  -0.41666667 -0.25000000 -0.08333333
 q=   0.41666667 -0.25000000 -0.08333333
 q=  -0.41666667 -0.25000000  0.08333333
 q=   0.41666667  0.25000000  0.08333333
 q=   0.25000000  0.08333333 -0.41666667
 q=   0.41666667  0.25000000 -0.08333333
 q=  -0.08333333  0.25000000 -0.41666667
 q=  -0.25000000 -0.08333333 -0.41666667
 q=  -0.41666667  0.25000000  0.08333333
 q=  -0.25000000 -0.08333333  0.41666667
 q=   0.25000000 -0.08333333  0.41666667
 q=   0.25000000 -0.08333333 -0.41666667
 q=  -0.41666667  0.08333333  0.25000000
 q=   0.41666667  0.08333333 -0.25000000
 q=  -0.41666667 -0.08333333 -0.25000000
 q=  -0.25000000  0.08333333  0.41666667
 q=   0.08333333  0.25000000 -0.41666667
 q=   0.25000000  0.08333333  0.41666667
 q=  -0.08333333 -0.25000000 -0.41666667
 q=  -0.08333333  0.25000000  0.41666667
  reading force constants from file aluminium.dyn46
  nqs=           48
 q=  -0.33333333  0.50000000 -0.16666667
 q=  -0.33333333  0.50000000  0.16666667
 q=  -0.16666667 -0.50000000 -0.33333333
 q=  -0.33333333 -0.50000000 -0.16666667
 q=   0.16666667  0.50000000 -0.33333333
 q=   0.33333333  0.50000000  0.16666667
 q=   0.33333333  0.50000000 -0.16666667
 q=  -0.16666667  0.50000000 -0.33333333
 q=   0.16666667 -0.50000000  0.33333333
 q=   0.16666667  0.50000000  0.33333333
 q=   0.16666667 -0.50000000 -0.33333333
 q=  -0.16666667 -0.50000000  0.33333333
 q=   0.33333333 -0.50000000 -0.16666667
 q=  -0.16666667  0.50000000  0.33333333
 q=  -0.33333333 -0.50000000  0.16666667
 q=   0.33333333 -0.50000000  0.16666667
 q=   0.50000000 -0.16666667 -0.33333333
 q=  -0.50000000 -0.16666667  0.33333333
 q=   0.50000000  0.16666667  0.33333333
 q=   0.50000000 -0.33333333  0.16666667
 q=  -0.16666667 -0.33333333  0.50000000
 q=   0.50000000 -0.16666667  0.33333333
 q=   0.16666667  0.33333333  0.50000000
 q=   0.16666667 -0.33333333 -0.50000000
 q=  -0.50000000  0.33333333 -0.16666667
 q=  -0.50000000  0.16666667 -0.33333333
 q=  -0.33333333  0.16666667 -0.50000000
 q=   0.16666667 -0.33333333  0.50000000
 q=  -0.50000000 -0.33333333 -0.16666667
 q=   0.50000000 -0.33333333 -0.16666667
 q=  -0.50000000 -0.33333333  0.16666667
 q=   0.50000000  0.33333333  0.16666667
 q=   0.33333333  0.16666667 -0.50000000
 q=   0.50000000  0.33333333 -0.16666667
 q=  -0.16666667  0.33333333 -0.50000000
 q=  -0.33333333 -0.16666667 -0.50000000
 q=  -0.50000000  0.33333333  0.16666667
 q=  -0.33333333 -0.16666667  0.50000000
 q=   0.33333333 -0.16666667  0.50000000
 q=   0.33333333 -0.16666667 -0.50000000
 q=  -0.50000000  0.16666667  0.33333333
 q=   0.50000000  0.16666667 -0.33333333
 q=  -0.50000000 -0.16666667 -0.33333333
 q=  -0.33333333  0.16666667  0.50000000
 q=   0.16666667  0.33333333 -0.50000000
 q=   0.33333333  0.16666667  0.50000000
 q=  -0.16666667 -0.33333333 -0.50000000
 q=  -0.16666667  0.33333333  0.50000000
  reading force constants from file aluminium.dyn47
  nqs=           48
 q=   0.58333333 -0.41666667  0.75000000
 q=   0.58333333 -0.41666667 -0.75000000
 q=   0.75000000  0.41666667  0.58333333
 q=   0.58333333  0.41666667  0.75000000
 q=  -0.75000000 -0.41666667  0.58333333
 q=  -0.58333333 -0.41666667 -0.75000000
 q=  -0.58333333 -0.41666667  0.75000000
 q=   0.75000000 -0.41666667  0.58333333
 q=  -0.75000000  0.41666667 -0.58333333
 q=  -0.75000000 -0.41666667 -0.58333333
 q=  -0.75000000  0.41666667  0.58333333
 q=   0.75000000  0.41666667 -0.58333333
 q=  -0.58333333  0.41666667  0.75000000
 q=   0.75000000 -0.41666667 -0.58333333
 q=   0.58333333  0.41666667 -0.75000000
 q=  -0.58333333  0.41666667 -0.75000000
 q=  -0.41666667  0.75000000  0.58333333
 q=   0.41666667  0.75000000 -0.58333333
 q=  -0.41666667 -0.75000000 -0.58333333
 q=  -0.41666667  0.58333333 -0.75000000
 q=   0.75000000  0.58333333 -0.41666667
 q=  -0.41666667  0.75000000 -0.58333333
 q=  -0.75000000 -0.58333333 -0.41666667
 q=  -0.75000000  0.58333333  0.41666667
 q=   0.41666667 -0.58333333  0.75000000
 q=   0.41666667 -0.75000000  0.58333333
 q=   0.58333333 -0.75000000  0.41666667
 q=  -0.75000000  0.58333333 -0.41666667
 q=   0.41666667  0.58333333  0.75000000
 q=  -0.41666667  0.58333333  0.75000000
 q=   0.41666667  0.58333333 -0.75000000
 q=  -0.41666667 -0.58333333 -0.75000000
 q=  -0.58333333 -0.75000000  0.41666667
 q=  -0.41666667 -0.58333333  0.75000000
 q=   0.75000000 -0.58333333  0.41666667
 q=   0.58333333  0.75000000  0.41666667
 q=   0.41666667 -0.58333333 -0.75000000
 q=   0.58333333  0.75000000 -0.41666667
 q=  -0.58333333  0.75000000 -0.41666667
 q=  -0.58333333  0.75000000  0.41666667
 q=   0.41666667 -0.75000000 -0.58333333
 q=  -0.41666667 -0.75000000  0.58333333
 q=   0.41666667  0.75000000  0.58333333
 q=   0.58333333 -0.75000000 -0.41666667
 q=  -0.75000000 -0.58333333  0.41666667
 q=  -0.58333333 -0.75000000 -0.41666667
 q=   0.75000000  0.58333333  0.41666667
 q=   0.75000000 -0.58333333 -0.41666667
  reading force constants from file aluminium.dyn48
  nqs=           24
 q=   0.50000000 -0.33333333  0.66666667
 q=   0.66666667  0.33333333  0.50000000
 q=   0.50000000  0.33333333  0.66666667
 q=  -0.66666667 -0.33333333  0.50000000
 q=  -0.50000000 -0.33333333 -0.66666667
 q=  -0.50000000 -0.33333333  0.66666667
 q=   0.66666667 -0.33333333  0.50000000
 q=  -0.66666667  0.33333333 -0.50000000
 q=  -0.66666667 -0.33333333 -0.50000000
 q=  -0.66666667  0.33333333  0.50000000
 q=   0.66666667  0.33333333 -0.50000000
 q=  -0.50000000  0.33333333  0.66666667
 q=   0.66666667 -0.33333333 -0.50000000
 q=   0.50000000  0.33333333 -0.66666667
 q=  -0.50000000  0.33333333 -0.66666667
 q=  -0.33333333  0.50000000 -0.66666667
 q=   0.66666667  0.50000000 -0.33333333
 q=  -0.66666667 -0.50000000 -0.33333333
 q=  -0.66666667  0.50000000  0.33333333
 q=   0.33333333 -0.50000000  0.66666667
 q=  -0.33333333  0.50000000  0.66666667
 q=   0.33333333  0.50000000 -0.66666667
 q=  -0.33333333 -0.50000000 -0.66666667
 q=   0.50000000 -0.33333333 -0.66666667
  reading force constants from file aluminium.dyn49
  nqs=           24
 q=  -0.16666667  0.50000000  0.00000000
 q=   0.00000000 -0.50000000 -0.16666667
 q=  -0.16666667 -0.50000000  0.00000000
 q=   0.00000000  0.50000000 -0.16666667
 q=   0.16666667  0.50000000  0.00000000
 q=   0.00000000 -0.50000000  0.16666667
 q=   0.00000000  0.50000000  0.16666667
 q=   0.16666667 -0.50000000  0.00000000
 q=   0.50000000  0.00000000 -0.16666667
 q=  -0.50000000  0.00000000  0.16666667
 q=   0.50000000  0.00000000  0.16666667
 q=   0.50000000 -0.16666667  0.00000000
 q=   0.00000000 -0.16666667  0.50000000
 q=   0.00000000  0.16666667  0.50000000
 q=   0.00000000 -0.16666667 -0.50000000
 q=  -0.50000000  0.16666667  0.00000000
 q=  -0.50000000  0.00000000 -0.16666667
 q=  -0.16666667  0.00000000 -0.50000000
 q=  -0.50000000 -0.16666667  0.00000000
 q=   0.50000000  0.16666667  0.00000000
 q=   0.16666667  0.00000000 -0.50000000
 q=   0.00000000  0.16666667 -0.50000000
 q=  -0.16666667  0.00000000  0.50000000
 q=   0.16666667  0.00000000  0.50000000
  reading force constants from file aluminium.dyn50
  nqs=           48
 q=  -0.25000000  0.58333333 -0.08333333
 q=  -0.25000000  0.58333333  0.08333333
 q=  -0.08333333 -0.58333333 -0.25000000
 q=  -0.25000000 -0.58333333 -0.08333333
 q=   0.08333333  0.58333333 -0.25000000
 q=   0.25000000  0.58333333  0.08333333
 q=   0.25000000  0.58333333 -0.08333333
 q=  -0.08333333  0.58333333 -0.25000000
 q=   0.08333333 -0.58333333  0.25000000
 q=   0.08333333  0.58333333  0.25000000
 q=   0.08333333 -0.58333333 -0.25000000
 q=  -0.08333333 -0.58333333  0.25000000
 q=   0.25000000 -0.58333333 -0.08333333
 q=  -0.08333333  0.58333333  0.25000000
 q=  -0.25000000 -0.58333333  0.08333333
 q=   0.25000000 -0.58333333  0.08333333
 q=   0.58333333 -0.08333333 -0.25000000
 q=  -0.58333333 -0.08333333  0.25000000
 q=   0.58333333  0.08333333  0.25000000
 q=   0.58333333 -0.25000000  0.08333333
 q=  -0.08333333 -0.25000000  0.58333333
 q=   0.58333333 -0.08333333  0.25000000
 q=   0.08333333  0.25000000  0.58333333
 q=   0.08333333 -0.25000000 -0.58333333
 q=  -0.58333333  0.25000000 -0.08333333
 q=  -0.58333333  0.08333333 -0.25000000
 q=  -0.25000000  0.08333333 -0.58333333
 q=   0.08333333 -0.25000000  0.58333333
 q=  -0.58333333 -0.25000000 -0.08333333
 q=   0.58333333 -0.25000000 -0.08333333
 q=  -0.58333333 -0.25000000  0.08333333
 q=   0.58333333  0.25000000  0.08333333
 q=   0.25000000  0.08333333 -0.58333333
 q=   0.58333333  0.25000000 -0.08333333
 q=  -0.08333333  0.25000000 -0.58333333
 q=  -0.25000000 -0.08333333 -0.58333333
 q=  -0.58333333  0.25000000  0.08333333
 q=  -0.25000000 -0.08333333  0.58333333
 q=   0.25000000 -0.08333333  0.58333333
 q=   0.25000000 -0.08333333 -0.58333333
 q=  -0.58333333  0.08333333  0.25000000
 q=   0.58333333  0.08333333 -0.25000000
 q=  -0.58333333 -0.08333333 -0.25000000
 q=  -0.25000000  0.08333333  0.58333333
 q=   0.08333333  0.25000000 -0.58333333
 q=   0.25000000  0.08333333  0.58333333
 q=  -0.08333333 -0.25000000 -0.58333333
 q=  -0.08333333  0.25000000  0.58333333
  reading force constants from file aluminium.dyn51
  nqs=           48
 q=   0.66666667 -0.33333333  0.83333333
 q=   0.66666667 -0.33333333 -0.83333333
 q=   0.83333333  0.33333333  0.66666667
 q=   0.66666667  0.33333333  0.83333333
 q=  -0.83333333 -0.33333333  0.66666667
 q=  -0.66666667 -0.33333333 -0.83333333
 q=  -0.66666667 -0.33333333  0.83333333
 q=   0.83333333 -0.33333333  0.66666667
 q=  -0.83333333  0.33333333 -0.66666667
 q=  -0.83333333 -0.33333333 -0.66666667
 q=  -0.83333333  0.33333333  0.66666667
 q=   0.83333333  0.33333333 -0.66666667
 q=  -0.66666667  0.33333333  0.83333333
 q=   0.83333333 -0.33333333 -0.66666667
 q=   0.66666667  0.33333333 -0.83333333
 q=  -0.66666667  0.33333333 -0.83333333
 q=  -0.33333333  0.83333333  0.66666667
 q=   0.33333333  0.83333333 -0.66666667
 q=  -0.33333333 -0.83333333 -0.66666667
 q=  -0.33333333  0.66666667 -0.83333333
 q=   0.83333333  0.66666667 -0.33333333
 q=  -0.33333333  0.83333333 -0.66666667
 q=  -0.83333333 -0.66666667 -0.33333333
 q=  -0.83333333  0.66666667  0.33333333
 q=   0.33333333 -0.66666667  0.83333333
 q=   0.33333333 -0.83333333  0.66666667
 q=   0.66666667 -0.83333333  0.33333333
 q=  -0.83333333  0.66666667 -0.33333333
 q=   0.33333333  0.66666667  0.83333333
 q=  -0.33333333  0.66666667  0.83333333
 q=   0.33333333  0.66666667 -0.83333333
 q=  -0.33333333 -0.66666667 -0.83333333
 q=  -0.66666667 -0.83333333  0.33333333
 q=  -0.33333333 -0.66666667  0.83333333
 q=   0.83333333 -0.66666667  0.33333333
 q=   0.66666667  0.83333333  0.33333333
 q=   0.33333333 -0.66666667 -0.83333333
 q=   0.66666667  0.83333333 -0.33333333
 q=  -0.66666667  0.83333333 -0.33333333
 q=  -0.66666667  0.83333333  0.33333333
 q=   0.33333333 -0.83333333 -0.66666667
 q=  -0.33333333 -0.83333333  0.66666667
 q=   0.33333333  0.83333333  0.66666667
 q=   0.66666667 -0.83333333 -0.33333333
 q=  -0.83333333 -0.66666667  0.33333333
 q=  -0.66666667 -0.83333333 -0.33333333
 q=   0.83333333  0.66666667  0.33333333
 q=   0.83333333 -0.66666667 -0.33333333
  reading force constants from file aluminium.dyn52
  nqs=           48
 q=   0.58333333 -0.25000000  0.75000000
 q=   0.58333333 -0.25000000 -0.75000000
 q=   0.75000000  0.25000000  0.58333333
 q=   0.58333333  0.25000000  0.75000000
 q=  -0.75000000 -0.25000000  0.58333333
 q=  -0.58333333 -0.25000000 -0.75000000
 q=  -0.58333333 -0.25000000  0.75000000
 q=   0.75000000 -0.25000000  0.58333333
 q=  -0.75000000  0.25000000 -0.58333333
 q=  -0.75000000 -0.25000000 -0.58333333
 q=  -0.75000000  0.25000000  0.58333333
 q=   0.75000000  0.25000000 -0.58333333
 q=  -0.58333333  0.25000000  0.75000000
 q=   0.75000000 -0.25000000 -0.58333333
 q=   0.58333333  0.25000000 -0.75000000
 q=  -0.58333333  0.25000000 -0.75000000
 q=  -0.25000000  0.75000000  0.58333333
 q=   0.25000000  0.75000000 -0.58333333
 q=  -0.25000000 -0.75000000 -0.58333333
 q=  -0.25000000  0.58333333 -0.75000000
 q=   0.75000000  0.58333333 -0.25000000
 q=  -0.25000000  0.75000000 -0.58333333
 q=  -0.75000000 -0.58333333 -0.25000000
 q=  -0.75000000  0.58333333  0.25000000
 q=   0.25000000 -0.58333333  0.75000000
 q=   0.25000000 -0.75000000  0.58333333
 q=   0.58333333 -0.75000000  0.25000000
 q=  -0.75000000  0.58333333 -0.25000000
 q=   0.25000000  0.58333333  0.75000000
 q=  -0.25000000  0.58333333  0.75000000
 q=   0.25000000  0.58333333 -0.75000000
 q=  -0.25000000 -0.58333333 -0.75000000
 q=  -0.58333333 -0.75000000  0.25000000
 q=  -0.25000000 -0.58333333  0.75000000
 q=   0.75000000 -0.58333333  0.25000000
 q=   0.58333333  0.75000000  0.25000000
 q=   0.25000000 -0.58333333 -0.75000000
 q=   0.58333333  0.75000000 -0.25000000
 q=  -0.58333333  0.75000000 -0.25000000
 q=  -0.58333333  0.75000000  0.25000000
 q=   0.25000000 -0.75000000 -0.58333333
 q=  -0.25000000 -0.75000000  0.58333333
 q=   0.25000000  0.75000000  0.58333333
 q=   0.58333333 -0.75000000 -0.25000000
 q=  -0.75000000 -0.58333333  0.25000000
 q=  -0.58333333 -0.75000000 -0.25000000
 q=   0.75000000  0.58333333  0.25000000
 q=   0.75000000 -0.58333333 -0.25000000
  reading force constants from file aluminium.dyn53
  nqs=           48
 q=   0.50000000 -0.16666667  0.66666667
 q=   0.50000000 -0.16666667 -0.66666667
 q=   0.66666667  0.16666667  0.50000000
 q=   0.50000000  0.16666667  0.66666667
 q=  -0.66666667 -0.16666667  0.50000000
 q=  -0.50000000 -0.16666667 -0.66666667
 q=  -0.50000000 -0.16666667  0.66666667
 q=   0.66666667 -0.16666667  0.50000000
 q=  -0.66666667  0.16666667 -0.50000000
 q=  -0.66666667 -0.16666667 -0.50000000
 q=  -0.66666667  0.16666667  0.50000000
 q=   0.66666667  0.16666667 -0.50000000
 q=  -0.50000000  0.16666667  0.66666667
 q=   0.66666667 -0.16666667 -0.50000000
 q=   0.50000000  0.16666667 -0.66666667
 q=  -0.50000000  0.16666667 -0.66666667
 q=  -0.16666667  0.66666667  0.50000000
 q=   0.16666667  0.66666667 -0.50000000
 q=  -0.16666667 -0.66666667 -0.50000000
 q=  -0.16666667  0.50000000 -0.66666667
 q=   0.66666667  0.50000000 -0.16666667
 q=  -0.16666667  0.66666667 -0.50000000
 q=  -0.66666667 -0.50000000 -0.16666667
 q=  -0.66666667  0.50000000  0.16666667
 q=   0.16666667 -0.50000000  0.66666667
 q=   0.16666667 -0.66666667  0.50000000
 q=   0.50000000 -0.66666667  0.16666667
 q=  -0.66666667  0.50000000 -0.16666667
 q=   0.16666667  0.50000000  0.66666667
 q=  -0.16666667  0.50000000  0.66666667
 q=   0.16666667  0.50000000 -0.66666667
 q=  -0.16666667 -0.50000000 -0.66666667
 q=  -0.50000000 -0.66666667  0.16666667
 q=  -0.16666667 -0.50000000  0.66666667
 q=   0.66666667 -0.50000000  0.16666667
 q=   0.50000000  0.66666667  0.16666667
 q=   0.16666667 -0.50000000 -0.66666667
 q=   0.50000000  0.66666667 -0.16666667
 q=  -0.50000000  0.66666667 -0.16666667
 q=  -0.50000000  0.66666667  0.16666667
 q=   0.16666667 -0.66666667 -0.50000000
 q=  -0.16666667 -0.66666667  0.50000000
 q=   0.16666667  0.66666667  0.50000000
 q=   0.50000000 -0.66666667 -0.16666667
 q=  -0.66666667 -0.50000000  0.16666667
 q=  -0.50000000 -0.66666667 -0.16666667
 q=   0.66666667  0.50000000  0.16666667
 q=   0.66666667 -0.50000000 -0.16666667
  reading force constants from file aluminium.dyn54
  nqs=           48
 q=   0.41666667 -0.08333333  0.58333333
 q=   0.41666667 -0.08333333 -0.58333333
 q=   0.58333333  0.08333333  0.41666667
 q=   0.41666667  0.08333333  0.58333333
 q=  -0.58333333 -0.08333333  0.41666667
 q=  -0.41666667 -0.08333333 -0.58333333
 q=  -0.41666667 -0.08333333  0.58333333
 q=   0.58333333 -0.08333333  0.41666667
 q=  -0.58333333  0.08333333 -0.41666667
 q=  -0.58333333 -0.08333333 -0.41666667
 q=  -0.58333333  0.08333333  0.41666667
 q=   0.58333333  0.08333333 -0.41666667
 q=  -0.41666667  0.08333333  0.58333333
 q=   0.58333333 -0.08333333 -0.41666667
 q=   0.41666667  0.08333333 -0.58333333
 q=  -0.41666667  0.08333333 -0.58333333
 q=  -0.08333333  0.58333333  0.41666667
 q=   0.08333333  0.58333333 -0.41666667
 q=  -0.08333333 -0.58333333 -0.41666667
 q=  -0.08333333  0.41666667 -0.58333333
 q=   0.58333333  0.41666667 -0.08333333
 q=  -0.08333333  0.58333333 -0.41666667
 q=  -0.58333333 -0.41666667 -0.08333333
 q=  -0.58333333  0.41666667  0.08333333
 q=   0.08333333 -0.41666667  0.58333333
 q=   0.08333333 -0.58333333  0.41666667
 q=   0.41666667 -0.58333333  0.08333333
 q=  -0.58333333  0.41666667 -0.08333333
 q=   0.08333333  0.41666667  0.58333333
 q=  -0.08333333  0.41666667  0.58333333
 q=   0.08333333  0.41666667 -0.58333333
 q=  -0.08333333 -0.41666667 -0.58333333
 q=  -0.41666667 -0.58333333  0.08333333
 q=  -0.08333333 -0.41666667  0.58333333
 q=   0.58333333 -0.41666667  0.08333333
 q=   0.41666667  0.58333333  0.08333333
 q=   0.08333333 -0.41666667 -0.58333333
 q=   0.41666667  0.58333333 -0.08333333
 q=  -0.41666667  0.58333333 -0.08333333
 q=  -0.41666667  0.58333333  0.08333333
 q=   0.08333333 -0.58333333 -0.41666667
 q=  -0.08333333 -0.58333333  0.41666667
 q=   0.08333333  0.58333333  0.41666667
 q=   0.41666667 -0.58333333 -0.08333333
 q=  -0.58333333 -0.41666667  0.08333333
 q=  -0.41666667 -0.58333333 -0.08333333
 q=   0.58333333  0.41666667  0.08333333
 q=   0.58333333 -0.41666667 -0.08333333
  reading force constants from file aluminium.dyn55
  nqs=           24
 q=   0.33333333  0.00000000  0.50000000
 q=   0.50000000 -0.00000000  0.33333333
 q=   0.33333333  0.00000000 -0.50000000
 q=  -0.50000000  0.00000000  0.33333333
 q=  -0.33333333  0.00000000 -0.50000000
 q=  -0.33333333  0.00000000  0.50000000
 q=  -0.50000000 -0.00000000 -0.33333333
 q=   0.50000000 -0.00000000 -0.33333333
 q=   0.00000000  0.50000000  0.33333333
 q=  -0.00000000  0.50000000 -0.33333333
 q=   0.00000000 -0.50000000 -0.33333333
 q=   0.00000000  0.33333333 -0.50000000
 q=   0.50000000  0.33333333  0.00000000
 q=  -0.50000000 -0.33333333  0.00000000
 q=  -0.50000000  0.33333333 -0.00000000
 q=  -0.00000000 -0.33333333  0.50000000
 q=  -0.00000000 -0.50000000  0.33333333
 q=   0.33333333 -0.50000000 -0.00000000
 q=  -0.00000000  0.33333333  0.50000000
 q=   0.00000000 -0.33333333 -0.50000000
 q=  -0.33333333 -0.50000000 -0.00000000
 q=   0.50000000 -0.33333333 -0.00000000
 q=   0.33333333  0.50000000 -0.00000000
 q=  -0.33333333  0.50000000  0.00000000
  reading force constants from file aluminium.dyn56
  nqs=           24
 q=  -0.16666667  0.66666667 -0.00000000
 q=  -0.00000000 -0.66666667 -0.16666667
 q=  -0.16666667 -0.66666667 -0.00000000
 q=   0.00000000  0.66666667 -0.16666667
 q=   0.16666667  0.66666667  0.00000000
 q=   0.00000000 -0.66666667  0.16666667
 q=   0.00000000  0.66666667  0.16666667
 q=   0.16666667 -0.66666667 -0.00000000
 q=   0.66666667 -0.00000000 -0.16666667
 q=  -0.66666667 -0.00000000  0.16666667
 q=   0.66666667  0.00000000  0.16666667
 q=   0.66666667 -0.16666667  0.00000000
 q=  -0.00000000 -0.16666667  0.66666667
 q=   0.00000000  0.16666667  0.66666667
 q=   0.00000000 -0.16666667 -0.66666667
 q=  -0.66666667  0.16666667 -0.00000000
 q=  -0.66666667  0.00000000 -0.16666667
 q=  -0.16666667  0.00000000 -0.66666667
 q=  -0.66666667 -0.16666667 -0.00000000
 q=   0.66666667  0.16666667  0.00000000
 q=   0.16666667  0.00000000 -0.66666667
 q=  -0.00000000  0.16666667 -0.66666667
 q=  -0.16666667 -0.00000000  0.66666667
 q=   0.16666667 -0.00000000  0.66666667
  reading force constants from file aluminium.dyn57
  nqs=           48
 q=   0.75000000 -0.25000000  0.91666667
 q=   0.75000000 -0.25000000 -0.91666667
 q=   0.91666667  0.25000000  0.75000000
 q=   0.75000000  0.25000000  0.91666667
 q=  -0.91666667 -0.25000000  0.75000000
 q=  -0.75000000 -0.25000000 -0.91666667
 q=  -0.75000000 -0.25000000  0.91666667
 q=   0.91666667 -0.25000000  0.75000000
 q=  -0.91666667  0.25000000 -0.75000000
 q=  -0.91666667 -0.25000000 -0.75000000
 q=  -0.91666667  0.25000000  0.75000000
 q=   0.91666667  0.25000000 -0.75000000
 q=  -0.75000000  0.25000000  0.91666667
 q=   0.91666667 -0.25000000 -0.75000000
 q=   0.75000000  0.25000000 -0.91666667
 q=  -0.75000000  0.25000000 -0.91666667
 q=  -0.25000000  0.91666667  0.75000000
 q=   0.25000000  0.91666667 -0.75000000
 q=  -0.25000000 -0.91666667 -0.75000000
 q=  -0.25000000  0.75000000 -0.91666667
 q=   0.91666667  0.75000000 -0.25000000
 q=  -0.25000000  0.91666667 -0.75000000
 q=  -0.91666667 -0.75000000 -0.25000000
 q=  -0.91666667  0.75000000  0.25000000
 q=   0.25000000 -0.75000000  0.91666667
 q=   0.25000000 -0.91666667  0.75000000
 q=   0.75000000 -0.91666667  0.25000000
 q=  -0.91666667  0.75000000 -0.25000000
 q=   0.25000000  0.75000000  0.91666667
 q=  -0.25000000  0.75000000  0.91666667
 q=   0.25000000  0.75000000 -0.91666667
 q=  -0.25000000 -0.75000000 -0.91666667
 q=  -0.75000000 -0.91666667  0.25000000
 q=  -0.25000000 -0.75000000  0.91666667
 q=   0.91666667 -0.75000000  0.25000000
 q=   0.75000000  0.91666667  0.25000000
 q=   0.25000000 -0.75000000 -0.91666667
 q=   0.75000000  0.91666667 -0.25000000
 q=  -0.75000000  0.91666667 -0.25000000
 q=  -0.75000000  0.91666667  0.25000000
 q=   0.25000000 -0.91666667 -0.75000000
 q=  -0.25000000 -0.91666667  0.75000000
 q=   0.25000000  0.91666667  0.75000000
 q=   0.75000000 -0.91666667 -0.25000000
 q=  -0.91666667 -0.75000000  0.25000000
 q=  -0.75000000 -0.91666667 -0.25000000
 q=   0.91666667  0.75000000  0.25000000
 q=   0.91666667 -0.75000000 -0.25000000
  reading force constants from file aluminium.dyn58
  nqs=           48
 q=   0.66666667 -0.16666667  0.83333333
 q=   0.66666667 -0.16666667 -0.83333333
 q=   0.83333333  0.16666667  0.66666667
 q=   0.66666667  0.16666667  0.83333333
 q=  -0.83333333 -0.16666667  0.66666667
 q=  -0.66666667 -0.16666667 -0.83333333
 q=  -0.66666667 -0.16666667  0.83333333
 q=   0.83333333 -0.16666667  0.66666667
 q=  -0.83333333  0.16666667 -0.66666667
 q=  -0.83333333 -0.16666667 -0.66666667
 q=  -0.83333333  0.16666667  0.66666667
 q=   0.83333333  0.16666667 -0.66666667
 q=  -0.66666667  0.16666667  0.83333333
 q=   0.83333333 -0.16666667 -0.66666667
 q=   0.66666667  0.16666667 -0.83333333
 q=  -0.66666667  0.16666667 -0.83333333
 q=  -0.16666667  0.83333333  0.66666667
 q=   0.16666667  0.83333333 -0.66666667
 q=  -0.16666667 -0.83333333 -0.66666667
 q=  -0.16666667  0.66666667 -0.83333333
 q=   0.83333333  0.66666667 -0.16666667
 q=  -0.16666667  0.83333333 -0.66666667
 q=  -0.83333333 -0.66666667 -0.16666667
 q=  -0.83333333  0.66666667  0.16666667
 q=   0.16666667 -0.66666667  0.83333333
 q=   0.16666667 -0.83333333  0.66666667
 q=   0.66666667 -0.83333333  0.16666667
 q=  -0.83333333  0.66666667 -0.16666667
 q=   0.16666667  0.66666667  0.83333333
 q=  -0.16666667  0.66666667  0.83333333
 q=   0.16666667  0.66666667 -0.83333333
 q=  -0.16666667 -0.66666667 -0.83333333
 q=  -0.66666667 -0.83333333  0.16666667
 q=  -0.16666667 -0.66666667  0.83333333
 q=   0.83333333 -0.66666667  0.16666667
 q=   0.66666667  0.83333333  0.16666667
 q=   0.16666667 -0.66666667 -0.83333333
 q=   0.66666667  0.83333333 -0.16666667
 q=  -0.66666667  0.83333333 -0.16666667
 q=  -0.66666667  0.83333333  0.16666667
 q=   0.16666667 -0.83333333 -0.66666667
 q=  -0.16666667 -0.83333333  0.66666667
 q=   0.16666667  0.83333333  0.66666667
 q=   0.66666667 -0.83333333 -0.16666667
 q=  -0.83333333 -0.66666667  0.16666667
 q=  -0.66666667 -0.83333333 -0.16666667
 q=   0.83333333  0.66666667  0.16666667
 q=   0.83333333 -0.66666667 -0.16666667
  reading force constants from file aluminium.dyn59
  nqs=           48
 q=   0.58333333 -0.08333333  0.75000000
 q=   0.58333333 -0.08333333 -0.75000000
 q=   0.75000000  0.08333333  0.58333333
 q=   0.58333333  0.08333333  0.75000000
 q=  -0.75000000 -0.08333333  0.58333333
 q=  -0.58333333 -0.08333333 -0.75000000
 q=  -0.58333333 -0.08333333  0.75000000
 q=   0.75000000 -0.08333333  0.58333333
 q=  -0.75000000  0.08333333 -0.58333333
 q=  -0.75000000 -0.08333333 -0.58333333
 q=  -0.75000000  0.08333333  0.58333333
 q=   0.75000000  0.08333333 -0.58333333
 q=  -0.58333333  0.08333333  0.75000000
 q=   0.75000000 -0.08333333 -0.58333333
 q=   0.58333333  0.08333333 -0.75000000
 q=  -0.58333333  0.08333333 -0.75000000
 q=  -0.08333333  0.75000000  0.58333333
 q=   0.08333333  0.75000000 -0.58333333
 q=  -0.08333333 -0.75000000 -0.58333333
 q=  -0.08333333  0.58333333 -0.75000000
 q=   0.75000000  0.58333333 -0.08333333
 q=  -0.08333333  0.75000000 -0.58333333
 q=  -0.75000000 -0.58333333 -0.08333333
 q=  -0.75000000  0.58333333  0.08333333
 q=   0.08333333 -0.58333333  0.75000000
 q=   0.08333333 -0.75000000  0.58333333
 q=   0.58333333 -0.75000000  0.08333333
 q=  -0.75000000  0.58333333 -0.08333333
 q=   0.08333333  0.58333333  0.75000000
 q=  -0.08333333  0.58333333  0.75000000
 q=   0.08333333  0.58333333 -0.75000000
 q=  -0.08333333 -0.58333333 -0.75000000
 q=  -0.58333333 -0.75000000  0.08333333
 q=  -0.08333333 -0.58333333  0.75000000
 q=   0.75000000 -0.58333333  0.08333333
 q=   0.58333333  0.75000000  0.08333333
 q=   0.08333333 -0.58333333 -0.75000000
 q=   0.58333333  0.75000000 -0.08333333
 q=  -0.58333333  0.75000000 -0.08333333
 q=  -0.58333333  0.75000000  0.08333333
 q=   0.08333333 -0.75000000 -0.58333333
 q=  -0.08333333 -0.75000000  0.58333333
 q=   0.08333333  0.75000000  0.58333333
 q=   0.58333333 -0.75000000 -0.08333333
 q=  -0.75000000 -0.58333333  0.08333333
 q=  -0.58333333 -0.75000000 -0.08333333
 q=   0.75000000  0.58333333  0.08333333
 q=   0.75000000 -0.58333333 -0.08333333
  reading force constants from file aluminium.dyn60
  nqs=           24
 q=   0.50000000  0.00000000  0.66666667
 q=   0.66666667  0.00000000  0.50000000
 q=   0.50000000 -0.00000000 -0.66666667
 q=  -0.66666667  0.00000000  0.50000000
 q=  -0.50000000  0.00000000 -0.66666667
 q=  -0.50000000  0.00000000  0.66666667
 q=  -0.66666667  0.00000000 -0.50000000
 q=   0.66666667 -0.00000000 -0.50000000
 q=  -0.00000000  0.66666667  0.50000000
 q=   0.00000000  0.66666667 -0.50000000
 q=   0.00000000 -0.66666667 -0.50000000
 q=   0.00000000  0.50000000 -0.66666667
 q=   0.66666667  0.50000000  0.00000000
 q=  -0.66666667 -0.50000000  0.00000000
 q=  -0.66666667  0.50000000  0.00000000
 q=   0.00000000 -0.50000000  0.66666667
 q=   0.00000000 -0.66666667  0.50000000
 q=   0.50000000 -0.66666667  0.00000000
 q=  -0.00000000  0.50000000  0.66666667
 q=   0.00000000 -0.50000000 -0.66666667
 q=  -0.50000000 -0.66666667  0.00000000
 q=   0.66666667 -0.50000000  0.00000000
 q=   0.50000000  0.66666667  0.00000000
 q=  -0.50000000  0.66666667  0.00000000
  reading force constants from file aluminium.dyn61
  nqs=           24
 q=   0.83333333 -0.16666667  1.00000000
 q=   1.00000000  0.16666667  0.83333333
 q=   0.83333333  0.16666667  1.00000000
 q=  -1.00000000 -0.16666667  0.83333333
 q=  -0.83333333 -0.16666667 -1.00000000
 q=  -1.00000000  0.16666667 -0.83333333
 q=  -1.00000000 -0.16666667 -0.83333333
 q=  -0.83333333  0.16666667  1.00000000
 q=  -0.16666667  1.00000000  0.83333333
 q=   0.16666667  1.00000000 -0.83333333
 q=  -0.16666667 -1.00000000 -0.83333333
 q=  -0.16666667  0.83333333 -1.00000000
 q=   1.00000000  0.83333333 -0.16666667
 q=  -1.00000000 -0.83333333 -0.16666667
 q=  -1.00000000  0.83333333  0.16666667
 q=   0.16666667 -0.83333333  1.00000000
 q=   0.16666667 -1.00000000  0.83333333
 q=   0.83333333 -1.00000000  0.16666667
 q=   0.16666667  0.83333333  1.00000000
 q=  -0.16666667 -0.83333333 -1.00000000
 q=  -0.83333333 -1.00000000  0.16666667
 q=   1.00000000 -0.83333333  0.16666667
 q=   0.83333333  1.00000000 -0.16666667
 q=  -0.83333333  1.00000000 -0.16666667
  reading force constants from file aluminium.dyn62
  nqs=           48
 q=   0.75000000 -0.08333333  0.91666667
 q=   0.75000000 -0.08333333 -0.91666667
 q=   0.91666667  0.08333333  0.75000000
 q=   0.75000000  0.08333333  0.91666667
 q=  -0.91666667 -0.08333333  0.75000000
 q=  -0.75000000 -0.08333333 -0.91666667
 q=  -0.75000000 -0.08333333  0.91666667
 q=   0.91666667 -0.08333333  0.75000000
 q=  -0.91666667  0.08333333 -0.75000000
 q=  -0.91666667 -0.08333333 -0.75000000
 q=  -0.91666667  0.08333333  0.75000000
 q=   0.91666667  0.08333333 -0.75000000
 q=  -0.75000000  0.08333333  0.91666667
 q=   0.91666667 -0.08333333 -0.75000000
 q=   0.75000000  0.08333333 -0.91666667
 q=  -0.75000000  0.08333333 -0.91666667
 q=  -0.08333333  0.91666667  0.75000000
 q=   0.08333333  0.91666667 -0.75000000
 q=  -0.08333333 -0.91666667 -0.75000000
 q=  -0.08333333  0.75000000 -0.91666667
 q=   0.91666667  0.75000000 -0.08333333
 q=  -0.08333333  0.91666667 -0.75000000
 q=  -0.91666667 -0.75000000 -0.08333333
 q=  -0.91666667  0.75000000  0.08333333
 q=   0.08333333 -0.75000000  0.91666667
 q=   0.08333333 -0.91666667  0.75000000
 q=   0.75000000 -0.91666667  0.08333333
 q=  -0.91666667  0.75000000 -0.08333333
 q=   0.08333333  0.75000000  0.91666667
 q=  -0.08333333  0.75000000  0.91666667
 q=   0.08333333  0.75000000 -0.91666667
 q=  -0.08333333 -0.75000000 -0.91666667
 q=  -0.75000000 -0.91666667  0.08333333
 q=  -0.08333333 -0.75000000  0.91666667
 q=   0.91666667 -0.75000000  0.08333333
 q=   0.75000000  0.91666667  0.08333333
 q=   0.08333333 -0.75000000 -0.91666667
 q=   0.75000000  0.91666667 -0.08333333
 q=  -0.75000000  0.91666667 -0.08333333
 q=  -0.75000000  0.91666667  0.08333333
 q=   0.08333333 -0.91666667 -0.75000000
 q=  -0.08333333 -0.91666667  0.75000000
 q=   0.08333333  0.91666667  0.75000000
 q=   0.75000000 -0.91666667 -0.08333333
 q=  -0.91666667 -0.75000000  0.08333333
 q=  -0.75000000 -0.91666667 -0.08333333
 q=   0.91666667  0.75000000  0.08333333
 q=   0.91666667 -0.75000000 -0.08333333
  reading force constants from file aluminium.dyn63
  nqs=           24
 q=   0.66666667  0.00000000  0.83333333
 q=   0.83333333  0.00000000  0.66666667
 q=   0.66666667 -0.00000000 -0.83333333
 q=  -0.83333333  0.00000000  0.66666667
 q=  -0.66666667  0.00000000 -0.83333333
 q=  -0.66666667  0.00000000  0.83333333
 q=  -0.83333333  0.00000000 -0.66666667
 q=   0.83333333 -0.00000000 -0.66666667
 q=  -0.00000000  0.83333333  0.66666667
 q=   0.00000000  0.83333333 -0.66666667
 q=   0.00000000 -0.83333333 -0.66666667
 q=   0.00000000  0.66666667 -0.83333333
 q=   0.83333333  0.66666667  0.00000000
 q=  -0.83333333 -0.66666667  0.00000000
 q=  -0.83333333  0.66666667  0.00000000
 q=   0.00000000 -0.66666667  0.83333333
 q=   0.00000000 -0.83333333  0.66666667
 q=   0.66666667 -0.83333333  0.00000000
 q=  -0.00000000  0.66666667  0.83333333
 q=   0.00000000 -0.66666667 -0.83333333
 q=  -0.66666667 -0.83333333  0.00000000
 q=   0.83333333 -0.66666667  0.00000000
 q=   0.66666667  0.83333333  0.00000000
 q=  -0.66666667  0.83333333  0.00000000
  reading force constants from file aluminium.dyn64
  nqs=           12
 q=  -0.16666667 -1.00000000  0.00000000
 q=   0.00000000 -1.00000000 -0.16666667
 q=   0.16666667 -1.00000000  0.00000000
 q=   0.00000000  1.00000000  0.16666667
 q=  -1.00000000  0.00000000 -0.16666667
 q=   1.00000000  0.00000000  0.16666667
 q=  -1.00000000 -0.16666667  0.00000000
 q=  -0.00000000 -0.16666667 -1.00000000
 q=   0.00000000  0.16666667 -1.00000000
 q=   1.00000000  0.16666667  0.00000000
 q=  -0.16666667  0.00000000  1.00000000
 q=   0.16666667  0.00000000  1.00000000
  reading force constants from file aluminium.dyn65
  nqs=           24
 q=   0.66666667 -0.33333333  1.00000000
 q=   0.66666667  0.33333333  1.00000000
 q=  -1.00000000 -0.33333333  0.66666667
 q=  -0.66666667 -0.33333333 -1.00000000
 q=  -1.00000000  0.33333333 -0.66666667
 q=  -1.00000000 -0.33333333 -0.66666667
 q=  -1.00000000  0.33333333  0.66666667
 q=  -0.66666667  0.33333333  1.00000000
 q=  -0.33333333  1.00000000  0.66666667
 q=   0.33333333  1.00000000 -0.66666667
 q=  -0.33333333 -1.00000000 -0.66666667
 q=  -0.33333333  0.66666667 -1.00000000
 q=   1.00000000  0.66666667 -0.33333333
 q=  -1.00000000 -0.66666667 -0.33333333
 q=  -1.00000000  0.66666667  0.33333333
 q=   0.33333333 -0.66666667  1.00000000
 q=   0.33333333 -1.00000000  0.66666667
 q=   0.66666667 -1.00000000  0.33333333
 q=   0.33333333  0.66666667  1.00000000
 q=  -0.33333333 -0.66666667 -1.00000000
 q=  -0.66666667 -1.00000000  0.33333333
 q=   1.00000000 -0.66666667  0.33333333
 q=   0.66666667  1.00000000 -0.33333333
 q=  -0.66666667  1.00000000 -0.33333333
  reading force constants from file aluminium.dyn66
  nqs=           48
 q=   0.58333333 -0.25000000  0.91666667
 q=   0.58333333 -0.25000000 -0.91666667
 q=   0.58333333  0.25000000  0.91666667
 q=   0.58333333  0.25000000 -0.91666667
 q=  -0.91666667 -0.25000000  0.58333333
 q=  -0.58333333 -0.25000000 -0.91666667
 q=  -0.58333333 -0.25000000  0.91666667
 q=   0.91666667 -0.25000000  0.58333333
 q=  -0.91666667  0.25000000 -0.58333333
 q=  -0.91666667 -0.25000000 -0.58333333
 q=  -0.91666667  0.25000000  0.58333333
 q=   0.91666667  0.25000000 -0.58333333
 q=  -0.58333333  0.25000000  0.91666667
 q=   0.91666667 -0.25000000 -0.58333333
 q=   0.91666667  0.25000000  0.58333333
 q=  -0.58333333  0.25000000 -0.91666667
 q=  -0.25000000  0.91666667  0.58333333
 q=   0.25000000  0.91666667 -0.58333333
 q=  -0.25000000 -0.91666667 -0.58333333
 q=  -0.25000000  0.58333333 -0.91666667
 q=   0.91666667  0.58333333 -0.25000000
 q=  -0.25000000  0.91666667 -0.58333333
 q=  -0.91666667 -0.58333333 -0.25000000
 q=  -0.91666667  0.58333333  0.25000000
 q=   0.25000000 -0.58333333  0.91666667
 q=   0.25000000 -0.91666667  0.58333333
 q=   0.58333333 -0.91666667  0.25000000
 q=  -0.91666667  0.58333333 -0.25000000
 q=   0.25000000  0.58333333  0.91666667
 q=  -0.25000000  0.58333333  0.91666667
 q=   0.25000000  0.58333333 -0.91666667
 q=  -0.25000000 -0.58333333 -0.91666667
 q=  -0.58333333 -0.91666667  0.25000000
 q=  -0.25000000 -0.58333333  0.91666667
 q=   0.91666667 -0.58333333  0.25000000
 q=   0.58333333  0.91666667  0.25000000
 q=   0.25000000 -0.58333333 -0.91666667
 q=   0.58333333  0.91666667 -0.25000000
 q=  -0.58333333  0.91666667 -0.25000000
 q=  -0.58333333  0.91666667  0.25000000
 q=   0.25000000 -0.91666667 -0.58333333
 q=  -0.25000000 -0.91666667  0.58333333
 q=   0.25000000  0.91666667  0.58333333
 q=   0.58333333 -0.91666667 -0.25000000
 q=  -0.91666667 -0.58333333  0.25000000
 q=  -0.58333333 -0.91666667 -0.25000000
 q=   0.91666667  0.58333333  0.25000000
 q=   0.91666667 -0.58333333 -0.25000000
  reading force constants from file aluminium.dyn67
  nqs=           24
 q=   0.50000000 -0.16666667  0.83333333
 q=   0.50000000  0.16666667  0.83333333
 q=   0.50000000  0.16666667 -0.83333333
 q=  -0.83333333 -0.16666667  0.50000000
 q=  -0.50000000 -0.16666667 -0.83333333
 q=  -0.50000000 -0.16666667  0.83333333
 q=   0.83333333 -0.16666667  0.50000000
 q=  -0.83333333  0.16666667 -0.50000000
 q=  -0.83333333 -0.16666667 -0.50000000
 q=  -0.83333333  0.16666667  0.50000000
 q=   0.83333333  0.16666667 -0.50000000
 q=  -0.50000000  0.16666667  0.83333333
 q=   0.83333333 -0.16666667 -0.50000000
 q=   0.83333333  0.16666667  0.50000000
 q=  -0.50000000  0.16666667 -0.83333333
 q=  -0.16666667  0.50000000 -0.83333333
 q=   0.83333333  0.50000000 -0.16666667
 q=  -0.83333333 -0.50000000 -0.16666667
 q=  -0.83333333  0.50000000  0.16666667
 q=   0.16666667 -0.50000000  0.83333333
 q=  -0.16666667  0.50000000  0.83333333
 q=   0.16666667  0.50000000 -0.83333333
 q=  -0.16666667 -0.50000000 -0.83333333
 q=   0.50000000 -0.16666667 -0.83333333
  reading force constants from file aluminium.dyn68
  nqs=           24
 q=   0.66666667 -0.16666667  1.00000000
 q=   0.66666667  0.16666667  1.00000000
 q=  -1.00000000 -0.16666667  0.66666667
 q=  -0.66666667 -0.16666667 -1.00000000
 q=  -1.00000000  0.16666667 -0.66666667
 q=  -1.00000000 -0.16666667 -0.66666667
 q=  -1.00000000  0.16666667  0.66666667
 q=  -0.66666667  0.16666667  1.00000000
 q=  -0.16666667  1.00000000  0.66666667
 q=   0.16666667  1.00000000 -0.66666667
 q=  -0.16666667 -1.00000000 -0.66666667
 q=  -0.16666667  0.66666667 -1.00000000
 q=   1.00000000  0.66666667 -0.16666667
 q=  -1.00000000 -0.66666667 -0.16666667
 q=  -1.00000000  0.66666667  0.16666667
 q=   0.16666667 -0.66666667  1.00000000
 q=   0.16666667 -1.00000000  0.66666667
 q=   0.66666667 -1.00000000  0.16666667
 q=   0.16666667  0.66666667  1.00000000
 q=  -0.16666667 -0.66666667 -1.00000000
 q=  -0.66666667 -1.00000000  0.16666667
 q=   1.00000000 -0.66666667  0.16666667
 q=   0.66666667  1.00000000 -0.16666667
 q=  -0.66666667  1.00000000 -0.16666667
  reading force constants from file aluminium.dyn69
  nqs=           48
 q=   0.58333333 -0.08333333  0.91666667
 q=   0.58333333 -0.08333333 -0.91666667
 q=   0.58333333  0.08333333  0.91666667
 q=   0.58333333  0.08333333 -0.91666667
 q=  -0.91666667 -0.08333333  0.58333333
 q=  -0.58333333 -0.08333333 -0.91666667
 q=  -0.58333333 -0.08333333  0.91666667
 q=   0.91666667 -0.08333333  0.58333333
 q=  -0.91666667  0.08333333 -0.58333333
 q=  -0.91666667 -0.08333333 -0.58333333
 q=  -0.91666667  0.08333333  0.58333333
 q=   0.91666667  0.08333333 -0.58333333
 q=  -0.58333333  0.08333333  0.91666667
 q=   0.91666667 -0.08333333 -0.58333333
 q=   0.91666667  0.08333333  0.58333333
 q=  -0.58333333  0.08333333 -0.91666667
 q=  -0.08333333  0.91666667  0.58333333
 q=   0.08333333  0.91666667 -0.58333333
 q=  -0.08333333 -0.91666667 -0.58333333
 q=  -0.08333333  0.58333333 -0.91666667
 q=   0.91666667  0.58333333 -0.08333333
 q=  -0.08333333  0.91666667 -0.58333333
 q=  -0.91666667 -0.58333333 -0.08333333
 q=  -0.91666667  0.58333333  0.08333333
 q=   0.08333333 -0.58333333  0.91666667
 q=   0.08333333 -0.91666667  0.58333333
 q=   0.58333333 -0.91666667  0.08333333
 q=  -0.91666667  0.58333333 -0.08333333
 q=   0.08333333  0.58333333  0.91666667
 q=  -0.08333333  0.58333333  0.91666667
 q=   0.08333333  0.58333333 -0.91666667
 q=  -0.08333333 -0.58333333 -0.91666667
 q=  -0.58333333 -0.91666667  0.08333333
 q=  -0.08333333 -0.58333333  0.91666667
 q=   0.91666667 -0.58333333  0.08333333
 q=   0.58333333  0.91666667  0.08333333
 q=   0.08333333 -0.58333333 -0.91666667
 q=   0.58333333  0.91666667 -0.08333333
 q=  -0.58333333  0.91666667 -0.08333333
 q=  -0.58333333  0.91666667  0.08333333
 q=   0.08333333 -0.91666667 -0.58333333
 q=  -0.08333333 -0.91666667  0.58333333
 q=   0.08333333  0.91666667  0.58333333
 q=   0.58333333 -0.91666667 -0.08333333
 q=  -0.91666667 -0.58333333  0.08333333
 q=  -0.58333333 -0.91666667 -0.08333333
 q=   0.91666667  0.58333333  0.08333333
 q=   0.91666667 -0.58333333 -0.08333333
  reading force constants from file aluminium.dyn70
  nqs=           24
 q=   0.50000000  0.00000000  0.83333333
 q=   0.50000000  0.00000000 -0.83333333
 q=  -0.83333333 -0.00000000  0.50000000
 q=  -0.50000000  0.00000000 -0.83333333
 q=  -0.50000000 -0.00000000  0.83333333
 q=   0.83333333  0.00000000  0.50000000
 q=  -0.83333333  0.00000000 -0.50000000
 q=   0.83333333  0.00000000 -0.50000000
 q=   0.00000000  0.83333333  0.50000000
 q=   0.00000000  0.83333333 -0.50000000
 q=  -0.00000000 -0.83333333 -0.50000000
 q=   0.00000000  0.50000000 -0.83333333
 q=   0.83333333  0.50000000  0.00000000
 q=  -0.83333333 -0.50000000  0.00000000
 q=  -0.83333333  0.50000000  0.00000000
 q=   0.00000000 -0.50000000  0.83333333
 q=   0.00000000 -0.83333333  0.50000000
 q=   0.50000000 -0.83333333  0.00000000
 q=   0.00000000  0.50000000  0.83333333
 q=  -0.00000000 -0.50000000 -0.83333333
 q=  -0.50000000 -0.83333333  0.00000000
 q=   0.83333333 -0.50000000  0.00000000
 q=   0.50000000  0.83333333  0.00000000
 q=  -0.50000000  0.83333333  0.00000000
  reading force constants from file aluminium.dyn71
  nqs=           12
 q=  -0.33333333 -1.00000000  0.00000000
 q=   0.00000000 -1.00000000 -0.33333333
 q=   0.33333333 -1.00000000  0.00000000
 q=   0.00000000  1.00000000  0.33333333
 q=  -1.00000000  0.00000000 -0.33333333
 q=   1.00000000  0.00000000  0.33333333
 q=  -1.00000000 -0.33333333  0.00000000
 q=   0.00000000 -0.33333333 -1.00000000
 q=   0.00000000  0.33333333 -1.00000000
 q=   1.00000000  0.33333333  0.00000000
 q=  -0.33333333  0.00000000  1.00000000
 q=   0.33333333  0.00000000  1.00000000
  reading force constants from file aluminium.dyn72
  nqs=            6
 q=  -0.50000000 -1.00000000  0.00000000
 q=   0.00000000  1.00000000  0.50000000
 q=   0.00000000  1.00000000 -0.50000000
 q=   0.50000000  1.00000000  0.00000000
 q=  -1.00000000 -0.50000000  0.00000000
 q=   0.00000000 -0.50000000 -1.00000000

      q-space grid ok, #points = 1728

      fft-check success (sum of imaginary terms < 10^-12)

     Q2R          :     0.11s CPU         0.15s WALL


   This run was terminated on:  22:45:16  30Oct2017            

=------------------------------------------------------------------------------=
   JOB DONE.
=------------------------------------------------------------------------------=
