
     Program PWSCF v.6.1 (svn rev. 13369) starts on 14Feb2018 at  1:20:47 

     This program is part of the open-source Quantum ESPRESSO suite
     for quantum simulation of materials; please cite
         "P. Giannozzi et al., J. Phys.:Condens. Matter 21 395502 (2009);
          URL http://www.quantum-espresso.org", 
     in publications or presentations arising from this work. More details at
     http://www.quantum-espresso.org/quote

     Parallel version (MPI), running on    64 processors
     K-points division:     npool     =       4
     R & G space division:  proc/nbgrp/npool/nimage =      16
     Waiting for input...
     Reading input from standard input

     Current dimensions of program PWSCF are:
     Max number of different atomic species (ntypx) = 10
     Max number of k-points (npk) =  80000
     Max angular momentum in pseudopotentials (lmaxx) =  3

     Subspace diagonalization in iterative solution of the eigenvalue problem:
     a serial algorithm will be used


     Parallelization info
     --------------------
     sticks:   dense  smooth     PW     G-vecs:    dense   smooth      PW
     Min          57      28     10                 1154      410      84
     Max          58      29     11                 1158      412      86
     Sum         925     463    163                18499     6567    1363



     bravais-lattice index     =            2
     lattice parameter (alat)  =       9.1500  a.u.
     unit-cell volume          =     191.5152 (a.u.)^3
     number of atoms/cell      =            1
     number of atomic types    =            1
     number of electrons       =         9.00
     number of Kohn-Sham states=            9
     kinetic-energy cutoff     =      40.0000  Ry
     charge density cutoff     =     320.0000  Ry
     convergence threshold     =      1.0E-10
     mixing beta               =       0.7000
     number of iterations used =            8  plain     mixing
     Exchange-correlation      = SLA  PW   PBE  PBE ( 1  4  3  4 0 0)

     celldm(1)=   9.150000  celldm(2)=   0.000000  celldm(3)=   0.000000
     celldm(4)=   0.000000  celldm(5)=   0.000000  celldm(6)=   0.000000

     crystal axes: (cart. coord. in units of alat)
               a(1) = (  -0.500000   0.000000   0.500000 )  
               a(2) = (   0.000000   0.500000   0.500000 )  
               a(3) = (  -0.500000   0.500000   0.000000 )  

     reciprocal axes: (cart. coord. in units 2 pi/alat)
               b(1) = ( -1.000000 -1.000000  1.000000 )  
               b(2) = (  1.000000  1.000000  1.000000 )  
               b(3) = ( -1.000000  1.000000 -1.000000 )  


     PseudoPot. # 1 for Na read from file:
     /home/s1333534/quantum_espresso/qe-6.1/pseudo/Na_pbe_v1.uspp.F.UPF
     MD5 check sum: 76a99c7e9422403d3e93cbc85ab7bccb
     Pseudo is Ultrasoft, Zval =  9.0
     Generated by new atomic code, or converted to UPF format
     Using radial grid of  819 points,  5 beta functions with: 
                l(1) =   0
                l(2) =   0
                l(3) =   1
                l(4) =   1
                l(5) =   2
     Q(r) pseudized with  8 coefficients,  rinner =    1.250   1.250   1.250
                                                       1.250   1.250

     atomic species   valence    mass     pseudopotential
        Na             9.00    22.99000     Na( 1.00)

     48 Sym. Ops., with inversion, found



   Cartesian axes

     site n.     atom                  positions (alat units)
         1           Na  tau(   1) = (   0.0000000   0.0000000   0.0000000  )

     number of k points=   770  Marzari-Vanderbilt smearing, width (Ry)=  0.0200

     Number of k-points >= 100: set verbosity='high' to print them.

     Dense  grid:    18499 G-vectors     FFT dimensions: (  40,  40,  40)

     Smooth grid:     6567 G-vectors     FFT dimensions: (  27,  27,  27)

     Estimated max dynamical RAM per process >       2.25MB

     Estimated total allocated dynamical RAM >     144.23MB

     Initial potential from superposition of free atoms

     starting charge    8.99371, renormalised to    9.00000
     Starting wfc are    5 randomized atomic wfcs +    4 random wfc

     total cpu time spent up to now is        0.9 secs

     per-process dynamical memory:     8.4 Mb

     Self-consistent Calculation

     iteration #  1     ecut=    40.00 Ry     beta=0.70
     Davidson diagonalization with overlap
     ethr =  1.00E-02,  avg # of iterations =  5.3

     Threshold (ethr) on eigenvalues was too large:
     Diagonalizing with lowered threshold

     Davidson diagonalization with overlap
     ethr =  1.23E-05,  avg # of iterations =  3.5

     total cpu time spent up to now is        7.8 secs

     total energy              =     -95.10098680 Ry
     Harris-Foulkes estimate   =     -95.10135872 Ry
     estimated scf accuracy    <       0.00110152 Ry

     iteration #  2     ecut=    40.00 Ry     beta=0.70
     Davidson diagonalization with overlap
     ethr =  1.22E-05,  avg # of iterations =  2.0

     total cpu time spent up to now is        9.8 secs

     total energy              =     -95.10112291 Ry
     Harris-Foulkes estimate   =     -95.10115473 Ry
     estimated scf accuracy    <       0.00012277 Ry

     iteration #  3     ecut=    40.00 Ry     beta=0.70
     Davidson diagonalization with overlap
     ethr =  1.36E-06,  avg # of iterations =  2.2

     total cpu time spent up to now is       12.1 secs

     total energy              =     -95.10113774 Ry
     Harris-Foulkes estimate   =     -95.10113902 Ry
     estimated scf accuracy    <       0.00000723 Ry

     iteration #  4     ecut=    40.00 Ry     beta=0.70
     Davidson diagonalization with overlap
     ethr =  8.03E-08,  avg # of iterations =  1.0

     total cpu time spent up to now is       13.8 secs

     total energy              =     -95.10113840 Ry
     Harris-Foulkes estimate   =     -95.10113835 Ry
     estimated scf accuracy    <          9.8E-09 Ry

     iteration #  5     ecut=    40.00 Ry     beta=0.70
     Davidson diagonalization with overlap
     ethr =  1.09E-10,  avg # of iterations =  3.0

     total cpu time spent up to now is       16.4 secs

     total energy              =     -95.10113844 Ry
     Harris-Foulkes estimate   =     -95.10113843 Ry
     estimated scf accuracy    <          1.6E-09 Ry

     iteration #  6     ecut=    40.00 Ry     beta=0.70
     Davidson diagonalization with overlap
     ethr =  1.76E-11,  avg # of iterations =  1.6

     total cpu time spent up to now is       18.3 secs

     End of self-consistent calculation

     Number of k-points >= 100: set verbosity='high' to print the bands.

     the Fermi energy is     2.8914 ev

!    total energy              =     -95.10113844 Ry
     Harris-Foulkes estimate   =     -95.10113844 Ry
     estimated scf accuracy    <          7.7E-11 Ry

     The total energy is the sum of the following terms:

     one-electron contribution =     -82.09851093 Ry
     hartree contribution      =      41.89067978 Ry
     xc contribution           =     -14.30596584 Ry
     ewald contribution        =     -40.58730361 Ry
     smearing contrib. (-TS)   =      -0.00003784 Ry

     convergence has been achieved in   6 iterations


     Computing stress (Cartesian axis) and pressure

          total   stress  (Ry/bohr**3)                   (kbar)     P=   30.23
   0.00020550   0.00000000   0.00000000         30.23      0.00      0.00
   0.00000000   0.00020550  -0.00000000          0.00     30.23     -0.00
   0.00000000  -0.00000000   0.00020550          0.00     -0.00     30.23


     Writing output data file na.fcc.save

     init_run     :      0.69s CPU      0.77s WALL (       1 calls)
     electrons    :     16.20s CPU     17.40s WALL (       1 calls)
     stress       :      0.34s CPU      0.34s WALL (       1 calls)

     Called by init_run:
     wfcinit      :      0.53s CPU      0.58s WALL (       1 calls)
     potinit      :      0.02s CPU      0.03s WALL (       1 calls)

     Called by electrons:
     c_bands      :     13.99s CPU     15.06s WALL (       7 calls)
     sum_band     :      2.06s CPU      2.18s WALL (       7 calls)
     v_of_rho     :      0.07s CPU      0.07s WALL (       7 calls)
     newd         :      0.05s CPU      0.06s WALL (       7 calls)
     mix_rho      :      0.01s CPU      0.01s WALL (       7 calls)

     Called by c_bands:
     init_us_2    :      0.20s CPU      0.21s WALL (    3088 calls)
     cegterg      :     12.59s CPU     13.63s WALL (    1351 calls)

     Called by sum_band:
     sum_band:bec :      0.01s CPU      0.02s WALL (    1351 calls)
     addusdens    :      0.06s CPU      0.06s WALL (       7 calls)

     Called by *egterg:
     h_psi        :      9.29s CPU      9.91s WALL (    5250 calls)
     s_psi        :      0.09s CPU      0.10s WALL (    5250 calls)
     g_psi        :      0.02s CPU      0.03s WALL (    3706 calls)
     cdiaghg      :      2.16s CPU      2.36s WALL (    4864 calls)

     Called by h_psi:
     h_psi:pot    :      9.25s CPU      9.86s WALL (    5250 calls)
     h_psi:calbec :      0.40s CPU      0.42s WALL (    5250 calls)
     vloc_psi     :      8.71s CPU      9.28s WALL (    5250 calls)
     add_vuspsi   :      0.10s CPU      0.10s WALL (    5250 calls)

     General routines
     calbec       :      0.50s CPU      0.54s WALL (    6794 calls)
     fft          :      0.06s CPU      0.07s WALL (     117 calls)
     ffts         :      0.01s CPU      0.01s WALL (      14 calls)
     fftw         :      9.34s CPU      9.94s WALL (   78171 calls)
     interpolate  :      0.01s CPU      0.01s WALL (      14 calls)
     davcio       :      0.00s CPU      0.07s WALL (     193 calls)

     Parallel routines
     fft_scatter  :      4.45s CPU      4.73s WALL (   78302 calls)

     PWSCF        :    20.12s CPU        21.68s WALL


   This run was terminated on:   1:21: 9  14Feb2018            

=------------------------------------------------------------------------------=
   JOB DONE.
=------------------------------------------------------------------------------=
