
     Program PHONON v.6.1 (svn rev. 13369) starts on 14Feb2018 at  1:21:10 

     This program is part of the open-source Quantum ESPRESSO suite
     for quantum simulation of materials; please cite
         "P. Giannozzi et al., J. Phys.:Condens. Matter 21 395502 (2009);
          URL http://www.quantum-espresso.org", 
     in publications or presentations arising from this work. More details at
     http://www.quantum-espresso.org/quote

     Parallel version (MPI), running on    64 processors
     K-points division:     npool     =       4
     R & G space division:  proc/nbgrp/npool/nimage =      16

     Reading data from directory:
     ./na.fcc.save

   Info: using nr1, nr2, nr3 values from input

   Info: using nr1, nr2, nr3 values from input

     IMPORTANT: XC functional enforced from input :
     Exchange-correlation      = SLA  PW   PBE  PBE ( 1  4  3  4 0 0)
     Any further DFT definition will be discarded
     Please, verify this is what you really want


     Parallelization info
     --------------------
     sticks:   dense  smooth     PW     G-vecs:    dense   smooth      PW
     Min          57      28     10                 1154      410      84
     Max          58      29     11                 1158      412      86
     Sum         925     463    163                18499     6567    1363



     Dynamical matrices for ( 6, 6, 6)  uniform grid of q-points
     (  16q-points):
       N         xq(1)         xq(2)         xq(3) 
       1   0.000000000   0.000000000   0.000000000
       2  -0.166666667   0.166666667  -0.166666667
       3  -0.333333333   0.333333333  -0.333333333
       4   0.500000000  -0.500000000   0.500000000
       5   0.000000000   0.333333333   0.000000000
       6  -0.166666667   0.500000000  -0.166666667
       7   0.666666667  -0.333333333   0.666666667
       8   0.500000000  -0.166666667   0.500000000
       9   0.333333333   0.000000000   0.333333333
      10   0.000000000   0.666666667   0.000000000
      11   0.833333333  -0.166666667   0.833333333
      12   0.666666667  -0.000000000   0.666666667
      13   0.000000000  -1.000000000   0.000000000
      14   0.666666667  -0.333333333   1.000000000
      15   0.500000000  -0.166666667   0.833333333
      16  -0.333333333  -1.000000000   0.000000000

     Calculation of q =    0.0000000   0.0000000   0.0000000

                                                                                

     bravais-lattice index     =            2
     lattice parameter (alat)  =       9.1500  a.u.
     unit-cell volume          =     191.5152 (a.u.)^3
     number of atoms/cell      =            1
     number of atomic types    =            1
     kinetic-energy cut-off    =      40.0000  Ry
     charge density cut-off    =     320.0000  Ry
     convergence threshold     =      1.0E-16
     beta                      =       0.7000
     number of iterations used =            4
     Exchange-correlation      = SLA  PW   PBE  PBE ( 1  4  3  4 0 0)


     celldm(1)=    9.15000  celldm(2)=    0.00000  celldm(3)=    0.00000
     celldm(4)=    0.00000  celldm(5)=    0.00000  celldm(6)=    0.00000

     crystal axes: (cart. coord. in units of alat)
               a(1) = ( -0.5000  0.0000  0.5000 )  
               a(2) = (  0.0000  0.5000  0.5000 )  
               a(3) = ( -0.5000  0.5000  0.0000 )  

     reciprocal axes: (cart. coord. in units 2 pi/alat)
               b(1) = ( -1.0000 -1.0000  1.0000 )  
               b(2) = (  1.0000  1.0000  1.0000 )  
               b(3) = ( -1.0000  1.0000 -1.0000 )  


     Atoms inside the unit cell: 

     Cartesian axes

     site n.  atom      mass           positions (alat units)
        1     Na  22.9900   tau(    1) = (    0.00000    0.00000    0.00000  )

     Computing dynamical matrix for 
                    q = (   0.0000000   0.0000000   0.0000000 )

     49 Sym.Ops. (with q -> -q+G )


     G cutoff =  678.6290  (   1157 G-vectors)     FFT grid: ( 40, 40, 40)
     G cutoff =  339.3145  (    410 G-vectors)  smooth grid: ( 27, 27, 27)

     number of k points=   770  Marzari-Vanderbilt smearing, width (Ry)=  0.0200

     PseudoPot. # 1 for Na read from file:
     /home/s1333534/quantum_espresso/qe-6.1/pseudo/Na_pbe_v1.uspp.F.UPF
     MD5 check sum: 76a99c7e9422403d3e93cbc85ab7bccb
     Pseudo is Ultrasoft, Zval =  9.0
     Generated by new atomic code, or converted to UPF format
     Using radial grid of  819 points,  5 beta functions with: 
                l(1) =   0
                l(2) =   0
                l(3) =   1
                l(4) =   1
                l(5) =   2
     Q(r) pseudized with  8 coefficients,  rinner =    1.250   1.250   1.250
                                                       1.250   1.250

     Mode symmetry, O_h (m-3m)  point group:


     Atomic displacements:
     There are   1 irreducible representations

     Representation     1      3 modes -T_1u G_15  G_4-  To be done



     Alpha used in Ewald sum =   2.8000
     PHONON       :     7.31s CPU         7.84s WALL



     Representation #  1 modes #   1  2  3

     Self-consistent Calculation

     Pert. #  1: Fermi energy shift (Ry) =    -3.0158E-26     1.5673E-38
     Pert. #  2: Fermi energy shift (Ry) =    -4.7391E-26    -8.6203E-38
     Pert. #  3: Fermi energy shift (Ry) =     2.1541E-26     1.4106E-37

      iter #   1 total cpu time :    17.3 secs   av.it.:   5.4
      thresh= 1.000E-02 alpha_mix =  0.700 |ddv_scf|^2 =  1.188E-06

     Pert. #  1: Fermi energy shift (Ry) =    -1.5617E-26    -1.2245E-39
     Pert. #  2: Fermi energy shift (Ry) =     3.2042E-26    -4.8979E-40
     Pert. #  3: Fermi energy shift (Ry) =     5.8430E-26     1.4694E-39

      iter #   2 total cpu time :    28.4 secs   av.it.:   8.4
      thresh= 1.090E-04 alpha_mix =  0.700 |ddv_scf|^2 =  2.279E-08

     Pert. #  1: Fermi energy shift (Ry) =     1.2925E-26     4.5918E-41
     Pert. #  2: Fermi energy shift (Ry) =     6.4623E-27    -1.3010E-40
     Pert. #  3: Fermi energy shift (Ry) =    -1.8310E-26    -3.0612E-41

      iter #   3 total cpu time :    39.6 secs   av.it.:   8.7
      thresh= 1.510E-05 alpha_mix =  0.700 |ddv_scf|^2 =  3.000E-10

     Pert. #  1: Fermi energy shift (Ry) =     3.2312E-27     0.0000E+00
     Pert. #  2: Fermi energy shift (Ry) =    -1.1309E-26    -7.6530E-42
     Pert. #  3: Fermi energy shift (Ry) =     1.0232E-26     8.6096E-42

      iter #   4 total cpu time :    50.4 secs   av.it.:   8.1
      thresh= 1.732E-06 alpha_mix =  0.700 |ddv_scf|^2 =  1.170E-12

     Pert. #  1: Fermi energy shift (Ry) =    -4.3082E-27    -9.5662E-43
     Pert. #  2: Fermi energy shift (Ry) =    -1.4540E-26     5.2614E-42
     Pert. #  3: Fermi energy shift (Ry) =     1.1848E-26    -8.6096E-42

      iter #   5 total cpu time :    61.4 secs   av.it.:   8.4
      thresh= 1.082E-07 alpha_mix =  0.700 |ddv_scf|^2 =  3.307E-15

     Pert. #  1: Fermi energy shift (Ry) =     7.5394E-27    -1.3393E-41
     Pert. #  2: Fermi energy shift (Ry) =     2.1541E-27     9.5662E-43
     Pert. #  3: Fermi energy shift (Ry) =     6.4623E-27    -1.2436E-41

      iter #   6 total cpu time :    72.5 secs   av.it.:   8.3
      thresh= 5.751E-09 alpha_mix =  0.700 |ddv_scf|^2 =  4.716E-17

     End of self-consistent calculation

     Convergence has been achieved 

     Number of q in the star =    1
     List of q in the star:
          1   0.000000000   0.000000000   0.000000000

     Diagonalizing the dynamical matrix

     q = (    0.000000000   0.000000000   0.000000000 ) 

 **************************************************************************
     freq (    1) =      -0.309716 [THz] =     -10.331008 [cm-1]
     freq (    2) =      -0.309716 [THz] =     -10.331008 [cm-1]
     freq (    3) =      -0.309716 [THz] =     -10.331008 [cm-1]
 **************************************************************************

     Mode symmetry, O_h (m-3m)  point group:

     freq (  1 -  3) =        -10.3  [cm-1]   --> T_1u G_15  G_4- I  

     Calculation of q =   -0.1666667   0.1666667  -0.1666667

   Info: using nr1, nr2, nr3 values from input

   Info: using nr1, nr2, nr3 values from input

     Parallelization info
     --------------------
     sticks:   dense  smooth     PW     G-vecs:    dense   smooth      PW
     Min          57      28     10                 1154      410      87
     Max          58      29     11                 1158      412      90
     Sum         925     463    163                18499     6567    1411



     bravais-lattice index     =            2
     lattice parameter (alat)  =       9.1500  a.u.
     unit-cell volume          =     191.5152 (a.u.)^3
     number of atoms/cell      =            1
     number of atomic types    =            1
     number of electrons       =         9.00
     number of Kohn-Sham states=            9
     kinetic-energy cutoff     =      40.0000  Ry
     charge density cutoff     =     320.0000  Ry
     Exchange-correlation      = SLA  PW   PBE  PBE ( 1  4  3  4 0 0)

     celldm(1)=   9.150000  celldm(2)=   0.000000  celldm(3)=   0.000000
     celldm(4)=   0.000000  celldm(5)=   0.000000  celldm(6)=   0.000000

     crystal axes: (cart. coord. in units of alat)
               a(1) = (  -0.500000   0.000000   0.500000 )  
               a(2) = (   0.000000   0.500000   0.500000 )  
               a(3) = (  -0.500000   0.500000   0.000000 )  

     reciprocal axes: (cart. coord. in units 2 pi/alat)
               b(1) = ( -1.000000 -1.000000  1.000000 )  
               b(2) = (  1.000000  1.000000  1.000000 )  
               b(3) = ( -1.000000  1.000000 -1.000000 )  


     PseudoPot. # 1 for Na read from file:
     /home/s1333534/quantum_espresso/qe-6.1/pseudo/Na_pbe_v1.uspp.F.UPF
     MD5 check sum: 76a99c7e9422403d3e93cbc85ab7bccb
     Pseudo is Ultrasoft, Zval =  9.0
     Generated by new atomic code, or converted to UPF format
     Using radial grid of  819 points,  5 beta functions with: 
                l(1) =   0
                l(2) =   0
                l(3) =   1
                l(4) =   1
                l(5) =   2
     Q(r) pseudized with  8 coefficients,  rinner =    1.250   1.250   1.250
                                                       1.250   1.250

     atomic species   valence    mass     pseudopotential
        Na             9.00    22.99000     Na( 1.00)

     48 Sym. Ops., with inversion, found



   Cartesian axes

     site n.     atom                  positions (alat units)
         1           Na  tau(   1) = (   0.0000000   0.0000000   0.0000000  )

     number of k points= 11480  Marzari-Vanderbilt smearing, width (Ry)=  0.0200

     Number of k-points >= 100: set verbosity='high' to print them.

     Dense  grid:    18499 G-vectors     FFT dimensions: (  40,  40,  40)

     Smooth grid:     6567 G-vectors     FFT dimensions: (  27,  27,  27)

     Estimated max dynamical RAM per process >       0.64MB

     Estimated total allocated dynamical RAM >      40.65MB

     The potential is recalculated from file :
     ./_ph0/na.fcc.save/charge-density.dat

     Starting wfc are    5 atomic +    4 random wfc

     Band Structure Calculation
     Davidson diagonalization with overlap

     ethr =  1.11E-10,  avg # of iterations = 18.0

     total cpu time spent up to now is      162.2 secs

     End of band structure calculation

     Number of k-points >= 100: set verbosity='high' to print the bands.

     the Fermi energy is     2.8914 ev

     Writing output data file na.fcc.save

                                                                                

     bravais-lattice index     =            2
     lattice parameter (alat)  =       9.1500  a.u.
     unit-cell volume          =     191.5152 (a.u.)^3
     number of atoms/cell      =            1
     number of atomic types    =            1
     kinetic-energy cut-off    =      40.0000  Ry
     charge density cut-off    =     320.0000  Ry
     convergence threshold     =      1.0E-16
     beta                      =       0.7000
     number of iterations used =            4
     Exchange-correlation      = SLA  PW   PBE  PBE ( 1  4  3  4 0 0)


     celldm(1)=    9.15000  celldm(2)=    0.00000  celldm(3)=    0.00000
     celldm(4)=    0.00000  celldm(5)=    0.00000  celldm(6)=    0.00000

     crystal axes: (cart. coord. in units of alat)
               a(1) = ( -0.5000  0.0000  0.5000 )  
               a(2) = (  0.0000  0.5000  0.5000 )  
               a(3) = ( -0.5000  0.5000  0.0000 )  

     reciprocal axes: (cart. coord. in units 2 pi/alat)
               b(1) = ( -1.0000 -1.0000  1.0000 )  
               b(2) = (  1.0000  1.0000  1.0000 )  
               b(3) = ( -1.0000  1.0000 -1.0000 )  


     Atoms inside the unit cell: 

     Cartesian axes

     site n.  atom      mass           positions (alat units)
        1     Na  22.9900   tau(    1) = (    0.00000    0.00000    0.00000  )

     Computing dynamical matrix for 
                    q = (  -0.1666667   0.1666667  -0.1666667 )

      6 Sym.Ops. (no q -> -q+G )


     G cutoff =  678.6290  (   1157 G-vectors)     FFT grid: ( 40, 40, 40)
     G cutoff =  339.3145  (    410 G-vectors)  smooth grid: ( 27, 27, 27)

     number of k points= 11480  Marzari-Vanderbilt smearing, width (Ry)=  0.0200

     PseudoPot. # 1 for Na read from file:
     /home/s1333534/quantum_espresso/qe-6.1/pseudo/Na_pbe_v1.uspp.F.UPF
     MD5 check sum: 76a99c7e9422403d3e93cbc85ab7bccb
     Pseudo is Ultrasoft, Zval =  9.0
     Generated by new atomic code, or converted to UPF format
     Using radial grid of  819 points,  5 beta functions with: 
                l(1) =   0
                l(2) =   0
                l(3) =   1
                l(4) =   1
                l(5) =   2
     Q(r) pseudized with  8 coefficients,  rinner =    1.250   1.250   1.250
                                                       1.250   1.250

     Mode symmetry, C_3v (3m)   point group:


     Atomic displacements:
     There are   2 irreducible representations

     Representation     1      1 modes -A_1  L_1  To be done

     Representation     2      2 modes -E    L_3  To be done



     Alpha used in Ewald sum =   2.8000
     PHONON       :  4m21.65s CPU     4m37.95s WALL



     Representation #  1 mode #   1

     Self-consistent Calculation

      iter #   1 total cpu time :   299.4 secs   av.it.:   5.7
      thresh= 1.000E-02 alpha_mix =  0.700 |ddv_scf|^2 =  3.398E-02

      iter #   2 total cpu time :   320.2 secs   av.it.:   6.6
      thresh= 1.000E-02 alpha_mix =  0.700 |ddv_scf|^2 =  5.023E+00

      iter #   3 total cpu time :   341.2 secs   av.it.:   6.6
      thresh= 1.000E-02 alpha_mix =  0.700 |ddv_scf|^2 =  3.722E-07

      iter #   4 total cpu time :   365.5 secs   av.it.:   8.0
      thresh= 6.100E-05 alpha_mix =  0.700 |ddv_scf|^2 =  6.771E-08

      iter #   5 total cpu time :   388.1 secs   av.it.:   7.5
      thresh= 2.602E-05 alpha_mix =  0.700 |ddv_scf|^2 =  4.391E-09

      iter #   6 total cpu time :   410.9 secs   av.it.:   7.5
      thresh= 6.627E-06 alpha_mix =  0.700 |ddv_scf|^2 =  1.261E-09

      iter #   7 total cpu time :   431.0 secs   av.it.:   6.3
      thresh= 3.551E-06 alpha_mix =  0.700 |ddv_scf|^2 =  7.785E-09

      iter #   8 total cpu time :   450.7 secs   av.it.:   6.3
      thresh= 8.823E-06 alpha_mix =  0.700 |ddv_scf|^2 =  4.107E-11

      iter #   9 total cpu time :   473.1 secs   av.it.:   7.3
      thresh= 6.409E-07 alpha_mix =  0.700 |ddv_scf|^2 =  1.344E-12

      iter #  10 total cpu time :   495.8 secs   av.it.:   7.3
      thresh= 1.159E-07 alpha_mix =  0.700 |ddv_scf|^2 =  1.104E-13

      iter #  11 total cpu time :   518.0 secs   av.it.:   7.2
      thresh= 3.323E-08 alpha_mix =  0.700 |ddv_scf|^2 =  4.379E-16

      iter #  12 total cpu time :   542.1 secs   av.it.:   8.0
      thresh= 2.093E-09 alpha_mix =  0.700 |ddv_scf|^2 =  2.656E-16

      iter #  13 total cpu time :   565.0 secs   av.it.:   7.5
      thresh= 1.630E-09 alpha_mix =  0.700 |ddv_scf|^2 =  4.101E-15

      iter #  14 total cpu time :   582.0 secs   av.it.:   5.1
      thresh= 6.404E-09 alpha_mix =  0.700 |ddv_scf|^2 =  1.017E-17

     End of self-consistent calculation

     Convergence has been achieved 


     Representation #  2 modes #   2  3

     Self-consistent Calculation

      iter #   1 total cpu time :   624.7 secs   av.it.:   5.5
      thresh= 1.000E-02 alpha_mix =  0.700 |ddv_scf|^2 =  2.721E-06

      iter #   2 total cpu time :   674.9 secs   av.it.:   8.5
      thresh= 1.649E-04 alpha_mix =  0.700 |ddv_scf|^2 =  5.086E-08

      iter #   3 total cpu time :   725.1 secs   av.it.:   8.6
      thresh= 2.255E-05 alpha_mix =  0.700 |ddv_scf|^2 =  7.855E-10

      iter #   4 total cpu time :   774.2 secs   av.it.:   8.4
      thresh= 2.803E-06 alpha_mix =  0.700 |ddv_scf|^2 =  3.015E-12

      iter #   5 total cpu time :   824.2 secs   av.it.:   8.6
      thresh= 1.736E-07 alpha_mix =  0.700 |ddv_scf|^2 =  7.325E-15

      iter #   6 total cpu time :   873.7 secs   av.it.:   8.2
      thresh= 8.559E-09 alpha_mix =  0.700 |ddv_scf|^2 =  1.556E-16

      iter #   7 total cpu time :   923.9 secs   av.it.:   8.6
      thresh= 1.247E-09 alpha_mix =  0.700 |ddv_scf|^2 =  1.505E-19

     End of self-consistent calculation

     Convergence has been achieved 

     Number of q in the star =    8
     List of q in the star:
          1  -0.166666667   0.166666667  -0.166666667
          2   0.166666667   0.166666667   0.166666667
          3  -0.166666667  -0.166666667  -0.166666667
          4   0.166666667  -0.166666667   0.166666667
          5   0.166666667  -0.166666667  -0.166666667
          6   0.166666667   0.166666667  -0.166666667
          7  -0.166666667  -0.166666667   0.166666667
          8  -0.166666667   0.166666667   0.166666667

     Diagonalizing the dynamical matrix

     q = (   -0.166666667   0.166666667  -0.166666667 ) 

 **************************************************************************
     freq (    1) =       0.986216 [THz] =      32.896636 [cm-1]
     freq (    2) =       0.986216 [THz] =      32.896636 [cm-1]
     freq (    3) =       2.806186 [THz] =      93.604301 [cm-1]
 **************************************************************************

     Mode symmetry, C_3v (3m)   point group:

     freq (  1 -  2) =         32.9  [cm-1]   --> E    L_3           
     freq (  3 -  3) =         93.6  [cm-1]   --> A_1  L_1           

     Calculation of q =   -0.3333333   0.3333333  -0.3333333

   Info: using nr1, nr2, nr3 values from input

   Info: using nr1, nr2, nr3 values from input

     Parallelization info
     --------------------
     sticks:   dense  smooth     PW     G-vecs:    dense   smooth      PW
     Min          57      28     10                 1154      410      90
     Max          58      29     11                 1158      412      94
     Sum         925     463    163                18499     6567    1459



     bravais-lattice index     =            2
     lattice parameter (alat)  =       9.1500  a.u.
     unit-cell volume          =     191.5152 (a.u.)^3
     number of atoms/cell      =            1
     number of atomic types    =            1
     number of electrons       =         9.00
     number of Kohn-Sham states=            9
     kinetic-energy cutoff     =      40.0000  Ry
     charge density cutoff     =     320.0000  Ry
     Exchange-correlation      = SLA  PW   PBE  PBE ( 1  4  3  4 0 0)

     celldm(1)=   9.150000  celldm(2)=   0.000000  celldm(3)=   0.000000
     celldm(4)=   0.000000  celldm(5)=   0.000000  celldm(6)=   0.000000

     crystal axes: (cart. coord. in units of alat)
               a(1) = (  -0.500000   0.000000   0.500000 )  
               a(2) = (   0.000000   0.500000   0.500000 )  
               a(3) = (  -0.500000   0.500000   0.000000 )  

     reciprocal axes: (cart. coord. in units 2 pi/alat)
               b(1) = ( -1.000000 -1.000000  1.000000 )  
               b(2) = (  1.000000  1.000000  1.000000 )  
               b(3) = ( -1.000000  1.000000 -1.000000 )  


     PseudoPot. # 1 for Na read from file:
     /home/s1333534/quantum_espresso/qe-6.1/pseudo/Na_pbe_v1.uspp.F.UPF
     MD5 check sum: 76a99c7e9422403d3e93cbc85ab7bccb
     Pseudo is Ultrasoft, Zval =  9.0
     Generated by new atomic code, or converted to UPF format
     Using radial grid of  819 points,  5 beta functions with: 
                l(1) =   0
                l(2) =   0
                l(3) =   1
                l(4) =   1
                l(5) =   2
     Q(r) pseudized with  8 coefficients,  rinner =    1.250   1.250   1.250
                                                       1.250   1.250

     atomic species   valence    mass     pseudopotential
        Na             9.00    22.99000     Na( 1.00)

     48 Sym. Ops., with inversion, found



   Cartesian axes

     site n.     atom                  positions (alat units)
         1           Na  tau(   1) = (   0.0000000   0.0000000   0.0000000  )

     number of k points= 11480  Marzari-Vanderbilt smearing, width (Ry)=  0.0200

     Number of k-points >= 100: set verbosity='high' to print them.

     Dense  grid:    18499 G-vectors     FFT dimensions: (  40,  40,  40)

     Smooth grid:     6567 G-vectors     FFT dimensions: (  27,  27,  27)

     Estimated max dynamical RAM per process >       0.64MB

     Estimated total allocated dynamical RAM >      40.65MB

     The potential is recalculated from file :
     ./_ph0/na.fcc.save/charge-density.dat

     Starting wfc are    5 atomic +    4 random wfc

     Band Structure Calculation
     Davidson diagonalization with overlap

     ethr =  1.11E-10,  avg # of iterations = 18.0

     total cpu time spent up to now is      358.1 secs

     End of band structure calculation

     Number of k-points >= 100: set verbosity='high' to print the bands.

     the Fermi energy is     2.8914 ev

     Writing output data file na.fcc.save

                                                                                

     bravais-lattice index     =            2
     lattice parameter (alat)  =       9.1500  a.u.
     unit-cell volume          =     191.5152 (a.u.)^3
     number of atoms/cell      =            1
     number of atomic types    =            1
     kinetic-energy cut-off    =      40.0000  Ry
     charge density cut-off    =     320.0000  Ry
     convergence threshold     =      1.0E-16
     beta                      =       0.7000
     number of iterations used =            4
     Exchange-correlation      = SLA  PW   PBE  PBE ( 1  4  3  4 0 0)


     celldm(1)=    9.15000  celldm(2)=    0.00000  celldm(3)=    0.00000
     celldm(4)=    0.00000  celldm(5)=    0.00000  celldm(6)=    0.00000

     crystal axes: (cart. coord. in units of alat)
               a(1) = ( -0.5000  0.0000  0.5000 )  
               a(2) = (  0.0000  0.5000  0.5000 )  
               a(3) = ( -0.5000  0.5000  0.0000 )  

     reciprocal axes: (cart. coord. in units 2 pi/alat)
               b(1) = ( -1.0000 -1.0000  1.0000 )  
               b(2) = (  1.0000  1.0000  1.0000 )  
               b(3) = ( -1.0000  1.0000 -1.0000 )  


     Atoms inside the unit cell: 

     Cartesian axes

     site n.  atom      mass           positions (alat units)
        1     Na  22.9900   tau(    1) = (    0.00000    0.00000    0.00000  )

     Computing dynamical matrix for 
                    q = (  -0.3333333   0.3333333  -0.3333333 )

      6 Sym.Ops. (no q -> -q+G )


     G cutoff =  678.6290  (   1157 G-vectors)     FFT grid: ( 40, 40, 40)
     G cutoff =  339.3145  (    410 G-vectors)  smooth grid: ( 27, 27, 27)

     number of k points= 11480  Marzari-Vanderbilt smearing, width (Ry)=  0.0200

     PseudoPot. # 1 for Na read from file:
     /home/s1333534/quantum_espresso/qe-6.1/pseudo/Na_pbe_v1.uspp.F.UPF
     MD5 check sum: 76a99c7e9422403d3e93cbc85ab7bccb
     Pseudo is Ultrasoft, Zval =  9.0
     Generated by new atomic code, or converted to UPF format
     Using radial grid of  819 points,  5 beta functions with: 
                l(1) =   0
                l(2) =   0
                l(3) =   1
                l(4) =   1
                l(5) =   2
     Q(r) pseudized with  8 coefficients,  rinner =    1.250   1.250   1.250
                                                       1.250   1.250

     Mode symmetry, C_3v (3m)   point group:


     Atomic displacements:
     There are   2 irreducible representations

     Representation     1      1 modes -A_1  L_1  To be done

     Representation     2      2 modes -E    L_3  To be done



     Alpha used in Ewald sum =   2.8000
     PHONON       : 17m28.27s CPU    18m49.45s WALL



     Representation #  1 mode #   1

     Self-consistent Calculation

      iter #   1 total cpu time :  1152.7 secs   av.it.:   5.7
      thresh= 1.000E-02 alpha_mix =  0.700 |ddv_scf|^2 =  5.782E-04

      iter #   2 total cpu time :  1174.5 secs   av.it.:   6.8
      thresh= 2.405E-03 alpha_mix =  0.700 |ddv_scf|^2 =  3.415E-03

      iter #   3 total cpu time :  1193.9 secs   av.it.:   5.9
      thresh= 5.844E-03 alpha_mix =  0.700 |ddv_scf|^2 =  6.292E-07

      iter #   4 total cpu time :  1217.9 secs   av.it.:   7.7
      thresh= 7.932E-05 alpha_mix =  0.700 |ddv_scf|^2 =  8.646E-09

      iter #   5 total cpu time :  1242.8 secs   av.it.:   8.3
      thresh= 9.299E-06 alpha_mix =  0.700 |ddv_scf|^2 =  5.047E-10

      iter #   6 total cpu time :  1267.3 secs   av.it.:   8.1
      thresh= 2.247E-06 alpha_mix =  0.700 |ddv_scf|^2 =  1.786E-11

      iter #   7 total cpu time :  1291.0 secs   av.it.:   7.7
      thresh= 4.226E-07 alpha_mix =  0.700 |ddv_scf|^2 =  4.758E-13

      iter #   8 total cpu time :  1315.4 secs   av.it.:   8.0
      thresh= 6.898E-08 alpha_mix =  0.700 |ddv_scf|^2 =  1.090E-15

      iter #   9 total cpu time :  1338.9 secs   av.it.:   7.7
      thresh= 3.301E-09 alpha_mix =  0.700 |ddv_scf|^2 =  2.810E-16

      iter #  10 total cpu time :  1361.6 secs   av.it.:   7.5
      thresh= 1.676E-09 alpha_mix =  0.700 |ddv_scf|^2 =  7.259E-16

      iter #  11 total cpu time :  1382.3 secs   av.it.:   6.6
      thresh= 2.694E-09 alpha_mix =  0.700 |ddv_scf|^2 =  1.264E-17

     End of self-consistent calculation

     Convergence has been achieved 


     Representation #  2 modes #   2  3

     Self-consistent Calculation

      iter #   1 total cpu time :  1424.8 secs   av.it.:   5.6
      thresh= 1.000E-02 alpha_mix =  0.700 |ddv_scf|^2 =  2.811E-06

      iter #   2 total cpu time :  1476.0 secs   av.it.:   8.5
      thresh= 1.676E-04 alpha_mix =  0.700 |ddv_scf|^2 =  5.027E-08

      iter #   3 total cpu time :  1527.2 secs   av.it.:   8.7
      thresh= 2.242E-05 alpha_mix =  0.700 |ddv_scf|^2 =  9.852E-10

      iter #   4 total cpu time :  1576.7 secs   av.it.:   8.4
      thresh= 3.139E-06 alpha_mix =  0.700 |ddv_scf|^2 =  3.731E-12

      iter #   5 total cpu time :  1627.3 secs   av.it.:   8.6
      thresh= 1.931E-07 alpha_mix =  0.700 |ddv_scf|^2 =  7.349E-15

      iter #   6 total cpu time :  1676.2 secs   av.it.:   8.1
      thresh= 8.572E-09 alpha_mix =  0.700 |ddv_scf|^2 =  2.300E-16

      iter #   7 total cpu time :  1727.0 secs   av.it.:   8.6
      thresh= 1.516E-09 alpha_mix =  0.700 |ddv_scf|^2 =  2.476E-19

     End of self-consistent calculation

     Convergence has been achieved 

     Number of q in the star =    8
     List of q in the star:
          1  -0.333333333   0.333333333  -0.333333333
          2   0.333333333   0.333333333   0.333333333
          3  -0.333333333  -0.333333333  -0.333333333
          4   0.333333333  -0.333333333   0.333333333
          5   0.333333333  -0.333333333  -0.333333333
          6   0.333333333   0.333333333  -0.333333333
          7  -0.333333333  -0.333333333   0.333333333
          8  -0.333333333   0.333333333   0.333333333

     Diagonalizing the dynamical matrix

     q = (   -0.333333333   0.333333333  -0.333333333 ) 

 **************************************************************************
     freq (    1) =       1.718938 [THz] =      57.337616 [cm-1]
     freq (    2) =       1.718938 [THz] =      57.337616 [cm-1]
     freq (    3) =       4.875014 [THz] =     162.612973 [cm-1]
 **************************************************************************

     Mode symmetry, C_3v (3m)   point group:

     freq (  1 -  2) =         57.3  [cm-1]   --> E    L_3           
     freq (  3 -  3) =        162.6  [cm-1]   --> A_1  L_1           

     Calculation of q =    0.5000000  -0.5000000   0.5000000

   Info: using nr1, nr2, nr3 values from input

   Info: using nr1, nr2, nr3 values from input

     Parallelization info
     --------------------
     sticks:   dense  smooth     PW     G-vecs:    dense   smooth      PW
     Min          57      28     11                 1154      410     101
     Max          58      29     12                 1158      412     103
     Sum         925     463    187                18499     6567    1639



     bravais-lattice index     =            2
     lattice parameter (alat)  =       9.1500  a.u.
     unit-cell volume          =     191.5152 (a.u.)^3
     number of atoms/cell      =            1
     number of atomic types    =            1
     number of electrons       =         9.00
     number of Kohn-Sham states=            9
     kinetic-energy cutoff     =      40.0000  Ry
     charge density cutoff     =     320.0000  Ry
     Exchange-correlation      = SLA  PW   PBE  PBE ( 1  4  3  4 0 0)

     celldm(1)=   9.150000  celldm(2)=   0.000000  celldm(3)=   0.000000
     celldm(4)=   0.000000  celldm(5)=   0.000000  celldm(6)=   0.000000

     crystal axes: (cart. coord. in units of alat)
               a(1) = (  -0.500000   0.000000   0.500000 )  
               a(2) = (   0.000000   0.500000   0.500000 )  
               a(3) = (  -0.500000   0.500000   0.000000 )  

     reciprocal axes: (cart. coord. in units 2 pi/alat)
               b(1) = ( -1.000000 -1.000000  1.000000 )  
               b(2) = (  1.000000  1.000000  1.000000 )  
               b(3) = ( -1.000000  1.000000 -1.000000 )  


     PseudoPot. # 1 for Na read from file:
     /home/s1333534/quantum_espresso/qe-6.1/pseudo/Na_pbe_v1.uspp.F.UPF
     MD5 check sum: 76a99c7e9422403d3e93cbc85ab7bccb
     Pseudo is Ultrasoft, Zval =  9.0
     Generated by new atomic code, or converted to UPF format
     Using radial grid of  819 points,  5 beta functions with: 
                l(1) =   0
                l(2) =   0
                l(3) =   1
                l(4) =   1
                l(5) =   2
     Q(r) pseudized with  8 coefficients,  rinner =    1.250   1.250   1.250
                                                       1.250   1.250

     atomic species   valence    mass     pseudopotential
        Na             9.00    22.99000     Na( 1.00)

     48 Sym. Ops., with inversion, found



   Cartesian axes

     site n.     atom                  positions (alat units)
         1           Na  tau(   1) = (   0.0000000   0.0000000   0.0000000  )

     number of k points=  5740  Marzari-Vanderbilt smearing, width (Ry)=  0.0200

     Number of k-points >= 100: set verbosity='high' to print them.

     Dense  grid:    18499 G-vectors     FFT dimensions: (  40,  40,  40)

     Smooth grid:     6567 G-vectors     FFT dimensions: (  27,  27,  27)

     Estimated max dynamical RAM per process >       0.64MB

     Estimated total allocated dynamical RAM >      40.65MB

     The potential is recalculated from file :
     ./_ph0/na.fcc.save/charge-density.dat

     Starting wfc are    5 atomic +    4 random wfc

     Band Structure Calculation
     Davidson diagonalization with overlap

     ethr =  1.11E-10,  avg # of iterations = 18.0

     total cpu time spent up to now is      473.3 secs

     End of band structure calculation

     Number of k-points >= 100: set verbosity='high' to print the bands.

     the Fermi energy is     2.8914 ev

     Writing output data file na.fcc.save

                                                                                

     bravais-lattice index     =            2
     lattice parameter (alat)  =       9.1500  a.u.
     unit-cell volume          =     191.5152 (a.u.)^3
     number of atoms/cell      =            1
     number of atomic types    =            1
     kinetic-energy cut-off    =      40.0000  Ry
     charge density cut-off    =     320.0000  Ry
     convergence threshold     =      1.0E-16
     beta                      =       0.7000
     number of iterations used =            4
     Exchange-correlation      = SLA  PW   PBE  PBE ( 1  4  3  4 0 0)


     celldm(1)=    9.15000  celldm(2)=    0.00000  celldm(3)=    0.00000
     celldm(4)=    0.00000  celldm(5)=    0.00000  celldm(6)=    0.00000

     crystal axes: (cart. coord. in units of alat)
               a(1) = ( -0.5000  0.0000  0.5000 )  
               a(2) = (  0.0000  0.5000  0.5000 )  
               a(3) = ( -0.5000  0.5000  0.0000 )  

     reciprocal axes: (cart. coord. in units 2 pi/alat)
               b(1) = ( -1.0000 -1.0000  1.0000 )  
               b(2) = (  1.0000  1.0000  1.0000 )  
               b(3) = ( -1.0000  1.0000 -1.0000 )  


     Atoms inside the unit cell: 

     Cartesian axes

     site n.  atom      mass           positions (alat units)
        1     Na  22.9900   tau(    1) = (    0.00000    0.00000    0.00000  )

     Computing dynamical matrix for 
                    q = (   0.5000000  -0.5000000   0.5000000 )

     13 Sym.Ops. (with q -> -q+G )


     G cutoff =  678.6290  (   1157 G-vectors)     FFT grid: ( 40, 40, 40)
     G cutoff =  339.3145  (    410 G-vectors)  smooth grid: ( 27, 27, 27)

     number of k points=  5740  Marzari-Vanderbilt smearing, width (Ry)=  0.0200

     PseudoPot. # 1 for Na read from file:
     /home/s1333534/quantum_espresso/qe-6.1/pseudo/Na_pbe_v1.uspp.F.UPF
     MD5 check sum: 76a99c7e9422403d3e93cbc85ab7bccb
     Pseudo is Ultrasoft, Zval =  9.0
     Generated by new atomic code, or converted to UPF format
     Using radial grid of  819 points,  5 beta functions with: 
                l(1) =   0
                l(2) =   0
                l(3) =   1
                l(4) =   1
                l(5) =   2
     Q(r) pseudized with  8 coefficients,  rinner =    1.250   1.250   1.250
                                                       1.250   1.250

     Mode symmetry, D_3d (-3m)  point group:


     Atomic displacements:
     There are   2 irreducible representations

     Representation     1      1 modes -A_2u L_2'  To be done

     Representation     2      2 modes -E_u  L_3'  To be done



     Alpha used in Ewald sum =   2.8000
     PHONON       : 28m12.89s CPU    30m31.94s WALL



     Representation #  1 mode #   1

     Self-consistent Calculation

      iter #   1 total cpu time :  1842.9 secs   av.it.:   5.7
      thresh= 1.000E-02 alpha_mix =  0.700 |ddv_scf|^2 =  1.174E-04

      iter #   2 total cpu time :  1854.3 secs   av.it.:   6.9
      thresh= 1.084E-03 alpha_mix =  0.700 |ddv_scf|^2 =  6.858E-05

      iter #   3 total cpu time :  1865.6 secs   av.it.:   6.9
      thresh= 8.281E-04 alpha_mix =  0.700 |ddv_scf|^2 =  7.608E-08

      iter #   4 total cpu time :  1878.1 secs   av.it.:   7.9
      thresh= 2.758E-05 alpha_mix =  0.700 |ddv_scf|^2 =  2.866E-10

      iter #   5 total cpu time :  1889.1 secs   av.it.:   7.0
      thresh= 1.693E-06 alpha_mix =  0.700 |ddv_scf|^2 =  6.696E-12

      iter #   6 total cpu time :  1899.6 secs   av.it.:   6.6
      thresh= 2.588E-07 alpha_mix =  0.700 |ddv_scf|^2 =  1.587E-14

      iter #   7 total cpu time :  1911.2 secs   av.it.:   7.4
      thresh= 1.260E-08 alpha_mix =  0.700 |ddv_scf|^2 =  2.217E-17

     End of self-consistent calculation

     Convergence has been achieved 


     Representation #  2 modes #   2  3

     Self-consistent Calculation

      iter #   1 total cpu time :  1932.8 secs   av.it.:   5.5
      thresh= 1.000E-02 alpha_mix =  0.700 |ddv_scf|^2 =  2.852E-06

      iter #   2 total cpu time :  1958.0 secs   av.it.:   8.4
      thresh= 1.689E-04 alpha_mix =  0.700 |ddv_scf|^2 =  5.016E-08

      iter #   3 total cpu time :  1983.8 secs   av.it.:   8.6
      thresh= 2.240E-05 alpha_mix =  0.700 |ddv_scf|^2 =  1.072E-09

      iter #   4 total cpu time :  2008.9 secs   av.it.:   8.0
      thresh= 3.275E-06 alpha_mix =  0.700 |ddv_scf|^2 =  4.041E-12

      iter #   5 total cpu time :  2034.3 secs   av.it.:   8.3
      thresh= 2.010E-07 alpha_mix =  0.700 |ddv_scf|^2 =  7.489E-15

      iter #   6 total cpu time :  2058.6 secs   av.it.:   7.9
      thresh= 8.654E-09 alpha_mix =  0.700 |ddv_scf|^2 =  2.560E-16

      iter #   7 total cpu time :  2083.8 secs   av.it.:   8.4
      thresh= 1.600E-09 alpha_mix =  0.700 |ddv_scf|^2 =  2.398E-19

     End of self-consistent calculation

     Convergence has been achieved 

     Number of q in the star =    4
     List of q in the star:
          1   0.500000000  -0.500000000   0.500000000
          2   0.500000000   0.500000000   0.500000000
          3  -0.500000000   0.500000000   0.500000000
          4   0.500000000   0.500000000  -0.500000000

     Diagonalizing the dynamical matrix

     q = (    0.500000000  -0.500000000   0.500000000 ) 

 **************************************************************************
     freq (    1) =       1.999397 [THz] =      66.692694 [cm-1]
     freq (    2) =       1.999397 [THz] =      66.692694 [cm-1]
     freq (    3) =       5.635944 [THz] =     187.994843 [cm-1]
 **************************************************************************

     Mode symmetry, D_3d (-3m)  point group:

     freq (  1 -  2) =         66.7  [cm-1]   --> E_u  L_3'          
     freq (  3 -  3) =        188.0  [cm-1]   --> A_2u L_2'          

     Calculation of q =    0.0000000   0.3333333   0.0000000

   Info: using nr1, nr2, nr3 values from input

   Info: using nr1, nr2, nr3 values from input

     Parallelization info
     --------------------
     sticks:   dense  smooth     PW     G-vecs:    dense   smooth      PW
     Min          57      28     10                 1154      410      90
     Max          58      29     11                 1158      412      94
     Sum         925     463    163                18499     6567    1459



     bravais-lattice index     =            2
     lattice parameter (alat)  =       9.1500  a.u.
     unit-cell volume          =     191.5152 (a.u.)^3
     number of atoms/cell      =            1
     number of atomic types    =            1
     number of electrons       =         9.00
     number of Kohn-Sham states=            9
     kinetic-energy cutoff     =      40.0000  Ry
     charge density cutoff     =     320.0000  Ry
     Exchange-correlation      = SLA  PW   PBE  PBE ( 1  4  3  4 0 0)

     celldm(1)=   9.150000  celldm(2)=   0.000000  celldm(3)=   0.000000
     celldm(4)=   0.000000  celldm(5)=   0.000000  celldm(6)=   0.000000

     crystal axes: (cart. coord. in units of alat)
               a(1) = (  -0.500000   0.000000   0.500000 )  
               a(2) = (   0.000000   0.500000   0.500000 )  
               a(3) = (  -0.500000   0.500000   0.000000 )  

     reciprocal axes: (cart. coord. in units 2 pi/alat)
               b(1) = ( -1.000000 -1.000000  1.000000 )  
               b(2) = (  1.000000  1.000000  1.000000 )  
               b(3) = ( -1.000000  1.000000 -1.000000 )  


     PseudoPot. # 1 for Na read from file:
     /home/s1333534/quantum_espresso/qe-6.1/pseudo/Na_pbe_v1.uspp.F.UPF
     MD5 check sum: 76a99c7e9422403d3e93cbc85ab7bccb
     Pseudo is Ultrasoft, Zval =  9.0
     Generated by new atomic code, or converted to UPF format
     Using radial grid of  819 points,  5 beta functions with: 
                l(1) =   0
                l(2) =   0
                l(3) =   1
                l(4) =   1
                l(5) =   2
     Q(r) pseudized with  8 coefficients,  rinner =    1.250   1.250   1.250
                                                       1.250   1.250

     atomic species   valence    mass     pseudopotential
        Na             9.00    22.99000     Na( 1.00)

     48 Sym. Ops., with inversion, found



   Cartesian axes

     site n.     atom                  positions (alat units)
         1           Na  tau(   1) = (   0.0000000   0.0000000   0.0000000  )

     number of k points=  8400  Marzari-Vanderbilt smearing, width (Ry)=  0.0200

     Number of k-points >= 100: set verbosity='high' to print them.

     Dense  grid:    18499 G-vectors     FFT dimensions: (  40,  40,  40)

     Smooth grid:     6567 G-vectors     FFT dimensions: (  27,  27,  27)

     Estimated max dynamical RAM per process >       0.64MB

     Estimated total allocated dynamical RAM >      40.65MB

     The potential is recalculated from file :
     ./_ph0/na.fcc.save/charge-density.dat

     Starting wfc are    5 atomic +    4 random wfc

     Band Structure Calculation
     Davidson diagonalization with overlap

     ethr =  1.11E-10,  avg # of iterations = 17.9

     total cpu time spent up to now is      607.4 secs

     End of band structure calculation

     Number of k-points >= 100: set verbosity='high' to print the bands.

     the Fermi energy is     2.8914 ev

     Writing output data file na.fcc.save

                                                                                

     bravais-lattice index     =            2
     lattice parameter (alat)  =       9.1500  a.u.
     unit-cell volume          =     191.5152 (a.u.)^3
     number of atoms/cell      =            1
     number of atomic types    =            1
     kinetic-energy cut-off    =      40.0000  Ry
     charge density cut-off    =     320.0000  Ry
     convergence threshold     =      1.0E-16
     beta                      =       0.7000
     number of iterations used =            4
     Exchange-correlation      = SLA  PW   PBE  PBE ( 1  4  3  4 0 0)


     celldm(1)=    9.15000  celldm(2)=    0.00000  celldm(3)=    0.00000
     celldm(4)=    0.00000  celldm(5)=    0.00000  celldm(6)=    0.00000

     crystal axes: (cart. coord. in units of alat)
               a(1) = ( -0.5000  0.0000  0.5000 )  
               a(2) = (  0.0000  0.5000  0.5000 )  
               a(3) = ( -0.5000  0.5000  0.0000 )  

     reciprocal axes: (cart. coord. in units 2 pi/alat)
               b(1) = ( -1.0000 -1.0000  1.0000 )  
               b(2) = (  1.0000  1.0000  1.0000 )  
               b(3) = ( -1.0000  1.0000 -1.0000 )  


     Atoms inside the unit cell: 

     Cartesian axes

     site n.  atom      mass           positions (alat units)
        1     Na  22.9900   tau(    1) = (    0.00000    0.00000    0.00000  )

     Computing dynamical matrix for 
                    q = (   0.0000000   0.3333333   0.0000000 )

      8 Sym.Ops. (no q -> -q+G )


     G cutoff =  678.6290  (   1157 G-vectors)     FFT grid: ( 40, 40, 40)
     G cutoff =  339.3145  (    410 G-vectors)  smooth grid: ( 27, 27, 27)

     number of k points=  8400  Marzari-Vanderbilt smearing, width (Ry)=  0.0200

     PseudoPot. # 1 for Na read from file:
     /home/s1333534/quantum_espresso/qe-6.1/pseudo/Na_pbe_v1.uspp.F.UPF
     MD5 check sum: 76a99c7e9422403d3e93cbc85ab7bccb
     Pseudo is Ultrasoft, Zval =  9.0
     Generated by new atomic code, or converted to UPF format
     Using radial grid of  819 points,  5 beta functions with: 
                l(1) =   0
                l(2) =   0
                l(3) =   1
                l(4) =   1
                l(5) =   2
     Q(r) pseudized with  8 coefficients,  rinner =    1.250   1.250   1.250
                                                       1.250   1.250

     Mode symmetry, C_4v (4mm)  point group:


     Atomic displacements:
     There are   2 irreducible representations

     Representation     1      1 modes -A_1  G_1 D_1  To be done

     Representation     2      2 modes -E    G_5 D_5  To be done



     Alpha used in Ewald sum =   2.8000
     PHONON       : 34m25.17s CPU    37m12.85s WALL



     Representation #  1 mode #   1

     Self-consistent Calculation

      iter #   1 total cpu time :  2248.7 secs   av.it.:   5.7
      thresh= 1.000E-02 alpha_mix =  0.700 |ddv_scf|^2 =  1.457E-02

      iter #   2 total cpu time :  2263.8 secs   av.it.:   6.5
      thresh= 1.000E-02 alpha_mix =  0.700 |ddv_scf|^2 =  1.172E+00

      iter #   3 total cpu time :  2279.6 secs   av.it.:   6.4
      thresh= 1.000E-02 alpha_mix =  0.700 |ddv_scf|^2 =  2.305E-06

      iter #   4 total cpu time :  2296.4 secs   av.it.:   7.4
      thresh= 1.518E-04 alpha_mix =  0.700 |ddv_scf|^2 =  7.350E-08

      iter #   5 total cpu time :  2313.3 secs   av.it.:   7.5
      thresh= 2.711E-05 alpha_mix =  0.700 |ddv_scf|^2 =  1.609E-09

      iter #   6 total cpu time :  2330.3 secs   av.it.:   7.6
      thresh= 4.012E-06 alpha_mix =  0.700 |ddv_scf|^2 =  1.694E-10

      iter #   7 total cpu time :  2347.4 secs   av.it.:   7.5
      thresh= 1.302E-06 alpha_mix =  0.700 |ddv_scf|^2 =  4.761E-09

      iter #   8 total cpu time :  2361.2 secs   av.it.:   5.7
      thresh= 6.900E-06 alpha_mix =  0.700 |ddv_scf|^2 =  4.307E-11

      iter #   9 total cpu time :  2377.1 secs   av.it.:   6.8
      thresh= 6.563E-07 alpha_mix =  0.700 |ddv_scf|^2 =  1.416E-12

      iter #  10 total cpu time :  2393.4 secs   av.it.:   7.1
      thresh= 1.190E-07 alpha_mix =  0.700 |ddv_scf|^2 =  3.651E-14

      iter #  11 total cpu time :  2410.2 secs   av.it.:   7.5
      thresh= 1.911E-08 alpha_mix =  0.700 |ddv_scf|^2 =  2.216E-16

      iter #  12 total cpu time :  2427.8 secs   av.it.:   8.2
      thresh= 1.488E-09 alpha_mix =  0.700 |ddv_scf|^2 =  1.065E-16

      iter #  13 total cpu time :  2445.0 secs   av.it.:   7.7
      thresh= 1.032E-09 alpha_mix =  0.700 |ddv_scf|^2 =  6.324E-16

      iter #  14 total cpu time :  2457.9 secs   av.it.:   5.3
      thresh= 2.515E-09 alpha_mix =  0.700 |ddv_scf|^2 =  2.381E-17

     End of self-consistent calculation

     Convergence has been achieved 


     Representation #  2 modes #   2  3

     Self-consistent Calculation

      iter #   1 total cpu time :  2489.2 secs   av.it.:   5.5
      thresh= 1.000E-02 alpha_mix =  0.700 |ddv_scf|^2 =  2.879E-06

      iter #   2 total cpu time :  2526.1 secs   av.it.:   8.4
      thresh= 1.697E-04 alpha_mix =  0.700 |ddv_scf|^2 =  4.861E-08

      iter #   3 total cpu time :  2564.0 secs   av.it.:   8.6
      thresh= 2.205E-05 alpha_mix =  0.700 |ddv_scf|^2 =  1.278E-09

      iter #   4 total cpu time :  2600.8 secs   av.it.:   8.3
      thresh= 3.575E-06 alpha_mix =  0.700 |ddv_scf|^2 =  4.466E-12

      iter #   5 total cpu time :  2637.8 secs   av.it.:   8.6
      thresh= 2.113E-07 alpha_mix =  0.700 |ddv_scf|^2 =  6.408E-15

      iter #   6 total cpu time :  2673.6 secs   av.it.:   8.0
      thresh= 8.005E-09 alpha_mix =  0.700 |ddv_scf|^2 =  2.601E-16

      iter #   7 total cpu time :  2710.7 secs   av.it.:   8.4
      thresh= 1.613E-09 alpha_mix =  0.700 |ddv_scf|^2 =  2.228E-19

     End of self-consistent calculation

     Convergence has been achieved 

     Number of q in the star =    6
     List of q in the star:
          1   0.000000000   0.333333333   0.000000000
          2   0.333333333   0.000000000   0.000000000
          3   0.000000000   0.000000000   0.333333333
          4   0.000000000  -0.333333333   0.000000000
          5  -0.333333333   0.000000000   0.000000000
          6   0.000000000   0.000000000  -0.333333333

     Diagonalizing the dynamical matrix

     q = (    0.000000000   0.333333333   0.000000000 ) 

 **************************************************************************
     freq (    1) =       1.773666 [THz] =      59.163143 [cm-1]
     freq (    2) =       1.773666 [THz] =      59.163143 [cm-1]
     freq (    3) =       2.614957 [THz] =      87.225589 [cm-1]
 **************************************************************************

     Mode symmetry, C_4v (4mm)  point group:

     freq (  1 -  2) =         59.2  [cm-1]   --> E    G_5 D_5       
     freq (  3 -  3) =         87.2  [cm-1]   --> A_1  G_1 D_1       

     Calculation of q =   -0.1666667   0.5000000  -0.1666667

   Info: using nr1, nr2, nr3 values from input

   Info: using nr1, nr2, nr3 values from input

     Parallelization info
     --------------------
     sticks:   dense  smooth     PW     G-vecs:    dense   smooth      PW
     Min          57      28     10                 1154      410      91
     Max          58      29     11                 1158      412      94
     Sum         925     463    169                18499     6567    1471



     bravais-lattice index     =            2
     lattice parameter (alat)  =       9.1500  a.u.
     unit-cell volume          =     191.5152 (a.u.)^3
     number of atoms/cell      =            1
     number of atomic types    =            1
     number of electrons       =         9.00
     number of Kohn-Sham states=            9
     kinetic-energy cutoff     =      40.0000  Ry
     charge density cutoff     =     320.0000  Ry
     Exchange-correlation      = SLA  PW   PBE  PBE ( 1  4  3  4 0 0)

     celldm(1)=   9.150000  celldm(2)=   0.000000  celldm(3)=   0.000000
     celldm(4)=   0.000000  celldm(5)=   0.000000  celldm(6)=   0.000000

     crystal axes: (cart. coord. in units of alat)
               a(1) = (  -0.500000   0.000000   0.500000 )  
               a(2) = (   0.000000   0.500000   0.500000 )  
               a(3) = (  -0.500000   0.500000   0.000000 )  

     reciprocal axes: (cart. coord. in units 2 pi/alat)
               b(1) = ( -1.000000 -1.000000  1.000000 )  
               b(2) = (  1.000000  1.000000  1.000000 )  
               b(3) = ( -1.000000  1.000000 -1.000000 )  


     PseudoPot. # 1 for Na read from file:
     /home/s1333534/quantum_espresso/qe-6.1/pseudo/Na_pbe_v1.uspp.F.UPF
     MD5 check sum: 76a99c7e9422403d3e93cbc85ab7bccb
     Pseudo is Ultrasoft, Zval =  9.0
     Generated by new atomic code, or converted to UPF format
     Using radial grid of  819 points,  5 beta functions with: 
                l(1) =   0
                l(2) =   0
                l(3) =   1
                l(4) =   1
                l(5) =   2
     Q(r) pseudized with  8 coefficients,  rinner =    1.250   1.250   1.250
                                                       1.250   1.250

     atomic species   valence    mass     pseudopotential
        Na             9.00    22.99000     Na( 1.00)

     48 Sym. Ops., with inversion, found



   Cartesian axes

     site n.     atom                  positions (alat units)
         1           Na  tau(   1) = (   0.0000000   0.0000000   0.0000000  )

     number of k points= 32800  Marzari-Vanderbilt smearing, width (Ry)=  0.0200

     Number of k-points >= 100: set verbosity='high' to print them.

     Dense  grid:    18499 G-vectors     FFT dimensions: (  40,  40,  40)

     Smooth grid:     6567 G-vectors     FFT dimensions: (  27,  27,  27)

     Estimated max dynamical RAM per process >       0.64MB

     Estimated total allocated dynamical RAM >      40.65MB

     The potential is recalculated from file :
     ./_ph0/na.fcc.save/charge-density.dat

     Starting wfc are    5 atomic +    4 random wfc

     Band Structure Calculation
     Davidson diagonalization with overlap

     ethr =  1.11E-10,  avg # of iterations = 17.9

     total cpu time spent up to now is     1088.6 secs

     End of band structure calculation

     Number of k-points >= 100: set verbosity='high' to print the bands.

     the Fermi energy is     2.8914 ev

     Writing output data file na.fcc.save

                                                                                

     bravais-lattice index     =            2
     lattice parameter (alat)  =       9.1500  a.u.
     unit-cell volume          =     191.5152 (a.u.)^3
     number of atoms/cell      =            1
     number of atomic types    =            1
     kinetic-energy cut-off    =      40.0000  Ry
     charge density cut-off    =     320.0000  Ry
     convergence threshold     =      1.0E-16
     beta                      =       0.7000
     number of iterations used =            4
     Exchange-correlation      = SLA  PW   PBE  PBE ( 1  4  3  4 0 0)


     celldm(1)=    9.15000  celldm(2)=    0.00000  celldm(3)=    0.00000
     celldm(4)=    0.00000  celldm(5)=    0.00000  celldm(6)=    0.00000

     crystal axes: (cart. coord. in units of alat)
               a(1) = ( -0.5000  0.0000  0.5000 )  
               a(2) = (  0.0000  0.5000  0.5000 )  
               a(3) = ( -0.5000  0.5000  0.0000 )  

     reciprocal axes: (cart. coord. in units 2 pi/alat)
               b(1) = ( -1.0000 -1.0000  1.0000 )  
               b(2) = (  1.0000  1.0000  1.0000 )  
               b(3) = ( -1.0000  1.0000 -1.0000 )  


     Atoms inside the unit cell: 

     Cartesian axes

     site n.  atom      mass           positions (alat units)
        1     Na  22.9900   tau(    1) = (    0.00000    0.00000    0.00000  )

     Computing dynamical matrix for 
                    q = (  -0.1666667   0.5000000  -0.1666667 )

      2 Sym.Ops. (no q -> -q+G )


     G cutoff =  678.6290  (   1157 G-vectors)     FFT grid: ( 40, 40, 40)
     G cutoff =  339.3145  (    410 G-vectors)  smooth grid: ( 27, 27, 27)

     number of k points= 32800  Marzari-Vanderbilt smearing, width (Ry)=  0.0200

     PseudoPot. # 1 for Na read from file:
     /home/s1333534/quantum_espresso/qe-6.1/pseudo/Na_pbe_v1.uspp.F.UPF
     MD5 check sum: 76a99c7e9422403d3e93cbc85ab7bccb
     Pseudo is Ultrasoft, Zval =  9.0
     Generated by new atomic code, or converted to UPF format
     Using radial grid of  819 points,  5 beta functions with: 
                l(1) =   0
                l(2) =   0
                l(3) =   1
                l(4) =   1
                l(5) =   2
     Q(r) pseudized with  8 coefficients,  rinner =    1.250   1.250   1.250
                                                       1.250   1.250

     Mode symmetry, C_s (m)     point group:


     Atomic displacements:
     There are   3 irreducible representations

     Representation     1      1 modes -A'  To be done

     Representation     2      1 modes -A'  To be done

     Representation     3      1 modes -A''  To be done



     Alpha used in Ewald sum =   2.8000
     PHONON       : 50m52.33s CPU    54m50.35s WALL



     Representation #  1 mode #   1

     Self-consistent Calculation

      iter #   1 total cpu time :  3351.8 secs   av.it.:   5.8
      thresh= 1.000E-02 alpha_mix =  0.700 |ddv_scf|^2 =  6.435E-04

      iter #   2 total cpu time :  3414.8 secs   av.it.:   6.9
      thresh= 2.537E-03 alpha_mix =  0.700 |ddv_scf|^2 =  4.831E-03

      iter #   3 total cpu time :  3471.3 secs   av.it.:   5.8
      thresh= 6.950E-03 alpha_mix =  0.700 |ddv_scf|^2 =  6.921E-07

      iter #   4 total cpu time :  3539.9 secs   av.it.:   7.8
      thresh= 8.319E-05 alpha_mix =  0.700 |ddv_scf|^2 =  4.630E-09

      iter #   5 total cpu time :  3612.6 secs   av.it.:   8.4
      thresh= 6.804E-06 alpha_mix =  0.700 |ddv_scf|^2 =  6.592E-10

      iter #   6 total cpu time :  3683.3 secs   av.it.:   8.1
      thresh= 2.567E-06 alpha_mix =  0.700 |ddv_scf|^2 =  1.906E-11

      iter #   7 total cpu time :  3752.7 secs   av.it.:   8.0
      thresh= 4.365E-07 alpha_mix =  0.700 |ddv_scf|^2 =  2.517E-11

      iter #   8 total cpu time :  3815.1 secs   av.it.:   6.8
      thresh= 5.017E-07 alpha_mix =  0.700 |ddv_scf|^2 =  4.271E-12

      iter #   9 total cpu time :  3880.6 secs   av.it.:   7.3
      thresh= 2.067E-07 alpha_mix =  0.700 |ddv_scf|^2 =  9.684E-13

      iter #  10 total cpu time :  3943.3 secs   av.it.:   6.9
      thresh= 9.841E-08 alpha_mix =  0.700 |ddv_scf|^2 =  6.363E-15

      iter #  11 total cpu time :  4015.5 secs   av.it.:   8.4
      thresh= 7.977E-09 alpha_mix =  0.700 |ddv_scf|^2 =  3.181E-16

      iter #  12 total cpu time :  4086.5 secs   av.it.:   8.2
      thresh= 1.784E-09 alpha_mix =  0.700 |ddv_scf|^2 =  5.076E-17

     End of self-consistent calculation

     Convergence has been achieved 


     Representation #  2 mode #   2

     Self-consistent Calculation

      iter #   1 total cpu time :  4149.9 secs   av.it.:   5.7
      thresh= 1.000E-02 alpha_mix =  0.700 |ddv_scf|^2 =  1.088E-04

      iter #   2 total cpu time :  4218.6 secs   av.it.:   7.4
      thresh= 1.043E-03 alpha_mix =  0.700 |ddv_scf|^2 =  7.311E-04

      iter #   3 total cpu time :  4274.4 secs   av.it.:   5.8
      thresh= 2.704E-03 alpha_mix =  0.700 |ddv_scf|^2 =  2.078E-07

      iter #   4 total cpu time :  4346.6 secs   av.it.:   8.2
      thresh= 4.558E-05 alpha_mix =  0.700 |ddv_scf|^2 =  5.992E-09

      iter #   5 total cpu time :  4418.2 secs   av.it.:   8.2
      thresh= 7.741E-06 alpha_mix =  0.700 |ddv_scf|^2 =  2.086E-10

      iter #   6 total cpu time :  4489.4 secs   av.it.:   8.3
      thresh= 1.444E-06 alpha_mix =  0.700 |ddv_scf|^2 =  1.573E-11

      iter #   7 total cpu time :  4558.8 secs   av.it.:   8.1
      thresh= 3.966E-07 alpha_mix =  0.700 |ddv_scf|^2 =  7.119E-13

      iter #   8 total cpu time :  4627.3 secs   av.it.:   7.8
      thresh= 8.438E-08 alpha_mix =  0.700 |ddv_scf|^2 =  3.004E-13

      iter #   9 total cpu time :  4687.3 secs   av.it.:   6.5
      thresh= 5.481E-08 alpha_mix =  0.700 |ddv_scf|^2 =  2.815E-14

      iter #  10 total cpu time :  4754.1 secs   av.it.:   7.3
      thresh= 1.678E-08 alpha_mix =  0.700 |ddv_scf|^2 =  7.567E-15

      iter #  11 total cpu time :  4812.5 secs   av.it.:   6.2
      thresh= 8.699E-09 alpha_mix =  0.700 |ddv_scf|^2 =  7.007E-16

      iter #  12 total cpu time :  4879.1 secs   av.it.:   7.5
      thresh= 2.647E-09 alpha_mix =  0.700 |ddv_scf|^2 =  2.636E-18

     End of self-consistent calculation

     Convergence has been achieved 


     Representation #  3 mode #   3

     Self-consistent Calculation

      iter #   1 total cpu time :  4940.9 secs   av.it.:   5.5
      thresh= 1.000E-02 alpha_mix =  0.700 |ddv_scf|^2 =  1.221E-05

      iter #   2 total cpu time :  5011.2 secs   av.it.:   7.9
      thresh= 3.494E-04 alpha_mix =  0.700 |ddv_scf|^2 =  1.873E-07

      iter #   3 total cpu time :  5082.3 secs   av.it.:   8.1
      thresh= 4.328E-05 alpha_mix =  0.700 |ddv_scf|^2 =  7.265E-09

      iter #   4 total cpu time :  5149.0 secs   av.it.:   7.6
      thresh= 8.523E-06 alpha_mix =  0.700 |ddv_scf|^2 =  2.524E-11

      iter #   5 total cpu time :  5219.8 secs   av.it.:   7.9
      thresh= 5.024E-07 alpha_mix =  0.700 |ddv_scf|^2 =  2.593E-14

      iter #   6 total cpu time :  5284.1 secs   av.it.:   7.2
      thresh= 1.610E-08 alpha_mix =  0.700 |ddv_scf|^2 =  1.449E-15

      iter #   7 total cpu time :  5353.3 secs   av.it.:   7.7
      thresh= 3.807E-09 alpha_mix =  0.700 |ddv_scf|^2 =  1.417E-18

     End of self-consistent calculation

     Convergence has been achieved 

     Number of q in the star =   24
     List of q in the star:
          1  -0.166666667   0.500000000  -0.166666667
          2   0.166666667   0.500000000   0.166666667
          3  -0.166666667   0.500000000   0.166666667
          4   0.166666667   0.500000000  -0.166666667
          5   0.500000000  -0.166666667   0.166666667
          6   0.166666667  -0.166666667   0.500000000
          7  -0.166666667  -0.500000000  -0.166666667
          8   0.166666667  -0.500000000  -0.166666667
          9  -0.166666667  -0.500000000   0.166666667
         10   0.500000000  -0.166666667  -0.166666667
         11  -0.500000000  -0.166666667   0.166666667
         12   0.500000000   0.166666667   0.166666667
         13  -0.166666667   0.166666667  -0.500000000
         14  -0.166666667  -0.166666667   0.500000000
         15   0.166666667   0.166666667   0.500000000
         16   0.166666667  -0.166666667  -0.500000000
         17  -0.500000000   0.166666667  -0.166666667
         18  -0.500000000  -0.166666667  -0.166666667
         19   0.166666667  -0.500000000   0.166666667
         20   0.500000000   0.166666667  -0.166666667
         21   0.166666667   0.166666667  -0.500000000
         22  -0.166666667  -0.166666667  -0.500000000
         23  -0.500000000   0.166666667   0.166666667
         24  -0.166666667   0.166666667   0.500000000

     Diagonalizing the dynamical matrix

     q = (   -0.166666667   0.500000000  -0.166666667 ) 

 **************************************************************************
     freq (    1) =       2.390454 [THz] =      79.736950 [cm-1]
     freq (    2) =       2.402314 [THz] =      80.132553 [cm-1]
     freq (    3) =       4.363123 [THz] =     145.538113 [cm-1]
 **************************************************************************

     Mode symmetry, C_s (m)     point group:

     freq (  1 -  1) =         79.7  [cm-1]   --> A'                 
     freq (  2 -  2) =         80.1  [cm-1]   --> A''                
     freq (  3 -  3) =        145.5  [cm-1]   --> A'                 

     Calculation of q =    0.6666667  -0.3333333   0.6666667

   Info: using nr1, nr2, nr3 values from input

   Info: using nr1, nr2, nr3 values from input

     Parallelization info
     --------------------
     sticks:   dense  smooth     PW     G-vecs:    dense   smooth      PW
     Min          57      28     11                 1154      410     103
     Max          58      29     12                 1158      412     106
     Sum         925     463    187                18499     6567    1687



     bravais-lattice index     =            2
     lattice parameter (alat)  =       9.1500  a.u.
     unit-cell volume          =     191.5152 (a.u.)^3
     number of atoms/cell      =            1
     number of atomic types    =            1
     number of electrons       =         9.00
     number of Kohn-Sham states=            9
     kinetic-energy cutoff     =      40.0000  Ry
     charge density cutoff     =     320.0000  Ry
     Exchange-correlation      = SLA  PW   PBE  PBE ( 1  4  3  4 0 0)

     celldm(1)=   9.150000  celldm(2)=   0.000000  celldm(3)=   0.000000
     celldm(4)=   0.000000  celldm(5)=   0.000000  celldm(6)=   0.000000

     crystal axes: (cart. coord. in units of alat)
               a(1) = (  -0.500000   0.000000   0.500000 )  
               a(2) = (   0.000000   0.500000   0.500000 )  
               a(3) = (  -0.500000   0.500000   0.000000 )  

     reciprocal axes: (cart. coord. in units 2 pi/alat)
               b(1) = ( -1.000000 -1.000000  1.000000 )  
               b(2) = (  1.000000  1.000000  1.000000 )  
               b(3) = ( -1.000000  1.000000 -1.000000 )  


     PseudoPot. # 1 for Na read from file:
     /home/s1333534/quantum_espresso/qe-6.1/pseudo/Na_pbe_v1.uspp.F.UPF
     MD5 check sum: 76a99c7e9422403d3e93cbc85ab7bccb
     Pseudo is Ultrasoft, Zval =  9.0
     Generated by new atomic code, or converted to UPF format
     Using radial grid of  819 points,  5 beta functions with: 
                l(1) =   0
                l(2) =   0
                l(3) =   1
                l(4) =   1
                l(5) =   2
     Q(r) pseudized with  8 coefficients,  rinner =    1.250   1.250   1.250
                                                       1.250   1.250

     atomic species   valence    mass     pseudopotential
        Na             9.00    22.99000     Na( 1.00)

     48 Sym. Ops., with inversion, found



   Cartesian axes

     site n.     atom                  positions (alat units)
         1           Na  tau(   1) = (   0.0000000   0.0000000   0.0000000  )

     number of k points= 32800  Marzari-Vanderbilt smearing, width (Ry)=  0.0200

     Number of k-points >= 100: set verbosity='high' to print them.

     Dense  grid:    18499 G-vectors     FFT dimensions: (  40,  40,  40)

     Smooth grid:     6567 G-vectors     FFT dimensions: (  27,  27,  27)

     Estimated max dynamical RAM per process >       0.64MB

     Estimated total allocated dynamical RAM >      40.65MB

     The potential is recalculated from file :
     ./_ph0/na.fcc.save/charge-density.dat

     Starting wfc are    5 atomic +    4 random wfc

     Band Structure Calculation
     Davidson diagonalization with overlap

     ethr =  1.11E-10,  avg # of iterations = 17.9

     total cpu time spent up to now is     1647.3 secs

     End of band structure calculation

     Number of k-points >= 100: set verbosity='high' to print the bands.

     the Fermi energy is     2.8914 ev

     Writing output data file na.fcc.save

                                                                                

     bravais-lattice index     =            2
     lattice parameter (alat)  =       9.1500  a.u.
     unit-cell volume          =     191.5152 (a.u.)^3
     number of atoms/cell      =            1
     number of atomic types    =            1
     kinetic-energy cut-off    =      40.0000  Ry
     charge density cut-off    =     320.0000  Ry
     convergence threshold     =      1.0E-16
     beta                      =       0.7000
     number of iterations used =            4
     Exchange-correlation      = SLA  PW   PBE  PBE ( 1  4  3  4 0 0)


     celldm(1)=    9.15000  celldm(2)=    0.00000  celldm(3)=    0.00000
     celldm(4)=    0.00000  celldm(5)=    0.00000  celldm(6)=    0.00000

     crystal axes: (cart. coord. in units of alat)
               a(1) = ( -0.5000  0.0000  0.5000 )  
               a(2) = (  0.0000  0.5000  0.5000 )  
               a(3) = ( -0.5000  0.5000  0.0000 )  

     reciprocal axes: (cart. coord. in units 2 pi/alat)
               b(1) = ( -1.0000 -1.0000  1.0000 )  
               b(2) = (  1.0000  1.0000  1.0000 )  
               b(3) = ( -1.0000  1.0000 -1.0000 )  


     Atoms inside the unit cell: 

     Cartesian axes

     site n.  atom      mass           positions (alat units)
        1     Na  22.9900   tau(    1) = (    0.00000    0.00000    0.00000  )

     Computing dynamical matrix for 
                    q = (   0.6666667  -0.3333333   0.6666667 )

      2 Sym.Ops. (no q -> -q+G )


     G cutoff =  678.6290  (   1157 G-vectors)     FFT grid: ( 40, 40, 40)
     G cutoff =  339.3145  (    410 G-vectors)  smooth grid: ( 27, 27, 27)

     number of k points= 32800  Marzari-Vanderbilt smearing, width (Ry)=  0.0200

     PseudoPot. # 1 for Na read from file:
     /home/s1333534/quantum_espresso/qe-6.1/pseudo/Na_pbe_v1.uspp.F.UPF
     MD5 check sum: 76a99c7e9422403d3e93cbc85ab7bccb
     Pseudo is Ultrasoft, Zval =  9.0
     Generated by new atomic code, or converted to UPF format
     Using radial grid of  819 points,  5 beta functions with: 
                l(1) =   0
                l(2) =   0
                l(3) =   1
                l(4) =   1
                l(5) =   2
     Q(r) pseudized with  8 coefficients,  rinner =    1.250   1.250   1.250
                                                       1.250   1.250

     Mode symmetry, C_s (m)     point group:


     Atomic displacements:
     There are   3 irreducible representations

     Representation     1      1 modes -A'  To be done

     Representation     2      1 modes -A'  To be done

     Representation     3      1 modes -A''  To be done



     Alpha used in Ewald sum =   2.8000
     PHONON       :     1h31m CPU        1h38m WALL



     Representation #  1 mode #   1

     Self-consistent Calculation

      iter #   1 total cpu time :  6003.8 secs   av.it.:   5.8
      thresh= 1.000E-02 alpha_mix =  0.700 |ddv_scf|^2 =  7.928E-05

      iter #   2 total cpu time :  6073.2 secs   av.it.:   7.4
      thresh= 8.904E-04 alpha_mix =  0.700 |ddv_scf|^2 =  5.335E-05

      iter #   3 total cpu time :  6139.1 secs   av.it.:   7.1
      thresh= 7.304E-04 alpha_mix =  0.700 |ddv_scf|^2 =  1.150E-07

      iter #   4 total cpu time :  6212.1 secs   av.it.:   8.3
      thresh= 3.391E-05 alpha_mix =  0.700 |ddv_scf|^2 =  8.539E-09

      iter #   5 total cpu time :  6284.4 secs   av.it.:   8.2
      thresh= 9.241E-06 alpha_mix =  0.700 |ddv_scf|^2 =  4.688E-10

      iter #   6 total cpu time :  6355.3 secs   av.it.:   8.0
      thresh= 2.165E-06 alpha_mix =  0.700 |ddv_scf|^2 =  7.551E-12

      iter #   7 total cpu time :  6428.3 secs   av.it.:   8.3
      thresh= 2.748E-07 alpha_mix =  0.700 |ddv_scf|^2 =  3.047E-13

      iter #   8 total cpu time :  6501.7 secs   av.it.:   8.3
      thresh= 5.520E-08 alpha_mix =  0.700 |ddv_scf|^2 =  2.432E-14

      iter #   9 total cpu time :  6574.6 secs   av.it.:   8.1
      thresh= 1.559E-08 alpha_mix =  0.700 |ddv_scf|^2 =  1.367E-15

      iter #  10 total cpu time :  6643.4 secs   av.it.:   7.5
      thresh= 3.698E-09 alpha_mix =  0.700 |ddv_scf|^2 =  6.854E-17

     End of self-consistent calculation

     Convergence has been achieved 


     Representation #  2 mode #   2

     Self-consistent Calculation

      iter #   1 total cpu time :  6709.3 secs   av.it.:   5.8
      thresh= 1.000E-02 alpha_mix =  0.700 |ddv_scf|^2 =  4.125E-05

      iter #   2 total cpu time :  6779.9 secs   av.it.:   7.7
      thresh= 6.423E-04 alpha_mix =  0.700 |ddv_scf|^2 =  1.686E-05

      iter #   3 total cpu time :  6847.6 secs   av.it.:   7.3
      thresh= 4.105E-04 alpha_mix =  0.700 |ddv_scf|^2 =  4.601E-07

      iter #   4 total cpu time :  6918.4 secs   av.it.:   7.7
      thresh= 6.783E-05 alpha_mix =  0.700 |ddv_scf|^2 =  1.329E-08

      iter #   5 total cpu time :  6991.5 secs   av.it.:   8.2
      thresh= 1.153E-05 alpha_mix =  0.700 |ddv_scf|^2 =  3.452E-10

      iter #   6 total cpu time :  7064.3 secs   av.it.:   8.1
      thresh= 1.858E-06 alpha_mix =  0.700 |ddv_scf|^2 =  1.937E-11

      iter #   7 total cpu time :  7137.3 secs   av.it.:   8.3
      thresh= 4.402E-07 alpha_mix =  0.700 |ddv_scf|^2 =  1.027E-12

      iter #   8 total cpu time :  7210.5 secs   av.it.:   8.3
      thresh= 1.013E-07 alpha_mix =  0.700 |ddv_scf|^2 =  2.966E-14

      iter #   9 total cpu time :  7282.2 secs   av.it.:   7.9
      thresh= 1.722E-08 alpha_mix =  0.700 |ddv_scf|^2 =  6.355E-15

      iter #  10 total cpu time :  7351.0 secs   av.it.:   7.6
      thresh= 7.972E-09 alpha_mix =  0.700 |ddv_scf|^2 =  1.274E-16

      iter #  11 total cpu time :  7425.6 secs   av.it.:   8.2
      thresh= 1.129E-09 alpha_mix =  0.700 |ddv_scf|^2 =  3.567E-18

     End of self-consistent calculation

     Convergence has been achieved 


     Representation #  3 mode #   3

     Self-consistent Calculation

      iter #   1 total cpu time :  7489.2 secs   av.it.:   5.5
      thresh= 1.000E-02 alpha_mix =  0.700 |ddv_scf|^2 =  1.218E-05

      iter #   2 total cpu time :  7560.1 secs   av.it.:   7.9
      thresh= 3.491E-04 alpha_mix =  0.700 |ddv_scf|^2 =  1.894E-07

      iter #   3 total cpu time :  7631.9 secs   av.it.:   8.1
      thresh= 4.352E-05 alpha_mix =  0.700 |ddv_scf|^2 =  7.064E-09

      iter #   4 total cpu time :  7700.5 secs   av.it.:   7.6
      thresh= 8.405E-06 alpha_mix =  0.700 |ddv_scf|^2 =  2.535E-11

      iter #   5 total cpu time :  7772.6 secs   av.it.:   7.9
      thresh= 5.035E-07 alpha_mix =  0.700 |ddv_scf|^2 =  2.735E-14

      iter #   6 total cpu time :  7838.6 secs   av.it.:   7.2
      thresh= 1.654E-08 alpha_mix =  0.700 |ddv_scf|^2 =  1.493E-15

      iter #   7 total cpu time :  7909.5 secs   av.it.:   7.7
      thresh= 3.864E-09 alpha_mix =  0.700 |ddv_scf|^2 =  1.398E-18

     End of self-consistent calculation

     Convergence has been achieved 

     Number of q in the star =   24
     List of q in the star:
          1   0.666666667  -0.333333333   0.666666667
          2  -0.666666667  -0.333333333  -0.666666667
          3   0.666666667  -0.333333333  -0.666666667
          4  -0.666666667  -0.333333333   0.666666667
          5  -0.333333333   0.666666667  -0.666666667
          6  -0.666666667   0.666666667  -0.333333333
          7   0.666666667   0.333333333   0.666666667
          8  -0.666666667   0.333333333   0.666666667
          9   0.666666667   0.333333333  -0.666666667
         10  -0.333333333   0.666666667   0.666666667
         11   0.333333333   0.666666667  -0.666666667
         12  -0.333333333  -0.666666667  -0.666666667
         13   0.666666667  -0.666666667   0.333333333
         14   0.666666667   0.666666667  -0.333333333
         15  -0.666666667  -0.666666667  -0.333333333
         16  -0.666666667   0.666666667   0.333333333
         17   0.333333333  -0.666666667   0.666666667
         18   0.333333333   0.666666667   0.666666667
         19  -0.666666667   0.333333333  -0.666666667
         20  -0.333333333  -0.666666667   0.666666667
         21  -0.666666667  -0.666666667   0.333333333
         22   0.666666667   0.666666667   0.333333333
         23   0.333333333  -0.666666667  -0.666666667
         24   0.666666667  -0.666666667  -0.333333333

     Diagonalizing the dynamical matrix

     q = (    0.666666667  -0.333333333   0.666666667 ) 

 **************************************************************************
     freq (    1) =       2.505607 [THz] =      83.578059 [cm-1]
     freq (    2) =       3.081981 [THz] =     102.803829 [cm-1]
     freq (    3) =       5.388285 [THz] =     179.733846 [cm-1]
 **************************************************************************

     Mode symmetry, C_s (m)     point group:

     freq (  1 -  1) =         83.6  [cm-1]   --> A''                
     freq (  2 -  2) =        102.8  [cm-1]   --> A'                 
     freq (  3 -  3) =        179.7  [cm-1]   --> A'                 

     Calculation of q =    0.5000000  -0.1666667   0.5000000

   Info: using nr1, nr2, nr3 values from input

   Info: using nr1, nr2, nr3 values from input

     Parallelization info
     --------------------
     sticks:   dense  smooth     PW     G-vecs:    dense   smooth      PW
     Min          57      28     11                 1154      410      99
     Max          58      29     13                 1158      412     101
     Sum         925     463    187                18499     6567    1591



     bravais-lattice index     =            2
     lattice parameter (alat)  =       9.1500  a.u.
     unit-cell volume          =     191.5152 (a.u.)^3
     number of atoms/cell      =            1
     number of atomic types    =            1
     number of electrons       =         9.00
     number of Kohn-Sham states=            9
     kinetic-energy cutoff     =      40.0000  Ry
     charge density cutoff     =     320.0000  Ry
     Exchange-correlation      = SLA  PW   PBE  PBE ( 1  4  3  4 0 0)

     celldm(1)=   9.150000  celldm(2)=   0.000000  celldm(3)=   0.000000
     celldm(4)=   0.000000  celldm(5)=   0.000000  celldm(6)=   0.000000

     crystal axes: (cart. coord. in units of alat)
               a(1) = (  -0.500000   0.000000   0.500000 )  
               a(2) = (   0.000000   0.500000   0.500000 )  
               a(3) = (  -0.500000   0.500000   0.000000 )  

     reciprocal axes: (cart. coord. in units 2 pi/alat)
               b(1) = ( -1.000000 -1.000000  1.000000 )  
               b(2) = (  1.000000  1.000000  1.000000 )  
               b(3) = ( -1.000000  1.000000 -1.000000 )  


     PseudoPot. # 1 for Na read from file:
     /home/s1333534/quantum_espresso/qe-6.1/pseudo/Na_pbe_v1.uspp.F.UPF
     MD5 check sum: 76a99c7e9422403d3e93cbc85ab7bccb
     Pseudo is Ultrasoft, Zval =  9.0
     Generated by new atomic code, or converted to UPF format
     Using radial grid of  819 points,  5 beta functions with: 
                l(1) =   0
                l(2) =   0
                l(3) =   1
                l(4) =   1
                l(5) =   2
     Q(r) pseudized with  8 coefficients,  rinner =    1.250   1.250   1.250
                                                       1.250   1.250

     atomic species   valence    mass     pseudopotential
        Na             9.00    22.99000     Na( 1.00)

     48 Sym. Ops., with inversion, found



   Cartesian axes

     site n.     atom                  positions (alat units)
         1           Na  tau(   1) = (   0.0000000   0.0000000   0.0000000  )

     number of k points= 32800  Marzari-Vanderbilt smearing, width (Ry)=  0.0200

     Number of k-points >= 100: set verbosity='high' to print them.

     Dense  grid:    18499 G-vectors     FFT dimensions: (  40,  40,  40)

     Smooth grid:     6567 G-vectors     FFT dimensions: (  27,  27,  27)

     Estimated max dynamical RAM per process >       0.64MB

     Estimated total allocated dynamical RAM >      40.65MB

     The potential is recalculated from file :
     ./_ph0/na.fcc.save/charge-density.dat

     Starting wfc are    5 atomic +    4 random wfc

     Band Structure Calculation
     Davidson diagonalization with overlap

     ethr =  1.11E-10,  avg # of iterations = 17.9

     total cpu time spent up to now is     2226.2 secs

     End of band structure calculation

     Number of k-points >= 100: set verbosity='high' to print the bands.

     the Fermi energy is     2.8914 ev

     Writing output data file na.fcc.save

                                                                                

     bravais-lattice index     =            2
     lattice parameter (alat)  =       9.1500  a.u.
     unit-cell volume          =     191.5152 (a.u.)^3
     number of atoms/cell      =            1
     number of atomic types    =            1
     kinetic-energy cut-off    =      40.0000  Ry
     charge density cut-off    =     320.0000  Ry
     convergence threshold     =      1.0E-16
     beta                      =       0.7000
     number of iterations used =            4
     Exchange-correlation      = SLA  PW   PBE  PBE ( 1  4  3  4 0 0)


     celldm(1)=    9.15000  celldm(2)=    0.00000  celldm(3)=    0.00000
     celldm(4)=    0.00000  celldm(5)=    0.00000  celldm(6)=    0.00000

     crystal axes: (cart. coord. in units of alat)
               a(1) = ( -0.5000  0.0000  0.5000 )  
               a(2) = (  0.0000  0.5000  0.5000 )  
               a(3) = ( -0.5000  0.5000  0.0000 )  

     reciprocal axes: (cart. coord. in units 2 pi/alat)
               b(1) = ( -1.0000 -1.0000  1.0000 )  
               b(2) = (  1.0000  1.0000  1.0000 )  
               b(3) = ( -1.0000  1.0000 -1.0000 )  


     Atoms inside the unit cell: 

     Cartesian axes

     site n.  atom      mass           positions (alat units)
        1     Na  22.9900   tau(    1) = (    0.00000    0.00000    0.00000  )

     Computing dynamical matrix for 
                    q = (   0.5000000  -0.1666667   0.5000000 )

      2 Sym.Ops. (no q -> -q+G )


     G cutoff =  678.6290  (   1157 G-vectors)     FFT grid: ( 40, 40, 40)
     G cutoff =  339.3145  (    410 G-vectors)  smooth grid: ( 27, 27, 27)

     number of k points= 32800  Marzari-Vanderbilt smearing, width (Ry)=  0.0200

     PseudoPot. # 1 for Na read from file:
     /home/s1333534/quantum_espresso/qe-6.1/pseudo/Na_pbe_v1.uspp.F.UPF
     MD5 check sum: 76a99c7e9422403d3e93cbc85ab7bccb
     Pseudo is Ultrasoft, Zval =  9.0
     Generated by new atomic code, or converted to UPF format
     Using radial grid of  819 points,  5 beta functions with: 
                l(1) =   0
                l(2) =   0
                l(3) =   1
                l(4) =   1
                l(5) =   2
     Q(r) pseudized with  8 coefficients,  rinner =    1.250   1.250   1.250
                                                       1.250   1.250

     Mode symmetry, C_s (m)     point group:


     Atomic displacements:
     There are   3 irreducible representations

     Representation     1      1 modes -A'  To be done

     Representation     2      1 modes -A'  To be done

     Representation     3      1 modes -A''  To be done



     Alpha used in Ewald sum =   2.8000
     PHONON       :     2h11m CPU        2h22m WALL



     Representation #  1 mode #   1

     Self-consistent Calculation

      iter #   1 total cpu time :  8590.4 secs   av.it.:   5.8
[...]

      iter #   4 total cpu time : 21029.5 secs   av.it.:   8.3
      thresh= 1.891E-05 alpha_mix =  0.700 |ddv_scf|^2 =  9.559E-10

      iter #   5 total cpu time : 21099.0 secs   av.it.:   7.8
      thresh= 3.092E-06 alpha_mix =  0.700 |ddv_scf|^2 =  2.998E-11

      iter #   6 total cpu time : 21167.6 secs   av.it.:   7.6
      thresh= 5.475E-07 alpha_mix =  0.700 |ddv_scf|^2 =  5.775E-14

      iter #   7 total cpu time : 21237.1 secs   av.it.:   7.9
      thresh= 2.403E-08 alpha_mix =  0.700 |ddv_scf|^2 =  4.231E-15

      iter #   8 total cpu time : 21306.7 secs   av.it.:   7.9
      thresh= 6.504E-09 alpha_mix =  0.700 |ddv_scf|^2 =  1.227E-17

     End of self-consistent calculation

     Convergence has been achieved 

     Number of q in the star =   24
     List of q in the star:
          1   0.500000000  -0.166666667   0.833333333
          2   0.833333333   0.166666667   0.500000000
          3   0.500000000   0.166666667   0.833333333
          4  -0.833333333  -0.166666667   0.500000000
          5  -0.833333333  -0.166666667  -0.500000000
          6  -0.500000000  -0.166666667  -0.833333333
          7   0.833333333  -0.166666667   0.500000000
          8  -0.500000000  -0.166666667   0.833333333
          9  -0.833333333   0.166666667   0.500000000
         10   0.833333333   0.166666667  -0.500000000
         11   0.833333333  -0.166666667  -0.500000000
         12   0.500000000   0.166666667  -0.833333333
         13  -0.500000000   0.166666667   0.833333333
         14  -0.500000000   0.166666667  -0.833333333
         15  -0.833333333   0.166666667  -0.500000000
         16   0.833333333  -0.500000000   0.166666667
         17   0.833333333   0.500000000  -0.166666667
         18  -0.833333333  -0.500000000  -0.166666667
         19  -0.833333333   0.500000000   0.166666667
         20   0.166666667  -0.500000000   0.833333333
         21  -0.166666667   0.500000000   0.833333333
         22   0.166666667   0.500000000  -0.833333333
         23  -0.166666667  -0.500000000  -0.833333333
         24  -0.500000000   0.833333333   0.166666667

     Diagonalizing the dynamical matrix

     q = (    0.500000000  -0.166666667   0.833333333 ) 

 **************************************************************************
     freq (    1) =       3.043555 [THz] =     101.522075 [cm-1]
     freq (    2) =       4.271898 [THz] =     142.495174 [cm-1]
     freq (    3) =       5.100434 [THz] =     170.132179 [cm-1]
 **************************************************************************

     Mode symmetry, C_2  (2)    point group:

     freq (  1 -  1) =        101.5  [cm-1]   --> B                  
     freq (  2 -  2) =        142.5  [cm-1]   --> A                  
     freq (  3 -  3) =        170.1  [cm-1]   --> B                  

     Calculation of q =   -0.3333333  -1.0000000   0.0000000

   Info: using nr1, nr2, nr3 values from input

   Info: using nr1, nr2, nr3 values from input

     Parallelization info
     --------------------
     sticks:   dense  smooth     PW     G-vecs:    dense   smooth      PW
     Min          57      28     11                 1154      410     103
     Max          58      29     12                 1158      412     106
     Sum         925     463    187                18499     6567    1687



     bravais-lattice index     =            2
     lattice parameter (alat)  =       9.1500  a.u.
     unit-cell volume          =     191.5152 (a.u.)^3
     number of atoms/cell      =            1
     number of atomic types    =            1
     number of electrons       =         9.00
     number of Kohn-Sham states=            9
     kinetic-energy cutoff     =      40.0000  Ry
     charge density cutoff     =     320.0000  Ry
     Exchange-correlation      = SLA  PW   PBE  PBE ( 1  4  3  4 0 0)

     celldm(1)=   9.150000  celldm(2)=   0.000000  celldm(3)=   0.000000
     celldm(4)=   0.000000  celldm(5)=   0.000000  celldm(6)=   0.000000

     crystal axes: (cart. coord. in units of alat)
               a(1) = (  -0.500000   0.000000   0.500000 )  
               a(2) = (   0.000000   0.500000   0.500000 )  
               a(3) = (  -0.500000   0.500000   0.000000 )  

     reciprocal axes: (cart. coord. in units 2 pi/alat)
               b(1) = ( -1.000000 -1.000000  1.000000 )  
               b(2) = (  1.000000  1.000000  1.000000 )  
               b(3) = ( -1.000000  1.000000 -1.000000 )  


     PseudoPot. # 1 for Na read from file:
     /home/s1333534/quantum_espresso/qe-6.1/pseudo/Na_pbe_v1.uspp.F.UPF
     MD5 check sum: 76a99c7e9422403d3e93cbc85ab7bccb
     Pseudo is Ultrasoft, Zval =  9.0
     Generated by new atomic code, or converted to UPF format
     Using radial grid of  819 points,  5 beta functions with: 
                l(1) =   0
                l(2) =   0
                l(3) =   1
                l(4) =   1
                l(5) =   2
     Q(r) pseudized with  8 coefficients,  rinner =    1.250   1.250   1.250
                                                       1.250   1.250

     atomic species   valence    mass     pseudopotential
        Na             9.00    22.99000     Na( 1.00)

     48 Sym. Ops., with inversion, found



   Cartesian axes

     site n.     atom                  positions (alat units)
         1           Na  tau(   1) = (   0.0000000   0.0000000   0.0000000  )

     number of k points= 16000  Marzari-Vanderbilt smearing, width (Ry)=  0.0200

     Number of k-points >= 100: set verbosity='high' to print them.

     Dense  grid:    18499 G-vectors     FFT dimensions: (  40,  40,  40)

     Smooth grid:     6567 G-vectors     FFT dimensions: (  27,  27,  27)

     Estimated max dynamical RAM per process >       0.64MB

     Estimated total allocated dynamical RAM >      40.65MB

     The potential is recalculated from file :
     ./_ph0/na.fcc.save/charge-density.dat

     Starting wfc are    5 atomic +    4 random wfc

     Band Structure Calculation
     Davidson diagonalization with overlap

     ethr =  1.11E-10,  avg # of iterations = 17.9

     total cpu time spent up to now is     5079.7 secs

     End of band structure calculation

     Number of k-points >= 100: set verbosity='high' to print the bands.

     the Fermi energy is     2.8914 ev

     Writing output data file na.fcc.save

                                                                                

     bravais-lattice index     =            2
     lattice parameter (alat)  =       9.1500  a.u.
     unit-cell volume          =     191.5152 (a.u.)^3
     number of atoms/cell      =            1
     number of atomic types    =            1
     kinetic-energy cut-off    =      40.0000  Ry
     charge density cut-off    =     320.0000  Ry
     convergence threshold     =      1.0E-16
     beta                      =       0.7000
     number of iterations used =            4
     Exchange-correlation      = SLA  PW   PBE  PBE ( 1  4  3  4 0 0)


     celldm(1)=    9.15000  celldm(2)=    0.00000  celldm(3)=    0.00000
     celldm(4)=    0.00000  celldm(5)=    0.00000  celldm(6)=    0.00000

     crystal axes: (cart. coord. in units of alat)
               a(1) = ( -0.5000  0.0000  0.5000 )  
               a(2) = (  0.0000  0.5000  0.5000 )  
               a(3) = ( -0.5000  0.5000  0.0000 )  

     reciprocal axes: (cart. coord. in units 2 pi/alat)
               b(1) = ( -1.0000 -1.0000  1.0000 )  
               b(2) = (  1.0000  1.0000  1.0000 )  
               b(3) = ( -1.0000  1.0000 -1.0000 )  


     Atoms inside the unit cell: 

     Cartesian axes

     site n.  atom      mass           positions (alat units)
        1     Na  22.9900   tau(    1) = (    0.00000    0.00000    0.00000  )

     Computing dynamical matrix for 
                    q = (  -0.3333333  -1.0000000   0.0000000 )

      4 Sym.Ops. (no q -> -q+G )


     G cutoff =  678.6290  (   1157 G-vectors)     FFT grid: ( 40, 40, 40)
     G cutoff =  339.3145  (    410 G-vectors)  smooth grid: ( 27, 27, 27)

     number of k points= 16000  Marzari-Vanderbilt smearing, width (Ry)=  0.0200

     PseudoPot. # 1 for Na read from file:
     /home/s1333534/quantum_espresso/qe-6.1/pseudo/Na_pbe_v1.uspp.F.UPF
     MD5 check sum: 76a99c7e9422403d3e93cbc85ab7bccb
     Pseudo is Ultrasoft, Zval =  9.0
     Generated by new atomic code, or converted to UPF format
     Using radial grid of  819 points,  5 beta functions with: 
                l(1) =   0
                l(2) =   0
                l(3) =   1
                l(4) =   1
                l(5) =   2
     Q(r) pseudized with  8 coefficients,  rinner =    1.250   1.250   1.250
                                                       1.250   1.250

     Mode symmetry, C_2v (mm2)  point group:


     Atomic displacements:
     There are   3 irreducible representations

     Representation     1      1 modes -A_1  D_1  S_1  To be done

     Representation     2      1 modes -B_1  D_3  S_3  To be done

     Representation     3      1 modes -B_2  D_4  S_4  To be done



     Alpha used in Ewald sum =   2.8000
     PHONON       :     5h32m CPU        6h 0m WALL



     Representation #  1 mode #   1

     Self-consistent Calculation

      iter #   1 total cpu time : 21634.8 secs   av.it.:   5.6
      thresh= 1.000E-02 alpha_mix =  0.700 |ddv_scf|^2 =  1.847E-05

      iter #   2 total cpu time : 21670.4 secs   av.it.:   8.0
      thresh= 4.297E-04 alpha_mix =  0.700 |ddv_scf|^2 =  5.900E-07

      iter #   3 total cpu time : 21704.8 secs   av.it.:   7.7
      thresh= 7.681E-05 alpha_mix =  0.700 |ddv_scf|^2 =  1.828E-08

      iter #   4 total cpu time : 21741.2 secs   av.it.:   8.2
      thresh= 1.352E-05 alpha_mix =  0.700 |ddv_scf|^2 =  7.770E-10

      iter #   5 total cpu time : 21776.5 secs   av.it.:   8.1
      thresh= 2.787E-06 alpha_mix =  0.700 |ddv_scf|^2 =  4.725E-11

      iter #   6 total cpu time : 21812.9 secs   av.it.:   8.2
      thresh= 6.874E-07 alpha_mix =  0.700 |ddv_scf|^2 =  3.495E-12

      iter #   7 total cpu time : 21847.9 secs   av.it.:   8.1
      thresh= 1.869E-07 alpha_mix =  0.700 |ddv_scf|^2 =  7.422E-14

      iter #   8 total cpu time : 21882.6 secs   av.it.:   7.9
      thresh= 2.724E-08 alpha_mix =  0.700 |ddv_scf|^2 =  5.822E-16

      iter #   9 total cpu time : 21918.4 secs   av.it.:   8.2
      thresh= 2.413E-09 alpha_mix =  0.700 |ddv_scf|^2 =  3.767E-17

     End of self-consistent calculation

     Convergence has been achieved 


     Representation #  2 mode #   2

     Self-consistent Calculation

      iter #   1 total cpu time : 21950.2 secs   av.it.:   5.6
      thresh= 1.000E-02 alpha_mix =  0.700 |ddv_scf|^2 =  2.048E-05

      iter #   2 total cpu time : 21985.2 secs   av.it.:   7.8
      thresh= 4.525E-04 alpha_mix =  0.700 |ddv_scf|^2 =  3.811E-07

      iter #   3 total cpu time : 22019.8 secs   av.it.:   7.8
      thresh= 6.174E-05 alpha_mix =  0.700 |ddv_scf|^2 =  1.935E-08

      iter #   4 total cpu time : 22055.2 secs   av.it.:   8.0
      thresh= 1.391E-05 alpha_mix =  0.700 |ddv_scf|^2 =  1.917E-10

      iter #   5 total cpu time : 22087.8 secs   av.it.:   7.3
      thresh= 1.385E-06 alpha_mix =  0.700 |ddv_scf|^2 =  1.580E-13

      iter #   6 total cpu time : 22121.7 secs   av.it.:   7.7
      thresh= 3.975E-08 alpha_mix =  0.700 |ddv_scf|^2 =  4.716E-15

      iter #   7 total cpu time : 22155.6 secs   av.it.:   7.7
      thresh= 6.868E-09 alpha_mix =  0.700 |ddv_scf|^2 =  4.129E-17

     End of self-consistent calculation

     Convergence has been achieved 


     Representation #  3 mode #   3

     Self-consistent Calculation

      iter #   1 total cpu time : 22187.4 secs   av.it.:   5.6
      thresh= 1.000E-02 alpha_mix =  0.700 |ddv_scf|^2 =  4.001E-05

      iter #   2 total cpu time : 22221.9 secs   av.it.:   7.6
      thresh= 6.326E-04 alpha_mix =  0.700 |ddv_scf|^2 =  3.774E-06

      iter #   3 total cpu time : 22255.2 secs   av.it.:   7.4
      thresh= 1.943E-04 alpha_mix =  0.700 |ddv_scf|^2 =  3.840E-08

      iter #   4 total cpu time : 22291.7 secs   av.it.:   8.1
      thresh= 1.960E-05 alpha_mix =  0.700 |ddv_scf|^2 =  1.617E-10

      iter #   5 total cpu time : 22325.4 secs   av.it.:   7.3
      thresh= 1.271E-06 alpha_mix =  0.700 |ddv_scf|^2 =  1.892E-13

      iter #   6 total cpu time : 22360.1 secs   av.it.:   7.7
      thresh= 4.349E-08 alpha_mix =  0.700 |ddv_scf|^2 =  8.447E-15

      iter #   7 total cpu time : 22392.7 secs   av.it.:   7.3
      thresh= 9.191E-09 alpha_mix =  0.700 |ddv_scf|^2 =  1.393E-17

     End of self-consistent calculation

     Convergence has been achieved 

     Number of q in the star =   12
     List of q in the star:
          1  -0.333333333  -1.000000000   0.000000000
          2   0.000000000  -1.000000000  -0.333333333
          3   0.000000000  -1.000000000   0.333333333
          4   0.333333333  -1.000000000   0.000000000
          5  -1.000000000   0.000000000  -0.333333333
          6   1.000000000   0.000000000   0.333333333
          7   0.000000000   0.333333333   1.000000000
          8   0.000000000  -0.333333333  -1.000000000
          9  -1.000000000  -0.333333333   0.000000000
         10   1.000000000   0.333333333   0.000000000
         11  -0.333333333   0.000000000   1.000000000
         12   0.333333333   0.000000000   1.000000000

     Diagonalizing the dynamical matrix

     q = (   -0.333333333  -1.000000000   0.000000000 ) 

 **************************************************************************
     freq (    1) =       3.516380 [THz] =     117.293810 [cm-1]
     freq (    2) =       4.240421 [THz] =     141.445224 [cm-1]
     freq (    3) =       5.250965 [THz] =     175.153332 [cm-1]
 **************************************************************************

     Mode symmetry, C_2v (mm2)  point group:

     freq (  1 -  1) =        117.3  [cm-1]   --> A_1  D_1  S_1      
     freq (  2 -  2) =        141.4  [cm-1]   --> B_1  D_3  S_3      
     freq (  3 -  3) =        175.2  [cm-1]   --> B_2  D_4  S_4      

     init_run     :      3.06s CPU      3.21s WALL (      15 calls)
     electrons    :   4016.40s CPU   4253.92s WALL (      15 calls)

     Called by init_run:
     wfcinit      :      0.00s CPU      0.01s WALL (      15 calls)
     potinit      :      0.43s CPU      0.45s WALL (      15 calls)

     Called by electrons:
     c_bands      :   4015.23s CPU   4252.72s WALL (      15 calls)
     v_of_rho     :      0.16s CPU      0.17s WALL (      16 calls)
     newd         :      0.14s CPU      0.14s WALL (      16 calls)

     Called by c_bands:
     init_us_2    :     82.32s CPU     89.34s WALL ( 1264344 calls)
     cegterg      :   3207.47s CPU   3423.70s WALL (   90899 calls)

     Called by sum_band:

     Called by *egterg:
     h_psi        :  12179.20s CPU  13179.15s WALL (11559280 calls)
     s_psi        :    322.07s CPU    355.66s WALL (22560146 calls)
     g_psi        :      9.39s CPU     10.24s WALL ( 1379071 calls)
     cdiaghg      :    871.71s CPU    928.45s WALL ( 1452497 calls)

     Called by h_psi:
     h_psi:pot    :  12096.58s CPU  13086.54s WALL (11559280 calls)
     h_psi:calbec :    695.01s CPU    746.69s WALL (11559280 calls)
     vloc_psi     :  11097.56s CPU  12011.20s WALL (11559280 calls)
     add_vuspsi   :    174.98s CPU    192.41s WALL (11559280 calls)

     General routines
     calbec       :   1326.43s CPU   1431.77s WALL (24614823 calls)
     fft          :      5.33s CPU      6.12s WALL (    6481 calls)
     ffts         :     15.59s CPU     16.88s WALL (  112704 calls)
     fftw         :  12238.65s CPU  13296.14s WALL (******** calls)
     interpolate  :      1.00s CPU      1.31s WALL (     888 calls)
     davcio       :    119.01s CPU    200.02s WALL ( 5131377 calls)

     Parallel routines
     fft_scatter  :   5246.58s CPU   5691.41s WALL (******** calls)

     PHONON       :     5h44m CPU        6h13m WALL

     INITIALIZATION: 
     phq_setup    :      0.69s CPU      0.75s WALL (      16 calls)
     phq_init     :    225.97s CPU    239.23s WALL (      16 calls)

     phq_init     :    225.97s CPU    239.23s WALL (      16 calls)
     init_vloc    :      0.13s CPU      0.13s WALL (      16 calls)
     init_us_1    :      1.31s CPU      1.43s WALL (      16 calls)
     newd         :      0.14s CPU      0.14s WALL (      16 calls)
     dvanqq       :      0.52s CPU      0.53s WALL (      16 calls)
     drho         :    175.26s CPU    185.63s WALL (      16 calls)

     DYNAMICAL MATRIX:
     dynmat0      :     33.97s CPU     35.39s WALL (      16 calls)
     phqscf       :  15558.65s CPU  17017.42s WALL (      16 calls)
     dynmatrix    :      0.10s CPU      0.11s WALL (      16 calls)

     phqscf       :  15558.65s CPU  17017.42s WALL (      16 calls)
     solve_linter :  15505.15s CPU  16960.16s WALL (      40 calls)
     drhodv       :     53.29s CPU     56.63s WALL (      40 calls)

     dynmat0      :     33.97s CPU     35.39s WALL (      16 calls)
     dynmat_us    :     33.91s CPU     35.33s WALL (      16 calls)
     d2ionq       :      0.01s CPU      0.01s WALL (      16 calls)

     dynmat_us    :     33.91s CPU     35.33s WALL (      16 calls)
     addusdynmat  :      0.00s CPU      0.00s WALL (      16 calls)

     phqscf       :  15558.65s CPU  17017.42s WALL (      16 calls)
     solve_linter :  15505.15s CPU  16960.16s WALL (      40 calls)

     solve_linter :  15505.15s CPU  16960.16s WALL (      40 calls)
     dvqpsi_us    :    303.31s CPU    324.49s WALL (  110718 calls)
     ortho        :    207.87s CPU    222.68s WALL (  984982 calls)
     cgsolve      :  12288.09s CPU  13364.07s WALL (  984982 calls)
     incdrhoscf   :   1191.42s CPU   1354.18s WALL (  984982 calls)
     addusddens   :      4.87s CPU      5.00s WALL (     390 calls)
     vpsifft      :    977.34s CPU   1061.19s WALL (  874264 calls)
     dv_of_drho   :      3.32s CPU      3.76s WALL (     404 calls)
     mix_pot      :      0.63s CPU      2.33s WALL (     350 calls)
     ef_shift     :      0.04s CPU      0.14s WALL (       7 calls)
     localdos     :      0.20s CPU      0.21s WALL (       1 calls)
     psymdvscf    :     26.02s CPU     26.68s WALL (     350 calls)
     newdq        :      3.95s CPU      4.00s WALL (     350 calls)
     adddvscf     :     50.92s CPU     54.67s WALL (  874264 calls)
     drhodvus     :      0.03s CPU      0.04s WALL (      40 calls)

     dvqpsi_us    :    303.31s CPU    324.49s WALL (  110718 calls)
     dvqpsi_us_on :     51.78s CPU     54.52s WALL (  110718 calls)

     cgsolve      :  12288.09s CPU  13364.07s WALL (  984982 calls)
     ch_psi       :  11629.80s CPU  12639.29s WALL (10015884 calls)

     ch_psi       :  11629.80s CPU  12639.29s WALL (10015884 calls)
     h_psi        :  12179.20s CPU  13179.15s WALL (11559280 calls)
     last         :   1184.75s CPU   1293.41s WALL (10015884 calls)

     h_psi        :  12179.20s CPU  13179.15s WALL (11559280 calls)
     add_vuspsi   :    174.98s CPU    192.41s WALL (11559280 calls)

     incdrhoscf   :   1191.42s CPU   1354.18s WALL (  984982 calls)
     addusdbec    :    103.44s CPU    110.21s WALL ( 1095700 calls)

     drhodvus     :      0.03s CPU      0.04s WALL (      40 calls)

      General routines
     calbec       :   1326.43s CPU   1431.77s WALL (24614823 calls)
     fft          :      5.33s CPU      6.12s WALL (    6481 calls)
     ffts         :     15.59s CPU     16.88s WALL (  112704 calls)
     fftw         :  12238.65s CPU  13296.14s WALL (******** calls)
     davcio       :    119.01s CPU    200.02s WALL ( 5131377 calls)
     write_rec    :      1.39s CPU      3.17s WALL (     390 calls)


     PHONON       :     5h44m CPU        6h13m WALL


   This run was terminated on:   7:34:23  14Feb2018            

=------------------------------------------------------------------------------=
   JOB DONE.
=------------------------------------------------------------------------------=
