
     Program PHONON v.5.2.0 starts on 31May2016 at 22:35:55 

     This program is part of the open-source Quantum ESPRESSO suite
     for quantum simulation of materials; please cite
         "P. Giannozzi et al., J. Phys.:Condens. Matter 21 395502 (2009);
          URL http://www.quantum-espresso.org", 
     in publications or presentations arising from this work. More details at
     http://www.quantum-espresso.org/quote

     Parallel version (MPI), running on   288 processors
     K-points division:     npool     =     288

     Reading data from directory:
     ./tmp/li-bcc.save

   Info: using nr1, nr2, nr3 values from input

   Info: using nr1, nr2, nr3 values from input

     IMPORTANT: XC functional enforced from input :
     Exchange-correlation      =  SLA  PW   PBX  PBC ( 1  4  3  4 0 0)
     Any further DFT definition will be discarded
     Please, verify this is what you really want

 
     G-vector sticks info
     --------------------
     sticks:   dense  smooth     PW     G-vecs:    dense   smooth      PW
     Sum        1113     557    173                23455     8391    1481
 


     Dynamical matrices for (10,10,10)  uniform grid of q-points
     (  47q-points):
       N         xq(1)         xq(2)         xq(3) 
       1   0.000000000   0.000000000   0.000000000
       2   0.000000000  -0.100000000   0.100000000
       3   0.000000000  -0.200000000   0.200000000
       4   0.000000000  -0.300000000   0.300000000
       5   0.000000000  -0.400000000   0.400000000
       6   0.000000000   0.500000000  -0.500000000
       7  -0.100000000  -0.100000000   0.200000000
       8  -0.100000000  -0.200000000   0.300000000
       9  -0.100000000  -0.300000000   0.400000000
      10  -0.100000000   0.600000000  -0.500000000
      11  -0.200000000  -0.200000000   0.400000000
      12  -0.200000000   0.700000000  -0.500000000
      13  -0.200000000   0.600000000  -0.400000000
      14  -0.300000000   0.700000000  -0.400000000
      15   0.000000000   0.000000000   0.200000000
      16   0.000000000  -0.100000000   0.300000000
      17   0.000000000  -0.200000000   0.400000000
      18   0.000000000  -0.300000000   0.500000000
      19   0.000000000   0.600000000  -0.400000000
      20  -0.100000000  -0.100000000   0.400000000
      21  -0.100000000  -0.200000000   0.500000000
      22  -0.100000000   0.700000000  -0.400000000
      23  -0.200000000   0.200000000   0.200000000
      24  -0.200000000   0.800000000  -0.400000000
      25  -0.200000000   0.700000000  -0.300000000
      26  -0.300000000   0.300000000   0.200000000
      27   0.600000000  -0.600000000   0.200000000
      28   0.600000000  -0.700000000   0.300000000
      29   0.500000000  -0.500000000   0.200000000
      30   0.500000000  -0.600000000   0.300000000
      31   0.400000000  -0.600000000   0.400000000
      32   0.000000000   0.000000000   0.400000000
      33   0.000000000  -0.100000000   0.500000000
      34   0.000000000  -0.200000000   0.600000000
      35   0.000000000   0.700000000  -0.300000000
      36  -0.100000000  -0.100000000   0.600000000
      37  -0.100000000   0.800000000  -0.300000000
      38  -0.200000000   0.800000000  -0.200000000
      39   0.600000000  -0.600000000   0.400000000
      40   0.500000000  -0.500000000   0.400000000
      41   0.000000000   0.000000000   0.600000000
      42   0.000000000  -0.100000000   0.700000000
      43   0.000000000   0.800000000  -0.200000000
      44  -0.100000000   0.900000000  -0.200000000
      45   0.000000000   0.000000000   0.800000000
      46   0.000000000   0.900000000  -0.100000000
      47   0.000000000   0.000000000  -1.000000000

     Calculation of q =    0.0000000   0.0000000   0.0000000

                                                                                

     bravais-lattice index     =            3
     lattice parameter (alat)  =       6.4179  a.u.
     unit-cell volume          =     132.1771 (a.u.)^3
     number of atoms/cell      =            1
     number of atomic types    =            1
     kinetic-energy cut-off    =      60.0000  Ry
     charge density cut-off    =     480.0000  Ry
     convergence threshold     =      1.0E-16
     beta                      =       0.7000
     number of iterations used =            4
     Exchange-correlation      =  SLA  PW   PBX  PBC ( 1  4  3  4 0 0)


     celldm(1)=    6.41794  celldm(2)=    0.00000  celldm(3)=    0.00000
     celldm(4)=    0.00000  celldm(5)=    0.00000  celldm(6)=    0.00000

     crystal axes: (cart. coord. in units of alat)
               a(1) = (  0.5000  0.5000  0.5000 )  
               a(2) = ( -0.5000  0.5000  0.5000 )  
               a(3) = ( -0.5000 -0.5000  0.5000 )  

     reciprocal axes: (cart. coord. in units 2 pi/alat)
               b(1) = (  1.0000  0.0000  1.0000 )  
               b(2) = ( -1.0000  1.0000  0.0000 )  
               b(3) = (  0.0000 -1.0000  1.0000 )  


     Atoms inside the unit cell: 

     Cartesian axes

     site n.  atom      mass           positions (alat units)
        1     Li   6.9410   tau(    1) = (    0.00000    0.00000    0.00000  )

     Computing dynamical matrix for 
                    q = (   0.0000000   0.0000000   0.0000000 )
 
     49 Sym.Ops. (with q -> -q+G )


     G cutoff =  500.8093  (  23455 G-vectors)     FFT grid: ( 40, 40, 40)
     G cutoff =  250.4047  (   8391 G-vectors)  smooth grid: ( 27, 27, 27)

     number of k points=   616  Marzari-Vanderbilt smearing, width (Ry)=  0.0200

     PseudoPot. # 1 for Li read from file:
     ../Li.pbe-s-gbrv14.UPF
     MD5 check sum: 7ca33c4f951f001da2db5c8738379802
     Pseudo is Ultrasoft, Zval =  3.0
     Generated by new atomic code, or converted to UPF format
     Using radial grid of  751 points,  5 beta functions with: 
                l(1) =   0
                l(2) =   0
                l(3) =   0
                l(4) =   1
                l(5) =   1
     Q(r) pseudized with 10 coefficients,  rinner =    1.150   1.150   1.150


     Mode symmetry, O_h (m-3m)  point group:


     Atomic displacements:
     There are   1 irreducible representations

     Representation     1      3 modes -T_1u G_15  G_4-  To be done



     Alpha used in Ewald sum =   2.8000
     PHONON       :    13.88s CPU        19.42s WALL



     Representation #  1 modes #   1  2  3

     Self-consistent Calculation
 
     Pert. #  1: Fermi energy shift (Ry) =     4.6874E-24    -3.7616E-37
     Pert. #  2: Fermi energy shift (Ry) =     6.4106E-24     6.2693E-38
     Pert. #  3: Fermi energy shift (Ry) =    -4.4806E-25    -3.7616E-37

      iter #   1 total cpu time :    20.2 secs   av.it.:   5.3
      thresh= 1.000E-02 alpha_mix =  0.700 |ddv_scf|^2 =  1.136E-07
 
     Pert. #  1: Fermi energy shift (Ry) =     2.2403E-25     6.1224E-40
     Pert. #  2: Fermi energy shift (Ry) =     1.5510E-25     1.3469E-39
     Pert. #  3: Fermi energy shift (Ry) =     5.9454E-25    -2.0816E-39

      iter #   2 total cpu time :    24.6 secs   av.it.:   9.4
      thresh= 3.371E-05 alpha_mix =  0.700 |ddv_scf|^2 =  7.004E-09
 
     Pert. #  1: Fermi energy shift (Ry) =     4.1359E-25     0.0000E+00
     Pert. #  2: Fermi energy shift (Ry) =     1.2063E-25    -2.2959E-41
     Pert. #  3: Fermi energy shift (Ry) =    -3.7912E-25    -4.2091E-41

      iter #   3 total cpu time :    32.0 secs   av.it.:   9.6
      thresh= 8.369E-06 alpha_mix =  0.700 |ddv_scf|^2 =  4.385E-11
 
     Pert. #  1: Fermi energy shift (Ry) =     9.2196E-25    -4.3048E-42
     Pert. #  2: Fermi energy shift (Ry) =    -6.8932E-26     1.9132E-42
     Pert. #  3: Fermi energy shift (Ry) =    -3.8774E-25    -3.8265E-42

      iter #   4 total cpu time :    37.2 secs   av.it.:   9.4
      thresh= 6.622E-07 alpha_mix =  0.700 |ddv_scf|^2 =  1.140E-13
 
     Pert. #  1: Fermi energy shift (Ry) =    -8.2718E-25    -4.3048E-42
     Pert. #  2: Fermi energy shift (Ry) =    -6.0315E-25    -4.6635E-42
     Pert. #  3: Fermi energy shift (Ry) =     3.8774E-25    -3.5873E-43

      iter #   5 total cpu time :    38.0 secs   av.it.:   9.0
      thresh= 3.377E-08 alpha_mix =  0.700 |ddv_scf|^2 =  1.944E-15
 
     Pert. #  1: Fermi energy shift (Ry) =    -5.3422E-25     1.1958E-42
     Pert. #  2: Fermi energy shift (Ry) =     5.5145E-25     1.4349E-42
     Pert. #  3: Fermi energy shift (Ry) =     3.7912E-25     3.5873E-43

      iter #   6 total cpu time :    40.6 secs   av.it.:   8.6
      thresh= 4.409E-09 alpha_mix =  0.700 |ddv_scf|^2 =  6.373E-19

     End of self-consistent calculation

     Convergence has been achieved 
 
     Number of q in the star =    1
     List of q in the star:
          1   0.000000000   0.000000000   0.000000000

     Diagonalizing the dynamical matrix

     q = (    0.000000000   0.000000000   0.000000000 ) 

 **************************************************************************
     freq (    1) =       0.204341 [THz] =       6.816088 [cm-1]
     freq (    2) =       0.204341 [THz] =       6.816088 [cm-1]
     freq (    3) =       0.204341 [THz] =       6.816088 [cm-1]
 **************************************************************************

     Mode symmetry, O_h (m-3m)  point group:

     freq (  1 -  3) =          6.8  [cm-1]   --> T_1u G_15  G_4- I  

     Calculation of q =    0.0000000  -0.1000000   0.1000000
 
     G-vector sticks info
     --------------------
     sticks:   dense  smooth     PW     G-vecs:    dense   smooth      PW
     Sum        1113     557    173                23455     8391    1505
 


     bravais-lattice index     =            3
     lattice parameter (alat)  =       6.4179  a.u.
     unit-cell volume          =     132.1771 (a.u.)^3
     number of atoms/cell      =            1
     number of atomic types    =            1
     number of electrons       =         3.00
     number of Kohn-Sham states=            6
     kinetic-energy cutoff     =      60.0000  Ry
     charge density cutoff     =     480.0000  Ry
     Exchange-correlation      =  SLA  PW   PBX  PBC ( 1  4  3  4 0 0)

     celldm(1)=   6.417937  celldm(2)=   0.000000  celldm(3)=   0.000000
     celldm(4)=   0.000000  celldm(5)=   0.000000  celldm(6)=   0.000000

     crystal axes: (cart. coord. in units of alat)
               a(1) = (   0.500000   0.500000   0.500000 )  
               a(2) = (  -0.500000   0.500000   0.500000 )  
               a(3) = (  -0.500000  -0.500000   0.500000 )  

     reciprocal axes: (cart. coord. in units 2 pi/alat)
               b(1) = (  1.000000  0.000000  1.000000 )  
               b(2) = ( -1.000000  1.000000  0.000000 )  
               b(3) = (  0.000000 -1.000000  1.000000 )  


     PseudoPot. # 1 for Li read from file:
     ../Li.pbe-s-gbrv14.UPF
     MD5 check sum: 7ca33c4f951f001da2db5c8738379802
     Pseudo is Ultrasoft, Zval =  3.0
     Generated by new atomic code, or converted to UPF format
     Using radial grid of  751 points,  5 beta functions with: 
                l(1) =   0
                l(2) =   0
                l(3) =   0
                l(4) =   1
                l(5) =   1
     Q(r) pseudized with 10 coefficients,  rinner =    1.150   1.150   1.150


     atomic species   valence    mass     pseudopotential
        Li             3.00     6.94100     Li( 1.00)

     48 Sym. Ops., with inversion, found



   Cartesian axes

     site n.     atom                  positions (alat units)
         1           Li  tau(   1) = (   0.0000000   0.0000000   0.0000000  )

     number of k points= 11760  Marzari-Vanderbilt smearing, width (Ry)=  0.0200

     Number of k-points >= 100: set verbosity='high' to print them.

     Dense  grid:    23455 G-vectors     FFT dimensions: (  40,  40,  40)

     Smooth grid:     8391 G-vectors     FFT dimensions: (  27,  27,  27)

     Largest allocated arrays     est. size (Mb)     dimensions
        Kohn-Sham Wavefunctions         0.10 Mb     (    1055,    6)
        NL pseudopotentials             0.14 Mb     (    1055,    9)
        Each V/rho on FFT grid          0.98 Mb     (   64000)
        Each G-vector array             0.18 Mb     (   23455)
        G-vector shells                 0.00 Mb     (     231)
     Largest temporary arrays     est. size (Mb)     dimensions
        Auxiliary wavefunctions         0.39 Mb     (    1055,   24)
        Each subspace H/S matrix        0.01 Mb     (      24,   24)
        Each <psi_i|beta_j> matrix      0.00 Mb     (       9,    6)

     The potential is recalculated from file :
     ./tmp/_ph0/li-bcc.save/charge-density.dat

     Starting wfc are    5 atomic +    1 random wfc

     Band Structure Calculation
     Davidson diagonalization with overlap

     ethr =  3.33E-10,  avg # of iterations = 17.3

     total cpu time spent up to now is        8.6 secs

     End of band structure calculation

     Number of k-points >= 100: set verbosity='high' to print the bands.

     the Fermi energy is     1.0621 ev

                                                                                

     bravais-lattice index     =            3
     lattice parameter (alat)  =       6.4179  a.u.
     unit-cell volume          =     132.1771 (a.u.)^3
     number of atoms/cell      =            1
     number of atomic types    =            1
     kinetic-energy cut-off    =      60.0000  Ry
     charge density cut-off    =     480.0000  Ry
     convergence threshold     =      1.0E-16
     beta                      =       0.7000
     number of iterations used =            4
     Exchange-correlation      =  SLA  PW   PBX  PBC ( 1  4  3  4 0 0)


     celldm(1)=    6.41794  celldm(2)=    0.00000  celldm(3)=    0.00000
     celldm(4)=    0.00000  celldm(5)=    0.00000  celldm(6)=    0.00000

     crystal axes: (cart. coord. in units of alat)
               a(1) = (  0.5000  0.5000  0.5000 )  
               a(2) = ( -0.5000  0.5000  0.5000 )  
               a(3) = ( -0.5000 -0.5000  0.5000 )  

     reciprocal axes: (cart. coord. in units 2 pi/alat)
               b(1) = (  1.0000  0.0000  1.0000 )  
               b(2) = ( -1.0000  1.0000  0.0000 )  
               b(3) = (  0.0000 -1.0000  1.0000 )  


     Atoms inside the unit cell: 

     Cartesian axes

     site n.  atom      mass           positions (alat units)
        1     Li   6.9410   tau(    1) = (    0.00000    0.00000    0.00000  )

     Computing dynamical matrix for 
                    q = (   0.0000000  -0.1000000   0.1000000 )
 
      4 Sym.Ops. (no q -> -q+G )


     G cutoff =  500.8093  (  23455 G-vectors)     FFT grid: ( 40, 40, 40)
     G cutoff =  250.4047  (   8391 G-vectors)  smooth grid: ( 27, 27, 27)

     number of k points= 11760  Marzari-Vanderbilt smearing, width (Ry)=  0.0200

     PseudoPot. # 1 for Li read from file:
     ../Li.pbe-s-gbrv14.UPF
     MD5 check sum: 7ca33c4f951f001da2db5c8738379802
     Pseudo is Ultrasoft, Zval =  3.0
     Generated by new atomic code, or converted to UPF format
     Using radial grid of  751 points,  5 beta functions with: 
                l(1) =   0
                l(2) =   0
                l(3) =   0
                l(4) =   1
                l(5) =   1
     Q(r) pseudized with 10 coefficients,  rinner =    1.150   1.150   1.150


     Mode symmetry, C_2v (mm2)  point group:


     Atomic displacements:
     There are   3 irreducible representations

     Representation     1      1 modes -A_1  D_1  S_1  To be done

     Representation     2      1 modes -B_1  D_3  S_3  To be done

     Representation     3      1 modes -B_2  D_4  S_4  To be done



     Alpha used in Ewald sum =   2.8000
     PHONON       :  0m51.97s CPU     1m 6.12s WALL



     Representation #  1 mode #   1

     Self-consistent Calculation

      iter #   1 total cpu time :    66.7 secs   av.it.:   6.3
      thresh= 1.000E-02 alpha_mix =  0.700 |ddv_scf|^2 =  2.653E-01

      iter #   2 total cpu time :    70.3 secs   av.it.:   8.2
      thresh= 1.000E-02 alpha_mix =  0.700 |ddv_scf|^2 =  5.085E+02

      iter #   3 total cpu time :    74.2 secs   av.it.:   8.1
      thresh= 1.000E-02 alpha_mix =  0.700 |ddv_scf|^2 =  9.505E-03

      iter #   4 total cpu time :    84.0 secs   av.it.:   3.5
      thresh= 9.749E-03 alpha_mix =  0.700 |ddv_scf|^2 =  1.420E-07

      iter #   5 total cpu time :    86.2 secs   av.it.:   7.9
      thresh= 3.768E-05 alpha_mix =  0.700 |ddv_scf|^2 =  1.264E-08

      iter #   6 total cpu time :    88.9 secs   av.it.:   7.5
      thresh= 1.124E-05 alpha_mix =  0.700 |ddv_scf|^2 =  1.029E-06

      iter #   7 total cpu time :    90.8 secs   av.it.:   3.4
      thresh= 1.014E-04 alpha_mix =  0.700 |ddv_scf|^2 =  9.098E-10

      iter #   8 total cpu time :    92.6 secs   av.it.:   6.4
      thresh= 3.016E-06 alpha_mix =  0.700 |ddv_scf|^2 =  4.788E-12

      iter #   9 total cpu time :    93.3 secs   av.it.:   7.4
      thresh= 2.188E-07 alpha_mix =  0.700 |ddv_scf|^2 =  1.014E-12

      iter #  10 total cpu time :    94.0 secs   av.it.:   6.9
      thresh= 1.007E-07 alpha_mix =  0.700 |ddv_scf|^2 =  3.119E-15

      iter #  11 total cpu time :    95.9 secs   av.it.:   7.6
      thresh= 5.585E-09 alpha_mix =  0.700 |ddv_scf|^2 =  7.119E-17

     End of self-consistent calculation

     Convergence has been achieved 


     Representation #  2 mode #   2

     Self-consistent Calculation

      iter #   1 total cpu time :   116.3 secs   av.it.:   5.2
      thresh= 1.000E-02 alpha_mix =  0.700 |ddv_scf|^2 =  1.026E-06

      iter #   2 total cpu time :   117.4 secs   av.it.:   8.5
      thresh= 1.013E-04 alpha_mix =  0.700 |ddv_scf|^2 =  6.311E-08

      iter #   3 total cpu time :   118.7 secs   av.it.:   8.9
      thresh= 2.512E-05 alpha_mix =  0.700 |ddv_scf|^2 =  4.118E-10

      iter #   4 total cpu time :   119.5 secs   av.it.:   8.4
      thresh= 2.029E-06 alpha_mix =  0.700 |ddv_scf|^2 =  9.888E-13

      iter #   5 total cpu time :   120.1 secs   av.it.:   8.1
      thresh= 9.944E-08 alpha_mix =  0.700 |ddv_scf|^2 =  1.644E-14

      iter #   6 total cpu time :   120.7 secs   av.it.:   7.5
      thresh= 1.282E-08 alpha_mix =  0.700 |ddv_scf|^2 =  6.164E-18

     End of self-consistent calculation

     Convergence has been achieved 


     Representation #  3 mode #   3

     Self-consistent Calculation

      iter #   1 total cpu time :   123.9 secs   av.it.:   5.2
      thresh= 1.000E-02 alpha_mix =  0.700 |ddv_scf|^2 =  1.038E-06

      iter #   2 total cpu time :   125.2 secs   av.it.:   8.5
      thresh= 1.019E-04 alpha_mix =  0.700 |ddv_scf|^2 =  6.367E-08

      iter #   3 total cpu time :   127.0 secs   av.it.:   8.9
      thresh= 2.523E-05 alpha_mix =  0.700 |ddv_scf|^2 =  4.694E-10

      iter #   4 total cpu time :   132.2 secs   av.it.:   8.3
      thresh= 2.167E-06 alpha_mix =  0.700 |ddv_scf|^2 =  9.758E-13

      iter #   5 total cpu time :   132.8 secs   av.it.:   8.2
      thresh= 9.878E-08 alpha_mix =  0.700 |ddv_scf|^2 =  1.619E-14

      iter #   6 total cpu time :   135.0 secs   av.it.:   7.5
      thresh= 1.272E-08 alpha_mix =  0.700 |ddv_scf|^2 =  5.550E-18

     End of self-consistent calculation

     Convergence has been achieved 
 
     Number of q in the star =   12
     List of q in the star:
          1   0.000000000  -0.100000000   0.100000000
          2  -0.100000000   0.000000000   0.100000000
          3   0.100000000   0.000000000   0.100000000
          4   0.000000000   0.100000000   0.100000000
          5   0.100000000   0.100000000   0.000000000
          6  -0.100000000   0.100000000   0.000000000
          7   0.100000000  -0.100000000   0.000000000
          8  -0.100000000  -0.100000000   0.000000000
          9  -0.100000000   0.000000000  -0.100000000
         10   0.000000000   0.100000000  -0.100000000
         11   0.000000000  -0.100000000  -0.100000000
         12   0.100000000   0.000000000  -0.100000000

     Diagonalizing the dynamical matrix

     q = (    0.000000000  -0.100000000   0.100000000 ) 

 **************************************************************************
     freq (    1) =       0.491656 [THz] =      16.399869 [cm-1]
     freq (    2) =       1.816195 [THz] =      60.581745 [cm-1]
     freq (    3) =       2.821418 [THz] =      94.112377 [cm-1]
 **************************************************************************

     Mode symmetry, C_2v (mm2)  point group:

     freq (  1 -  1) =         16.4  [cm-1]   --> B_1  D_3  S_3      
     freq (  2 -  2) =         60.6  [cm-1]   --> B_2  D_4  S_4      
     freq (  3 -  3) =         94.1  [cm-1]   --> A_1  D_1  S_1      

     Calculation of q =    0.0000000  -0.2000000   0.2000000
 
     G-vector sticks info
     --------------------
     sticks:   dense  smooth     PW     G-vecs:    dense   smooth      PW
     Sum        1113     557    181                23455     8391    1553
 


     bravais-lattice index     =            3
     lattice parameter (alat)  =       6.4179  a.u.
     unit-cell volume          =     132.1771 (a.u.)^3
     number of atoms/cell      =            1
     number of atomic types    =            1
     number of electrons       =         3.00
     number of Kohn-Sham states=            6
     kinetic-energy cutoff     =      60.0000  Ry
     charge density cutoff     =     480.0000  Ry
     Exchange-correlation      =  SLA  PW   PBX  PBC ( 1  4  3  4 0 0)

     celldm(1)=   6.417937  celldm(2)=   0.000000  celldm(3)=   0.000000
     celldm(4)=   0.000000  celldm(5)=   0.000000  celldm(6)=   0.000000

     crystal axes: (cart. coord. in units of alat)
               a(1) = (   0.500000   0.500000   0.500000 )  
               a(2) = (  -0.500000   0.500000   0.500000 )  
               a(3) = (  -0.500000  -0.500000   0.500000 )  

     reciprocal axes: (cart. coord. in units 2 pi/alat)
               b(1) = (  1.000000  0.000000  1.000000 )  
               b(2) = ( -1.000000  1.000000  0.000000 )  
               b(3) = (  0.000000 -1.000000  1.000000 )  


     PseudoPot. # 1 for Li read from file:
     ../Li.pbe-s-gbrv14.UPF
     MD5 check sum: 7ca33c4f951f001da2db5c8738379802
     Pseudo is Ultrasoft, Zval =  3.0
     Generated by new atomic code, or converted to UPF format
     Using radial grid of  751 points,  5 beta functions with: 
                l(1) =   0
                l(2) =   0
                l(3) =   0
                l(4) =   1
                l(5) =   1
     Q(r) pseudized with 10 coefficients,  rinner =    1.150   1.150   1.150


     atomic species   valence    mass     pseudopotential
        Li             3.00     6.94100     Li( 1.00)

     48 Sym. Ops., with inversion, found



   Cartesian axes

     site n.     atom                  positions (alat units)
         1           Li  tau(   1) = (   0.0000000   0.0000000   0.0000000  )

     number of k points= 11760  Marzari-Vanderbilt smearing, width (Ry)=  0.0200

     Number of k-points >= 100: set verbosity='high' to print them.

     Dense  grid:    23455 G-vectors     FFT dimensions: (  40,  40,  40)

     Smooth grid:     8391 G-vectors     FFT dimensions: (  27,  27,  27)

     Largest allocated arrays     est. size (Mb)     dimensions
        Kohn-Sham Wavefunctions         0.10 Mb     (    1055,    6)
        NL pseudopotentials             0.14 Mb     (    1055,    9)
        Each V/rho on FFT grid          0.98 Mb     (   64000)
        Each G-vector array             0.18 Mb     (   23455)
        G-vector shells                 0.00 Mb     (     231)
     Largest temporary arrays     est. size (Mb)     dimensions
        Auxiliary wavefunctions         0.39 Mb     (    1055,   24)
        Each subspace H/S matrix        0.01 Mb     (      24,   24)
        Each <psi_i|beta_j> matrix      0.00 Mb     (       9,    6)

     The potential is recalculated from file :
     ./tmp/_ph0/li-bcc.save/charge-density.dat

     Starting wfc are    5 atomic +    1 random wfc

     Band Structure Calculation
     Davidson diagonalization with overlap

     ethr =  3.33E-10,  avg # of iterations = 17.3

     total cpu time spent up to now is       29.4 secs

     End of band structure calculation

     Number of k-points >= 100: set verbosity='high' to print the bands.

     the Fermi energy is     1.0621 ev

                                                                                

     bravais-lattice index     =            3
     lattice parameter (alat)  =       6.4179  a.u.
     unit-cell volume          =     132.1771 (a.u.)^3
     number of atoms/cell      =            1
     number of atomic types    =            1
     kinetic-energy cut-off    =      60.0000  Ry
     charge density cut-off    =     480.0000  Ry
     convergence threshold     =      1.0E-16
     beta                      =       0.7000
     number of iterations used =            4
     Exchange-correlation      =  SLA  PW   PBX  PBC ( 1  4  3  4 0 0)


     celldm(1)=    6.41794  celldm(2)=    0.00000  celldm(3)=    0.00000
     celldm(4)=    0.00000  celldm(5)=    0.00000  celldm(6)=    0.00000

     crystal axes: (cart. coord. in units of alat)
               a(1) = (  0.5000  0.5000  0.5000 )  
               a(2) = ( -0.5000  0.5000  0.5000 )  
               a(3) = ( -0.5000 -0.5000  0.5000 )  

     reciprocal axes: (cart. coord. in units 2 pi/alat)
               b(1) = (  1.0000  0.0000  1.0000 )  
               b(2) = ( -1.0000  1.0000  0.0000 )  
               b(3) = (  0.0000 -1.0000  1.0000 )  


     Atoms inside the unit cell: 

     Cartesian axes

     site n.  atom      mass           positions (alat units)
        1     Li   6.9410   tau(    1) = (    0.00000    0.00000    0.00000  )

     Computing dynamical matrix for 
                    q = (   0.0000000  -0.2000000   0.2000000 )
 
      4 Sym.Ops. (no q -> -q+G )


     G cutoff =  500.8093  (  23455 G-vectors)     FFT grid: ( 40, 40, 40)
     G cutoff =  250.4047  (   8391 G-vectors)  smooth grid: ( 27, 27, 27)

     number of k points= 11760  Marzari-Vanderbilt smearing, width (Ry)=  0.0200

     PseudoPot. # 1 for Li read from file:
     ../Li.pbe-s-gbrv14.UPF
     MD5 check sum: 7ca33c4f951f001da2db5c8738379802
     Pseudo is Ultrasoft, Zval =  3.0
     Generated by new atomic code, or converted to UPF format
     Using radial grid of  751 points,  5 beta functions with: 
                l(1) =   0
                l(2) =   0
                l(3) =   0
                l(4) =   1
                l(5) =   1
     Q(r) pseudized with 10 coefficients,  rinner =    1.150   1.150   1.150


     Mode symmetry, C_2v (mm2)  point group:


     Atomic displacements:
     There are   3 irreducible representations

     Representation     1      1 modes -A_1  D_1  S_1  To be done

     Representation     2      1 modes -B_1  D_3  S_3  To be done

     Representation     3      1 modes -B_2  D_4  S_4  To be done



     Alpha used in Ewald sum =   2.8000
     PHONON       :  2m18.40s CPU     2m52.84s WALL



     Representation #  1 mode #   1

     Self-consistent Calculation

      iter #   1 total cpu time :   173.4 secs   av.it.:   6.3
      thresh= 1.000E-02 alpha_mix =  0.700 |ddv_scf|^2 =  3.583E-03

      iter #   2 total cpu time :   184.3 secs   av.it.:   7.4
      thresh= 5.986E-03 alpha_mix =  0.700 |ddv_scf|^2 =  3.415E-01

      iter #   3 total cpu time :   186.5 secs   av.it.:   6.8
      thresh= 1.000E-02 alpha_mix =  0.700 |ddv_scf|^2 =  5.636E-08

      iter #   4 total cpu time :   196.2 secs   av.it.:   9.1
      thresh= 2.374E-05 alpha_mix =  0.700 |ddv_scf|^2 =  1.049E-08

      iter #   5 total cpu time :   197.1 secs   av.it.:   8.6
      thresh= 1.024E-05 alpha_mix =  0.700 |ddv_scf|^2 =  2.155E-10

      iter #   6 total cpu time :   197.7 secs   av.it.:   8.0
      thresh= 1.468E-06 alpha_mix =  0.700 |ddv_scf|^2 =  1.954E-13

      iter #   7 total cpu time :   198.3 secs   av.it.:   9.5
      thresh= 4.421E-08 alpha_mix =  0.700 |ddv_scf|^2 =  3.569E-13

      iter #   8 total cpu time :   199.1 secs   av.it.:   7.1
      thresh= 5.974E-08 alpha_mix =  0.700 |ddv_scf|^2 =  1.851E-12

      iter #   9 total cpu time :   199.7 secs   av.it.:   6.6
      thresh= 1.361E-07 alpha_mix =  0.700 |ddv_scf|^2 =  4.791E-14

      iter #  10 total cpu time :   200.3 secs   av.it.:   6.7
      thresh= 2.189E-08 alpha_mix =  0.700 |ddv_scf|^2 =  1.457E-17

     End of self-consistent calculation

     Convergence has been achieved 


     Representation #  2 mode #   2

     Self-consistent Calculation

      iter #   1 total cpu time :   201.2 secs   av.it.:   5.3
      thresh= 1.000E-02 alpha_mix =  0.700 |ddv_scf|^2 =  1.036E-06

      iter #   2 total cpu time :   201.8 secs   av.it.:   8.5
      thresh= 1.018E-04 alpha_mix =  0.700 |ddv_scf|^2 =  6.323E-08

      iter #   3 total cpu time :   203.7 secs   av.it.:   9.0
      thresh= 2.514E-05 alpha_mix =  0.700 |ddv_scf|^2 =  4.656E-10

      iter #   4 total cpu time :   205.3 secs   av.it.:   8.3
      thresh= 2.158E-06 alpha_mix =  0.700 |ddv_scf|^2 =  9.114E-13

      iter #   5 total cpu time :   206.4 secs   av.it.:   8.3
      thresh= 9.547E-08 alpha_mix =  0.700 |ddv_scf|^2 =  1.551E-14

      iter #   6 total cpu time :   216.9 secs   av.it.:   7.0
      thresh= 1.245E-08 alpha_mix =  0.700 |ddv_scf|^2 =  7.229E-18

     End of self-consistent calculation

     Convergence has been achieved 


     Representation #  3 mode #   3

     Self-consistent Calculation

      iter #   1 total cpu time :   223.1 secs   av.it.:   5.4
      thresh= 1.000E-02 alpha_mix =  0.700 |ddv_scf|^2 =  1.080E-06

      iter #   2 total cpu time :   225.7 secs   av.it.:   8.5
      thresh= 1.039E-04 alpha_mix =  0.700 |ddv_scf|^2 =  6.545E-08

      iter #   3 total cpu time :   227.9 secs   av.it.:   8.9
      thresh= 2.558E-05 alpha_mix =  0.700 |ddv_scf|^2 =  6.938E-10

      iter #   4 total cpu time :   236.1 secs   av.it.:   8.3
      thresh= 2.634E-06 alpha_mix =  0.700 |ddv_scf|^2 =  1.023E-12

      iter #   5 total cpu time :   240.5 secs   av.it.:   8.3
      thresh= 1.011E-07 alpha_mix =  0.700 |ddv_scf|^2 =  1.785E-14

      iter #   6 total cpu time :   242.7 secs   av.it.:   7.1
      thresh= 1.336E-08 alpha_mix =  0.700 |ddv_scf|^2 =  5.259E-18

     End of self-consistent calculation

     Convergence has been achieved 
 
     Number of q in the star =   12
     List of q in the star:
          1   0.000000000  -0.200000000   0.200000000
          2  -0.200000000   0.000000000   0.200000000
          3   0.200000000   0.000000000   0.200000000
          4   0.000000000   0.200000000   0.200000000
          5   0.200000000   0.200000000   0.000000000
          6  -0.200000000   0.200000000   0.000000000
          7   0.200000000  -0.200000000   0.000000000
          8  -0.200000000  -0.200000000   0.000000000
          9  -0.200000000   0.000000000  -0.200000000
         10   0.000000000   0.200000000  -0.200000000
         11   0.000000000  -0.200000000  -0.200000000
         12   0.200000000   0.000000000  -0.200000000

     Diagonalizing the dynamical matrix

     q = (    0.000000000  -0.200000000   0.200000000 ) 

 **************************************************************************
     freq (    1) =       0.911885 [THz] =      30.417223 [cm-1]
     freq (    2) =       3.424547 [THz] =     114.230590 [cm-1]
     freq (    3) =       5.797251 [THz] =     193.375469 [cm-1]
 **************************************************************************

     Mode symmetry, C_2v (mm2)  point group:

     freq (  1 -  1) =         30.4  [cm-1]   --> B_1  D_3  S_3      
     freq (  2 -  2) =        114.2  [cm-1]   --> B_2  D_4  S_4      
     freq (  3 -  3) =        193.4  [cm-1]   --> A_1  D_1  S_1      

     Calculation of q =    0.0000000  -0.3000000   0.3000000
 
     G-vector sticks info
     --------------------
     sticks:   dense  smooth     PW     G-vecs:    dense   smooth      PW
     Sum        1113     557    197                23455     8391    1721
 


     bravais-lattice index     =            3
     lattice parameter (alat)  =       6.4179  a.u.
     unit-cell volume          =     132.1771 (a.u.)^3
     number of atoms/cell      =            1
     number of atomic types    =            1
     number of electrons       =         3.00
     number of Kohn-Sham states=            6
     kinetic-energy cutoff     =      60.0000  Ry
     charge density cutoff     =     480.0000  Ry
     Exchange-correlation      =  SLA  PW   PBX  PBC ( 1  4  3  4 0 0)

     celldm(1)=   6.417937  celldm(2)=   0.000000  celldm(3)=   0.000000
     celldm(4)=   0.000000  celldm(5)=   0.000000  celldm(6)=   0.000000

     crystal axes: (cart. coord. in units of alat)
               a(1) = (   0.500000   0.500000   0.500000 )  
               a(2) = (  -0.500000   0.500000   0.500000 )  
               a(3) = (  -0.500000  -0.500000   0.500000 )  

     reciprocal axes: (cart. coord. in units 2 pi/alat)
               b(1) = (  1.000000  0.000000  1.000000 )  
               b(2) = ( -1.000000  1.000000  0.000000 )  
               b(3) = (  0.000000 -1.000000  1.000000 )  


     PseudoPot. # 1 for Li read from file:
     ../Li.pbe-s-gbrv14.UPF
     MD5 check sum: 7ca33c4f951f001da2db5c8738379802
     Pseudo is Ultrasoft, Zval =  3.0
     Generated by new atomic code, or converted to UPF format
     Using radial grid of  751 points,  5 beta functions with: 
                l(1) =   0
                l(2) =   0
                l(3) =   0
                l(4) =   1
                l(5) =   1
     Q(r) pseudized with 10 coefficients,  rinner =    1.150   1.150   1.150


     atomic species   valence    mass     pseudopotential
        Li             3.00     6.94100     Li( 1.00)

     48 Sym. Ops., with inversion, found



   Cartesian axes

     site n.     atom                  positions (alat units)
         1           Li  tau(   1) = (   0.0000000   0.0000000   0.0000000  )

     number of k points= 11760  Marzari-Vanderbilt smearing, width (Ry)=  0.0200

     Number of k-points >= 100: set verbosity='high' to print them.

     Dense  grid:    23455 G-vectors     FFT dimensions: (  40,  40,  40)

     Smooth grid:     8391 G-vectors     FFT dimensions: (  27,  27,  27)

     Largest allocated arrays     est. size (Mb)     dimensions
        Kohn-Sham Wavefunctions         0.10 Mb     (    1055,    6)
        NL pseudopotentials             0.14 Mb     (    1055,    9)
        Each V/rho on FFT grid          0.98 Mb     (   64000)
        Each G-vector array             0.18 Mb     (   23455)
        G-vector shells                 0.00 Mb     (     231)
     Largest temporary arrays     est. size (Mb)     dimensions
        Auxiliary wavefunctions         0.39 Mb     (    1055,   24)
        Each subspace H/S matrix        0.01 Mb     (      24,   24)
        Each <psi_i|beta_j> matrix      0.00 Mb     (       9,    6)

     The potential is recalculated from file :
     ./tmp/_ph0/li-bcc.save/charge-density.dat

     Starting wfc are    5 atomic +    1 random wfc

     Band Structure Calculation
     Davidson diagonalization with overlap

     ethr =  3.33E-10,  avg # of iterations = 17.3

     total cpu time spent up to now is       38.7 secs

     End of band structure calculation

     Number of k-points >= 100: set verbosity='high' to print the bands.

     the Fermi energy is     1.0621 ev

                                                                                

     bravais-lattice index     =            3
     lattice parameter (alat)  =       6.4179  a.u.
     unit-cell volume          =     132.1771 (a.u.)^3
     number of atoms/cell      =            1
     number of atomic types    =            1
     kinetic-energy cut-off    =      60.0000  Ry
     charge density cut-off    =     480.0000  Ry
     convergence threshold     =      1.0E-16
     beta                      =       0.7000
     number of iterations used =            4
     Exchange-correlation      =  SLA  PW   PBX  PBC ( 1  4  3  4 0 0)


     celldm(1)=    6.41794  celldm(2)=    0.00000  celldm(3)=    0.00000
     celldm(4)=    0.00000  celldm(5)=    0.00000  celldm(6)=    0.00000

     crystal axes: (cart. coord. in units of alat)
               a(1) = (  0.5000  0.5000  0.5000 )  
               a(2) = ( -0.5000  0.5000  0.5000 )  
               a(3) = ( -0.5000 -0.5000  0.5000 )  

     reciprocal axes: (cart. coord. in units 2 pi/alat)
               b(1) = (  1.0000  0.0000  1.0000 )  
               b(2) = ( -1.0000  1.0000  0.0000 )  
               b(3) = (  0.0000 -1.0000  1.0000 )  


     Atoms inside the unit cell: 

     Cartesian axes

     site n.  atom      mass           positions (alat units)
        1     Li   6.9410   tau(    1) = (    0.00000    0.00000    0.00000  )

     Computing dynamical matrix for 
                    q = (   0.0000000  -0.3000000   0.3000000 )
 
      4 Sym.Ops. (no q -> -q+G )


     G cutoff =  500.8093  (  23455 G-vectors)     FFT grid: ( 40, 40, 40)
     G cutoff =  250.4047  (   8391 G-vectors)  smooth grid: ( 27, 27, 27)

     number of k points= 11760  Marzari-Vanderbilt smearing, width (Ry)=  0.0200

     PseudoPot. # 1 for Li read from file:
     ../Li.pbe-s-gbrv14.UPF
     MD5 check sum: 7ca33c4f951f001da2db5c8738379802
     Pseudo is Ultrasoft, Zval =  3.0
     Generated by new atomic code, or converted to UPF format
     Using radial grid of  751 points,  5 beta functions with: 
                l(1) =   0
                l(2) =   0
                l(3) =   0
                l(4) =   1
                l(5) =   1
     Q(r) pseudized with 10 coefficients,  rinner =    1.150   1.150   1.150


     Mode symmetry, C_2v (mm2)  point group:


     Atomic displacements:
     There are   3 irreducible representations

     Representation     1      1 modes -A_1  D_1  S_1  To be done

     Representation     2      1 modes -B_1  D_3  S_3  To be done

     Representation     3      1 modes -B_2  D_4  S_4  To be done



     Alpha used in Ewald sum =   2.8000
     PHONON       :  3m27.29s CPU     4m18.65s WALL



     Representation #  1 mode #   1

     Self-consistent Calculation

      iter #   1 total cpu time :   259.2 secs   av.it.:   6.3
      thresh= 1.000E-02 alpha_mix =  0.700 |ddv_scf|^2 =  2.554E-04

      iter #   2 total cpu time :   262.1 secs   av.it.:   8.0
      thresh= 1.598E-03 alpha_mix =  0.700 |ddv_scf|^2 =  3.273E-03

      iter #   3 total cpu time :   270.3 secs   av.it.:   6.4
      thresh= 5.721E-03 alpha_mix =  0.700 |ddv_scf|^2 =  7.872E-08

      iter #   4 total cpu time :   276.6 secs   av.it.:   8.8
      thresh= 2.806E-05 alpha_mix =  0.700 |ddv_scf|^2 =  2.664E-09

      iter #   5 total cpu time :   280.0 secs   av.it.:   8.8
      thresh= 5.161E-06 alpha_mix =  0.700 |ddv_scf|^2 =  1.521E-11

      iter #   6 total cpu time :   281.9 secs   av.it.:   8.9
      thresh= 3.900E-07 alpha_mix =  0.700 |ddv_scf|^2 =  3.120E-13

      iter #   7 total cpu time :   284.6 secs   av.it.:   9.4
      thresh= 5.586E-08 alpha_mix =  0.700 |ddv_scf|^2 =  7.562E-16

      iter #   8 total cpu time :   286.3 secs   av.it.:   9.5
      thresh= 2.750E-09 alpha_mix =  0.700 |ddv_scf|^2 =  2.310E-17

     End of self-consistent calculation

     Convergence has been achieved 


     Representation #  2 mode #   2

     Self-consistent Calculation

      iter #   1 total cpu time :   288.6 secs   av.it.:   5.4
      thresh= 1.000E-02 alpha_mix =  0.700 |ddv_scf|^2 =  1.050E-06

      iter #   2 total cpu time :   289.8 secs   av.it.:   8.5
      thresh= 1.025E-04 alpha_mix =  0.700 |ddv_scf|^2 =  6.348E-08

      iter #   3 total cpu time :   290.4 secs   av.it.:   9.0
      thresh= 2.520E-05 alpha_mix =  0.700 |ddv_scf|^2 =  5.561E-10

      iter #   4 total cpu time :   291.0 secs   av.it.:   8.3
      thresh= 2.358E-06 alpha_mix =  0.700 |ddv_scf|^2 =  8.639E-13

      iter #   5 total cpu time :   292.3 secs   av.it.:   8.4
      thresh= 9.295E-08 alpha_mix =  0.700 |ddv_scf|^2 =  1.662E-14

      iter #   6 total cpu time :   294.2 secs   av.it.:   7.4
      thresh= 1.289E-08 alpha_mix =  0.700 |ddv_scf|^2 =  8.467E-18

     End of self-consistent calculation

     Convergence has been achieved 


     Representation #  3 mode #   3

     Self-consistent Calculation

      iter #   1 total cpu time :   303.9 secs   av.it.:   5.5
      thresh= 1.000E-02 alpha_mix =  0.700 |ddv_scf|^2 =  1.134E-06

      iter #   2 total cpu time :   304.5 secs   av.it.:   8.6
      thresh= 1.065E-04 alpha_mix =  0.700 |ddv_scf|^2 =  6.786E-08

      iter #   3 total cpu time :   305.1 secs   av.it.:   8.9
      thresh= 2.605E-05 alpha_mix =  0.700 |ddv_scf|^2 =  1.030E-09

      iter #   4 total cpu time :   307.5 secs   av.it.:   8.2
      thresh= 3.209E-06 alpha_mix =  0.700 |ddv_scf|^2 =  1.165E-12

      iter #   5 total cpu time :   314.2 secs   av.it.:   8.5
      thresh= 1.079E-07 alpha_mix =  0.700 |ddv_scf|^2 =  2.093E-14

      iter #   6 total cpu time :   315.6 secs   av.it.:   7.5
      thresh= 1.447E-08 alpha_mix =  0.700 |ddv_scf|^2 =  4.797E-18

     End of self-consistent calculation

     Convergence has been achieved 
 
     Number of q in the star =   12
     List of q in the star:
          1   0.000000000  -0.300000000   0.300000000
          2  -0.300000000   0.000000000   0.300000000
          3   0.300000000   0.000000000   0.300000000
          4   0.000000000   0.300000000   0.300000000
          5   0.300000000   0.300000000   0.000000000
          6  -0.300000000   0.300000000   0.000000000
          7   0.300000000  -0.300000000   0.000000000
          8  -0.300000000  -0.300000000   0.000000000
          9  -0.300000000   0.000000000  -0.300000000
         10   0.000000000   0.300000000  -0.300000000
         11   0.000000000  -0.300000000  -0.300000000
         12   0.300000000   0.000000000  -0.300000000

     Diagonalizing the dynamical matrix

     q = (    0.000000000  -0.300000000   0.300000000 ) 

 **************************************************************************
     freq (    1) =       1.259433 [THz] =      42.010159 [cm-1]
     freq (    2) =       4.678782 [THz] =     156.067369 [cm-1]
     freq (    3) =       8.200548 [THz] =     273.540825 [cm-1]
 **************************************************************************

     Mode symmetry, C_2v (mm2)  point group:

     freq (  1 -  1) =         42.0  [cm-1]   --> B_1  D_3  S_3      
     freq (  2 -  2) =        156.1  [cm-1]   --> B_2  D_4  S_4      
     freq (  3 -  3) =        273.5  [cm-1]   --> A_1  D_1  S_1      

     Calculation of q =    0.0000000  -0.4000000   0.4000000
 
     G-vector sticks info
     --------------------
     sticks:   dense  smooth     PW     G-vecs:    dense   smooth      PW
     Sum        1113     557    201                23455     8391    1745
 


     bravais-lattice index     =            3
     lattice parameter (alat)  =       6.4179  a.u.
     unit-cell volume          =     132.1771 (a.u.)^3
     number of atoms/cell      =            1
     number of atomic types    =            1
     number of electrons       =         3.00
     number of Kohn-Sham states=            6
     kinetic-energy cutoff     =      60.0000  Ry
     charge density cutoff     =     480.0000  Ry
     Exchange-correlation      =  SLA  PW   PBX  PBC ( 1  4  3  4 0 0)

     celldm(1)=   6.417937  celldm(2)=   0.000000  celldm(3)=   0.000000
     celldm(4)=   0.000000  celldm(5)=   0.000000  celldm(6)=   0.000000

     crystal axes: (cart. coord. in units of alat)
               a(1) = (   0.500000   0.500000   0.500000 )  
               a(2) = (  -0.500000   0.500000   0.500000 )  
               a(3) = (  -0.500000  -0.500000   0.500000 )  

     reciprocal axes: (cart. coord. in units 2 pi/alat)
               b(1) = (  1.000000  0.000000  1.000000 )  
               b(2) = ( -1.000000  1.000000  0.000000 )  
               b(3) = (  0.000000 -1.000000  1.000000 )  


     PseudoPot. # 1 for Li read from file:
     ../Li.pbe-s-gbrv14.UPF
     MD5 check sum: 7ca33c4f951f001da2db5c8738379802
     Pseudo is Ultrasoft, Zval =  3.0
     Generated by new atomic code, or converted to UPF format
     Using radial grid of  751 points,  5 beta functions with: 
                l(1) =   0
                l(2) =   0
                l(3) =   0
                l(4) =   1
                l(5) =   1
     Q(r) pseudized with 10 coefficients,  rinner =    1.150   1.150   1.150


     atomic species   valence    mass     pseudopotential
        Li             3.00     6.94100     Li( 1.00)

     48 Sym. Ops., with inversion, found



   Cartesian axes

     site n.     atom                  positions (alat units)
         1           Li  tau(   1) = (   0.0000000   0.0000000   0.0000000  )

     number of k points= 11760  Marzari-Vanderbilt smearing, width (Ry)=  0.0200

     Number of k-points >= 100: set verbosity='high' to print them.

     Dense  grid:    23455 G-vectors     FFT dimensions: (  40,  40,  40)

     Smooth grid:     8391 G-vectors     FFT dimensions: (  27,  27,  27)

     Largest allocated arrays     est. size (Mb)     dimensions
        Kohn-Sham Wavefunctions         0.10 Mb     (    1055,    6)
        NL pseudopotentials             0.14 Mb     (    1055,    9)
        Each V/rho on FFT grid          0.98 Mb     (   64000)
        Each G-vector array             0.18 Mb     (   23455)
        G-vector shells                 0.00 Mb     (     231)
     Largest temporary arrays     est. size (Mb)     dimensions
        Auxiliary wavefunctions         0.39 Mb     (    1055,   24)
        Each subspace H/S matrix        0.01 Mb     (      24,   24)
        Each <psi_i|beta_j> matrix      0.00 Mb     (       9,    6)

     The potential is recalculated from file :
     ./tmp/_ph0/li-bcc.save/charge-density.dat

     Starting wfc are    5 atomic +    1 random wfc

     Band Structure Calculation
     Davidson diagonalization with overlap

     ethr =  3.33E-10,  avg # of iterations = 17.3

     total cpu time spent up to now is       48.2 secs

     End of band structure calculation

     Number of k-points >= 100: set verbosity='high' to print the bands.

     the Fermi energy is     1.0621 ev

                                                                                

     bravais-lattice index     =            3
     lattice parameter (alat)  =       6.4179  a.u.
     unit-cell volume          =     132.1771 (a.u.)^3
     number of atoms/cell      =            1
     number of atomic types    =            1
     kinetic-energy cut-off    =      60.0000  Ry
     charge density cut-off    =     480.0000  Ry
     convergence threshold     =      1.0E-16
     beta                      =       0.7000
     number of iterations used =            4
     Exchange-correlation      =  SLA  PW   PBX  PBC ( 1  4  3  4 0 0)


     celldm(1)=    6.41794  celldm(2)=    0.00000  celldm(3)=    0.00000
     celldm(4)=    0.00000  celldm(5)=    0.00000  celldm(6)=    0.00000

     crystal axes: (cart. coord. in units of alat)
               a(1) = (  0.5000  0.5000  0.5000 )  
               a(2) = ( -0.5000  0.5000  0.5000 )  
               a(3) = ( -0.5000 -0.5000  0.5000 )  

     reciprocal axes: (cart. coord. in units 2 pi/alat)
               b(1) = (  1.0000  0.0000  1.0000 )  
               b(2) = ( -1.0000  1.0000  0.0000 )  
               b(3) = (  0.0000 -1.0000  1.0000 )  


     Atoms inside the unit cell: 

     Cartesian axes

     site n.  atom      mass           positions (alat units)
        1     Li   6.9410   tau(    1) = (    0.00000    0.00000    0.00000  )

     Computing dynamical matrix for 
                    q = (   0.0000000  -0.4000000   0.4000000 )
 
      4 Sym.Ops. (no q -> -q+G )


     G cutoff =  500.8093  (  23455 G-vectors)     FFT grid: ( 40, 40, 40)
     G cutoff =  250.4047  (   8391 G-vectors)  smooth grid: ( 27, 27, 27)

     number of k points= 11760  Marzari-Vanderbilt smearing, width (Ry)=  0.0200

     PseudoPot. # 1 for Li read from file:
     ../Li.pbe-s-gbrv14.UPF
     MD5 check sum: 7ca33c4f951f001da2db5c8738379802
     Pseudo is Ultrasoft, Zval =  3.0
     Generated by new atomic code, or converted to UPF format
     Using radial grid of  751 points,  5 beta functions with: 
                l(1) =   0
                l(2) =   0
                l(3) =   0
                l(4) =   1
                l(5) =   1
     Q(r) pseudized with 10 coefficients,  rinner =    1.150   1.150   1.150


     Mode symmetry, C_2v (mm2)  point group:


     Atomic displacements:
     There are   3 irreducible representations

     Representation     1      1 modes -A_1  D_1  S_1  To be done

     Representation     2      1 modes -B_1  D_3  S_3  To be done

     Representation     3      1 modes -B_2  D_4  S_4  To be done



     Alpha used in Ewald sum =   2.8000
     PHONON       :  4m38.96s CPU     5m40.84s WALL



     Representation #  1 mode #   1

     Self-consistent Calculation

      iter #   1 total cpu time :   341.4 secs   av.it.:   6.3
      thresh= 1.000E-02 alpha_mix =  0.700 |ddv_scf|^2 =  3.760E-05

      iter #   2 total cpu time :   344.3 secs   av.it.:   8.5
      thresh= 6.132E-04 alpha_mix =  0.700 |ddv_scf|^2 =  8.167E-05

      iter #   3 total cpu time :   351.2 secs   av.it.:   7.2
      thresh= 9.037E-04 alpha_mix =  0.700 |ddv_scf|^2 =  6.485E-08

      iter #   4 total cpu time :   353.1 secs   av.it.:   8.7
      thresh= 2.546E-05 alpha_mix =  0.700 |ddv_scf|^2 =  3.545E-09

      iter #   5 total cpu time :   355.7 secs   av.it.:   8.7
      thresh= 5.954E-06 alpha_mix =  0.700 |ddv_scf|^2 =  4.164E-12

      iter #   6 total cpu time :   368.9 secs   av.it.:   8.9
      thresh= 2.040E-07 alpha_mix =  0.700 |ddv_scf|^2 =  2.010E-13

      iter #   7 total cpu time :   371.0 secs   av.it.:   8.9
      thresh= 4.483E-08 alpha_mix =  0.700 |ddv_scf|^2 =  1.027E-15

      iter #   8 total cpu time :   381.5 secs   av.it.:   9.4
      thresh= 3.204E-09 alpha_mix =  0.700 |ddv_scf|^2 =  1.826E-16

      iter #   9 total cpu time :   384.0 secs   av.it.:   8.0
      thresh= 1.351E-09 alpha_mix =  0.700 |ddv_scf|^2 =  2.992E-17

     End of self-consistent calculation

     Convergence has been achieved 


     Representation #  2 mode #   2

     Self-consistent Calculation

      iter #   1 total cpu time :   386.3 secs   av.it.:   5.5
      thresh= 1.000E-02 alpha_mix =  0.700 |ddv_scf|^2 =  1.063E-06

      iter #   2 total cpu time :   389.0 secs   av.it.:   8.6
      thresh= 1.031E-04 alpha_mix =  0.700 |ddv_scf|^2 =  6.371E-08

      iter #   3 total cpu time :   397.1 secs   av.it.:   9.0
      thresh= 2.524E-05 alpha_mix =  0.700 |ddv_scf|^2 =  6.488E-10

      iter #   4 total cpu time :   398.8 secs   av.it.:   8.1
      thresh= 2.547E-06 alpha_mix =  0.700 |ddv_scf|^2 =  8.220E-13

      iter #   5 total cpu time :   399.6 secs   av.it.:   8.5
      thresh= 9.066E-08 alpha_mix =  0.700 |ddv_scf|^2 =  1.749E-14

      iter #   6 total cpu time :   400.6 secs   av.it.:   7.7
      thresh= 1.323E-08 alpha_mix =  0.700 |ddv_scf|^2 =  8.876E-18

     End of self-consistent calculation

     Convergence has been achieved 


     Representation #  3 mode #   3

     Self-consistent Calculation

      iter #   1 total cpu time :   405.7 secs   av.it.:   5.6
      thresh= 1.000E-02 alpha_mix =  0.700 |ddv_scf|^2 =  1.180E-06

      iter #   2 total cpu time :   406.3 secs   av.it.:   8.6
      thresh= 1.086E-04 alpha_mix =  0.700 |ddv_scf|^2 =  6.995E-08

      iter #   3 total cpu time :   406.9 secs   av.it.:   8.9
      thresh= 2.645E-05 alpha_mix =  0.700 |ddv_scf|^2 =  1.350E-09

      iter #   4 total cpu time :   408.7 secs   av.it.:   8.1
      thresh= 3.675E-06 alpha_mix =  0.700 |ddv_scf|^2 =  1.303E-12

      iter #   5 total cpu time :   409.5 secs   av.it.:   8.5
      thresh= 1.141E-07 alpha_mix =  0.700 |ddv_scf|^2 =  2.135E-14

      iter #   6 total cpu time :   412.6 secs   av.it.:   7.8
      thresh= 1.461E-08 alpha_mix =  0.700 |ddv_scf|^2 =  4.008E-18

     End of self-consistent calculation

     Convergence has been achieved 
 
     Number of q in the star =   12
     List of q in the star:
          1   0.000000000  -0.400000000   0.400000000
          2  -0.400000000   0.000000000   0.400000000
          3   0.400000000   0.000000000   0.400000000
          4   0.000000000   0.400000000   0.400000000
          5   0.400000000   0.400000000   0.000000000
          6  -0.400000000   0.400000000   0.000000000
          7   0.400000000  -0.400000000   0.000000000
          8  -0.400000000  -0.400000000   0.000000000
          9  -0.400000000   0.000000000  -0.400000000
         10   0.000000000   0.400000000  -0.400000000
         11   0.000000000  -0.400000000  -0.400000000
         12   0.400000000   0.000000000  -0.400000000

     Diagonalizing the dynamical matrix

     q = (    0.000000000  -0.400000000   0.400000000 ) 

 **************************************************************************
     freq (    1) =       1.525412 [THz] =      50.882281 [cm-1]
     freq (    2) =       5.486950 [THz] =     183.024951 [cm-1]
     freq (    3) =       9.622081 [THz] =     320.958071 [cm-1]
 **************************************************************************

     Mode symmetry, C_2v (mm2)  point group:

     freq (  1 -  1) =         50.9  [cm-1]   --> B_1  D_3  S_3      
     freq (  2 -  2) =        183.0  [cm-1]   --> B_2  D_4  S_4      
     freq (  3 -  3) =        321.0  [cm-1]   --> A_1  D_1  S_1      

     Calculation of q =    0.0000000   0.5000000  -0.5000000
 
     G-vector sticks info
     --------------------
     sticks:   dense  smooth     PW     G-vecs:    dense   smooth      PW
     Sum        1113     557    205                23455     8391    1865
 


     bravais-lattice index     =            3
     lattice parameter (alat)  =       6.4179  a.u.
     unit-cell volume          =     132.1771 (a.u.)^3
     number of atoms/cell      =            1
     number of atomic types    =            1
     number of electrons       =         3.00
     number of Kohn-Sham states=            6
     kinetic-energy cutoff     =      60.0000  Ry
     charge density cutoff     =     480.0000  Ry
     Exchange-correlation      =  SLA  PW   PBX  PBC ( 1  4  3  4 0 0)

     celldm(1)=   6.417937  celldm(2)=   0.000000  celldm(3)=   0.000000
     celldm(4)=   0.000000  celldm(5)=   0.000000  celldm(6)=   0.000000

     crystal axes: (cart. coord. in units of alat)
               a(1) = (   0.500000   0.500000   0.500000 )  
               a(2) = (  -0.500000   0.500000   0.500000 )  
               a(3) = (  -0.500000  -0.500000   0.500000 )  

     reciprocal axes: (cart. coord. in units 2 pi/alat)
               b(1) = (  1.000000  0.000000  1.000000 )  
               b(2) = ( -1.000000  1.000000  0.000000 )  
               b(3) = (  0.000000 -1.000000  1.000000 )  


     PseudoPot. # 1 for Li read from file:
     ../Li.pbe-s-gbrv14.UPF
     MD5 check sum: 7ca33c4f951f001da2db5c8738379802
     Pseudo is Ultrasoft, Zval =  3.0
     Generated by new atomic code, or converted to UPF format
     Using radial grid of  751 points,  5 beta functions with: 
                l(1) =   0
                l(2) =   0
                l(3) =   0
                l(4) =   1
                l(5) =   1
     Q(r) pseudized with 10 coefficients,  rinner =    1.150   1.150   1.150


     atomic species   valence    mass     pseudopotential
        Li             3.00     6.94100     Li( 1.00)

     48 Sym. Ops., with inversion, found



   Cartesian axes

     site n.     atom                  positions (alat units)
         1           Li  tau(   1) = (   0.0000000   0.0000000   0.0000000  )

     number of k points=  6090  Marzari-Vanderbilt smearing, width (Ry)=  0.0200

     Number of k-points >= 100: set verbosity='high' to print them.

     Dense  grid:    23455 G-vectors     FFT dimensions: (  40,  40,  40)

     Smooth grid:     8391 G-vectors     FFT dimensions: (  27,  27,  27)

     Largest allocated arrays     est. size (Mb)     dimensions
        Kohn-Sham Wavefunctions         0.10 Mb     (    1055,    6)
        NL pseudopotentials             0.14 Mb     (    1055,    9)
        Each V/rho on FFT grid          0.98 Mb     (   64000)
        Each G-vector array             0.18 Mb     (   23455)
        G-vector shells                 0.00 Mb     (     231)
     Largest temporary arrays     est. size (Mb)     dimensions
        Auxiliary wavefunctions         0.39 Mb     (    1055,   24)
        Each subspace H/S matrix        0.01 Mb     (      24,   24)
        Each <psi_i|beta_j> matrix      0.00 Mb     (       9,    6)

     The potential is recalculated from file :
     ./tmp/_ph0/li-bcc.save/charge-density.dat

     Starting wfc are    5 atomic +    1 random wfc

     Band Structure Calculation
     Davidson diagonalization with overlap

     ethr =  3.33E-10,  avg # of iterations = 17.3

     total cpu time spent up to now is       54.3 secs

     End of band structure calculation

     Number of k-points >= 100: set verbosity='high' to print the bands.

     the Fermi energy is     1.0621 ev

                                                                                

     bravais-lattice index     =            3
     lattice parameter (alat)  =       6.4179  a.u.
     unit-cell volume          =     132.1771 (a.u.)^3
     number of atoms/cell      =            1
     number of atomic types    =            1
     kinetic-energy cut-off    =      60.0000  Ry
     charge density cut-off    =     480.0000  Ry
     convergence threshold     =      1.0E-16
     beta                      =       0.7000
     number of iterations used =            4
     Exchange-correlation      =  SLA  PW   PBX  PBC ( 1  4  3  4 0 0)


     celldm(1)=    6.41794  celldm(2)=    0.00000  celldm(3)=    0.00000
     celldm(4)=    0.00000  celldm(5)=    0.00000  celldm(6)=    0.00000

     crystal axes: (cart. coord. in units of alat)
               a(1) = (  0.5000  0.5000  0.5000 )  
               a(2) = ( -0.5000  0.5000  0.5000 )  
               a(3) = ( -0.5000 -0.5000  0.5000 )  

     reciprocal axes: (cart. coord. in units 2 pi/alat)
               b(1) = (  1.0000  0.0000  1.0000 )  
               b(2) = ( -1.0000  1.0000  0.0000 )  
               b(3) = (  0.0000 -1.0000  1.0000 )  


     Atoms inside the unit cell: 

     Cartesian axes

     site n.  atom      mass           positions (alat units)
        1     Li   6.9410   tau(    1) = (    0.00000    0.00000    0.00000  )

     Computing dynamical matrix for 
                    q = (   0.0000000   0.5000000  -0.5000000 )
 
      9 Sym.Ops. (with q -> -q+G )


     G cutoff =  500.8093  (  23455 G-vectors)     FFT grid: ( 40, 40, 40)
     G cutoff =  250.4047  (   8391 G-vectors)  smooth grid: ( 27, 27, 27)

     number of k points=  6090  Marzari-Vanderbilt smearing, width (Ry)=  0.0200

     PseudoPot. # 1 for Li read from file:
     ../Li.pbe-s-gbrv14.UPF
     MD5 check sum: 7ca33c4f951f001da2db5c8738379802
     Pseudo is Ultrasoft, Zval =  3.0
     Generated by new atomic code, or converted to UPF format
     Using radial grid of  751 points,  5 beta functions with: 
                l(1) =   0
                l(2) =   0
                l(3) =   0
                l(4) =   1
                l(5) =   1
     Q(r) pseudized with 10 coefficients,  rinner =    1.150   1.150   1.150


     Mode symmetry, D_2h (mmm)  point group:


     Atomic displacements:
     There are   3 irreducible representations

     Representation     1      1 modes -B_1u  To be done

     Representation     2      1 modes -B_2u  To be done

     Representation     3      1 modes -B_3u  To be done



     Alpha used in Ewald sum =   2.8000
     PHONON       :  5m58.03s CPU     7m20.89s WALL



     Representation #  1 mode #   1

     Self-consistent Calculation

      iter #   1 total cpu time :   441.3 secs   av.it.:   5.7
      thresh= 1.000E-02 alpha_mix =  0.700 |ddv_scf|^2 =  1.198E-06

      iter #   2 total cpu time :   443.4 secs   av.it.:   8.6
      thresh= 1.095E-04 alpha_mix =  0.700 |ddv_scf|^2 =  7.077E-08

      iter #   3 total cpu time :   444.1 secs   av.it.:   8.8
      thresh= 2.660E-05 alpha_mix =  0.700 |ddv_scf|^2 =  1.484E-09

      iter #   4 total cpu time :   444.6 secs   av.it.:   8.1
      thresh= 3.853E-06 alpha_mix =  0.700 |ddv_scf|^2 =  1.363E-12

      iter #   5 total cpu time :   445.0 secs   av.it.:   8.4
      thresh= 1.167E-07 alpha_mix =  0.700 |ddv_scf|^2 =  2.132E-14

      iter #   6 total cpu time :   445.4 secs   av.it.:   7.8
      thresh= 1.460E-08 alpha_mix =  0.700 |ddv_scf|^2 =  3.622E-18

     End of self-consistent calculation

     Convergence has been achieved 


     Representation #  2 mode #   2

     Self-consistent Calculation

      iter #   1 total cpu time :   446.7 secs   av.it.:   5.5
      thresh= 1.000E-02 alpha_mix =  0.700 |ddv_scf|^2 =  1.068E-06

      iter #   2 total cpu time :   453.7 secs   av.it.:   8.6
      thresh= 1.033E-04 alpha_mix =  0.700 |ddv_scf|^2 =  6.379E-08

      iter #   3 total cpu time :   461.4 secs   av.it.:   9.0
      thresh= 2.526E-05 alpha_mix =  0.700 |ddv_scf|^2 =  6.887E-10

      iter #   4 total cpu time :   462.2 secs   av.it.:   8.0
      thresh= 2.624E-06 alpha_mix =  0.700 |ddv_scf|^2 =  8.029E-13

      iter #   5 total cpu time :   463.4 secs   av.it.:   8.4
      thresh= 8.961E-08 alpha_mix =  0.700 |ddv_scf|^2 =  1.769E-14

      iter #   6 total cpu time :   463.8 secs   av.it.:   7.7
      thresh= 1.330E-08 alpha_mix =  0.700 |ddv_scf|^2 =  8.703E-18

     End of self-consistent calculation

     Convergence has been achieved 


     Representation #  3 mode #   3

     Self-consistent Calculation

      iter #   1 total cpu time :   465.8 secs   av.it.:   6.2
      thresh= 1.000E-02 alpha_mix =  0.700 |ddv_scf|^2 =  1.458E-05

      iter #   2 total cpu time :   475.9 secs   av.it.:   8.4
      thresh= 3.818E-04 alpha_mix =  0.700 |ddv_scf|^2 =  5.097E-06

      iter #   3 total cpu time :   486.5 secs   av.it.:   7.8
      thresh= 2.258E-04 alpha_mix =  0.700 |ddv_scf|^2 =  1.902E-08

      iter #   4 total cpu time :   489.3 secs   av.it.:   8.6
      thresh= 1.379E-05 alpha_mix =  0.700 |ddv_scf|^2 =  1.037E-11

      iter #   5 total cpu time :   489.8 secs   av.it.:   8.3
      thresh= 3.221E-07 alpha_mix =  0.700 |ddv_scf|^2 =  5.921E-13

      iter #   6 total cpu time :   490.3 secs   av.it.:   8.4
      thresh= 7.695E-08 alpha_mix =  0.700 |ddv_scf|^2 =  3.235E-15

      iter #   7 total cpu time :   491.5 secs   av.it.:   8.6
      thresh= 5.688E-09 alpha_mix =  0.700 |ddv_scf|^2 =  3.535E-18

     End of self-consistent calculation

     Convergence has been achieved 
 
     Number of q in the star =    6
     List of q in the star:
          1   0.000000000   0.500000000  -0.500000000
          2  -0.500000000  -0.500000000   0.000000000
          3   0.500000000  -0.500000000   0.000000000
          4   0.500000000   0.000000000   0.500000000
          5   0.500000000   0.000000000  -0.500000000
          6   0.000000000  -0.500000000  -0.500000000

     Diagonalizing the dynamical matrix

     q = (    0.000000000   0.500000000  -0.500000000 ) 

 **************************************************************************
     freq (    1) =       1.631999 [THz] =      54.437623 [cm-1]
     freq (    2) =       5.769668 [THz] =     192.455395 [cm-1]
     freq (    3) =      10.092003 [THz] =     336.632992 [cm-1]
 **************************************************************************

     Mode symmetry, D_2h (mmm)  point group:

     freq (  1 -  1) =         54.4  [cm-1]   --> B_2u               
     freq (  2 -  2) =        192.5  [cm-1]   --> B_1u               
     freq (  3 -  3) =        336.6  [cm-1]   --> B_3u               

     Calculation of q =   -0.1000000  -0.1000000   0.2000000
 
     G-vector sticks info
     --------------------
     sticks:   dense  smooth     PW     G-vecs:    dense   smooth      PW
     Sum        1113     557    181                23455     8391    1553
 


     bravais-lattice index     =            3
     lattice parameter (alat)  =       6.4179  a.u.
     unit-cell volume          =     132.1771 (a.u.)^3
     number of atoms/cell      =            1
     number of atomic types    =            1
     number of electrons       =         3.00
     number of Kohn-Sham states=            6
     kinetic-energy cutoff     =      60.0000  Ry
     charge density cutoff     =     480.0000  Ry
     Exchange-correlation      =  SLA  PW   PBX  PBC ( 1  4  3  4 0 0)

     celldm(1)=   6.417937  celldm(2)=   0.000000  celldm(3)=   0.000000
     celldm(4)=   0.000000  celldm(5)=   0.000000  celldm(6)=   0.000000

     crystal axes: (cart. coord. in units of alat)
               a(1) = (   0.500000   0.500000   0.500000 )  
               a(2) = (  -0.500000   0.500000   0.500000 )  
               a(3) = (  -0.500000  -0.500000   0.500000 )  

     reciprocal axes: (cart. coord. in units 2 pi/alat)
               b(1) = (  1.000000  0.000000  1.000000 )  
               b(2) = ( -1.000000  1.000000  0.000000 )  
               b(3) = (  0.000000 -1.000000  1.000000 )  


     PseudoPot. # 1 for Li read from file:
     ../Li.pbe-s-gbrv14.UPF
     MD5 check sum: 7ca33c4f951f001da2db5c8738379802
     Pseudo is Ultrasoft, Zval =  3.0
     Generated by new atomic code, or converted to UPF format
     Using radial grid of  751 points,  5 beta functions with: 
                l(1) =   0
                l(2) =   0
                l(3) =   0
                l(4) =   1
                l(5) =   1
     Q(r) pseudized with 10 coefficients,  rinner =    1.150   1.150   1.150


     atomic species   valence    mass     pseudopotential
        Li             3.00     6.94100     Li( 1.00)

     48 Sym. Ops., with inversion, found



   Cartesian axes

     site n.     atom                  positions (alat units)
         1           Li  tau(   1) = (   0.0000000   0.0000000   0.0000000  )

     number of k points= 22736  Marzari-Vanderbilt smearing, width (Ry)=  0.0200

     Number of k-points >= 100: set verbosity='high' to print them.

     Dense  grid:    23455 G-vectors     FFT dimensions: (  40,  40,  40)

     Smooth grid:     8391 G-vectors     FFT dimensions: (  27,  27,  27)

     Largest allocated arrays     est. size (Mb)     dimensions
        Kohn-Sham Wavefunctions         0.10 Mb     (    1055,    6)
        NL pseudopotentials             0.14 Mb     (    1055,    9)
        Each V/rho on FFT grid          0.98 Mb     (   64000)
        Each G-vector array             0.18 Mb     (   23455)
        G-vector shells                 0.00 Mb     (     231)
     Largest temporary arrays     est. size (Mb)     dimensions
        Auxiliary wavefunctions         0.39 Mb     (    1055,   24)
        Each subspace H/S matrix        0.01 Mb     (      24,   24)
        Each <psi_i|beta_j> matrix      0.00 Mb     (       9,    6)

     The potential is recalculated from file :
     ./tmp/_ph0/li-bcc.save/charge-density.dat

     Starting wfc are    5 atomic +    1 random wfc

     Band Structure Calculation
     Davidson diagonalization with overlap

     ethr =  3.33E-10,  avg # of iterations = 17.3

     total cpu time spent up to now is       64.5 secs

     End of band structure calculation

     Number of k-points >= 100: set verbosity='high' to print the bands.

     the Fermi energy is     1.0621 ev

                                                                                

     bravais-lattice index     =            3
     lattice parameter (alat)  =       6.4179  a.u.
     unit-cell volume          =     132.1771 (a.u.)^3
     number of atoms/cell      =            1
     number of atomic types    =            1
     kinetic-energy cut-off    =      60.0000  Ry
     charge density cut-off    =     480.0000  Ry
     convergence threshold     =      1.0E-16
     beta                      =       0.7000
     number of iterations used =            4
     Exchange-correlation      =  SLA  PW   PBX  PBC ( 1  4  3  4 0 0)


     celldm(1)=    6.41794  celldm(2)=    0.00000  celldm(3)=    0.00000
     celldm(4)=    0.00000  celldm(5)=    0.00000  celldm(6)=    0.00000

     crystal axes: (cart. coord. in units of alat)
               a(1) = (  0.5000  0.5000  0.5000 )  
               a(2) = ( -0.5000  0.5000  0.5000 )  
               a(3) = ( -0.5000 -0.5000  0.5000 )  

     reciprocal axes: (cart. coord. in units 2 pi/alat)
               b(1) = (  1.0000  0.0000  1.0000 )  
               b(2) = ( -1.0000  1.0000  0.0000 )  
               b(3) = (  0.0000 -1.0000  1.0000 )  


     Atoms inside the unit cell: 

     Cartesian axes

     site n.  atom      mass           positions (alat units)
        1     Li   6.9410   tau(    1) = (    0.00000    0.00000    0.00000  )

     Computing dynamical matrix for 
                    q = (  -0.1000000  -0.1000000   0.2000000 )
 
      2 Sym.Ops. (no q -> -q+G )


     G cutoff =  500.8093  (  23455 G-vectors)     FFT grid: ( 40, 40, 40)
     G cutoff =  250.4047  (   8391 G-vectors)  smooth grid: ( 27, 27, 27)

     number of k points= 22736  Marzari-Vanderbilt smearing, width (Ry)=  0.0200

     PseudoPot. # 1 for Li read from file:
     ../Li.pbe-s-gbrv14.UPF
     MD5 check sum: 7ca33c4f951f001da2db5c8738379802
     Pseudo is Ultrasoft, Zval =  3.0
     Generated by new atomic code, or converted to UPF format
     Using radial grid of  751 points,  5 beta functions with: 
                l(1) =   0
                l(2) =   0
                l(3) =   0
                l(4) =   1
                l(5) =   1
     Q(r) pseudized with 10 coefficients,  rinner =    1.150   1.150   1.150


     Mode symmetry, C_s (m)     point group:


     Atomic displacements:
     There are   3 irreducible representations

     Representation     1      1 modes -A'  To be done

     Representation     2      1 modes -A'  To be done

     Representation     3      1 modes -A''  To be done



     Alpha used in Ewald sum =   2.8000
     PHONON       :  7m 1.69s CPU     8m34.27s WALL



     Representation #  1 mode #   1

     Self-consistent Calculation

      iter #   1 total cpu time :   515.2 secs   av.it.:   6.0
      thresh= 1.000E-02 alpha_mix =  0.700 |ddv_scf|^2 =  8.996E-04

      iter #   2 total cpu time :   517.8 secs   av.it.:   7.4
      thresh= 2.999E-03 alpha_mix =  0.700 |ddv_scf|^2 =  1.670E-01

      iter #   3 total cpu time :   520.4 secs   av.it.:   6.0
      thresh= 1.000E-02 alpha_mix =  0.700 |ddv_scf|^2 =  1.459E-07

      iter #   4 total cpu time :   531.4 secs   av.it.:   8.8
      thresh= 3.819E-05 alpha_mix =  0.700 |ddv_scf|^2 =  4.556E-09

      iter #   5 total cpu time :   533.4 secs   av.it.:   9.0
      thresh= 6.750E-06 alpha_mix =  0.700 |ddv_scf|^2 =  6.457E-11

      iter #   6 total cpu time :   542.7 secs   av.it.:   8.6
      thresh= 8.036E-07 alpha_mix =  0.700 |ddv_scf|^2 =  6.855E-10

      iter #   7 total cpu time :   544.7 secs   av.it.:   5.1
      thresh= 2.618E-06 alpha_mix =  0.700 |ddv_scf|^2 =  1.061E-11

      iter #   8 total cpu time :   547.1 secs   av.it.:   6.7
      thresh= 3.258E-07 alpha_mix =  0.700 |ddv_scf|^2 =  1.296E-13

      iter #   9 total cpu time :   549.6 secs   av.it.:   6.8
      thresh= 3.600E-08 alpha_mix =  0.700 |ddv_scf|^2 =  2.455E-15

      iter #  10 total cpu time :   552.1 secs   av.it.:   7.8
      thresh= 4.954E-09 alpha_mix =  0.700 |ddv_scf|^2 =  5.805E-18

     End of self-consistent calculation

     Convergence has been achieved 


     Representation #  2 mode #   2

     Self-consistent Calculation

      iter #   1 total cpu time :   554.5 secs   av.it.:   6.3
      thresh= 1.000E-02 alpha_mix =  0.700 |ddv_scf|^2 =  8.144E-03

      iter #   2 total cpu time :   556.9 secs   av.it.:   7.2
      thresh= 9.025E-03 alpha_mix =  0.700 |ddv_scf|^2 =  1.513E+00

      iter #   3 total cpu time :   559.5 secs   av.it.:   7.0
      thresh= 1.000E-02 alpha_mix =  0.700 |ddv_scf|^2 =  1.007E-06

      iter #   4 total cpu time :   560.7 secs   av.it.:   8.0
      thresh= 1.003E-04 alpha_mix =  0.700 |ddv_scf|^2 =  1.861E-08

      iter #   5 total cpu time :   563.0 secs   av.it.:   8.6
      thresh= 1.364E-05 alpha_mix =  0.700 |ddv_scf|^2 =  2.459E-10

      iter #   6 total cpu time :   565.2 secs   av.it.:   8.1
      thresh= 1.568E-06 alpha_mix =  0.700 |ddv_scf|^2 =  2.733E-09

      iter #   7 total cpu time :   572.1 secs   av.it.:   5.1
      thresh= 5.228E-06 alpha_mix =  0.700 |ddv_scf|^2 =  2.881E-12

      iter #   8 total cpu time :   575.4 secs   av.it.:   8.2
      thresh= 1.697E-07 alpha_mix =  0.700 |ddv_scf|^2 =  5.459E-14

      iter #   9 total cpu time :   578.3 secs   av.it.:   8.4
      thresh= 2.336E-08 alpha_mix =  0.700 |ddv_scf|^2 =  3.600E-14

      iter #  10 total cpu time :   581.6 secs   av.it.:   6.6
      thresh= 1.897E-08 alpha_mix =  0.700 |ddv_scf|^2 =  6.238E-17

     End of self-consistent calculation

     Convergence has been achieved 


     Representation #  3 mode #   3

     Self-consistent Calculation

      iter #   1 total cpu time :   584.6 secs   av.it.:   5.4
      thresh= 1.000E-02 alpha_mix =  0.700 |ddv_scf|^2 =  1.068E-06

      iter #   2 total cpu time :   587.9 secs   av.it.:   8.6
      thresh= 1.034E-04 alpha_mix =  0.700 |ddv_scf|^2 =  6.450E-08

      iter #   3 total cpu time :   590.4 secs   av.it.:   8.9
      thresh= 2.540E-05 alpha_mix =  0.700 |ddv_scf|^2 =  6.828E-10

      iter #   4 total cpu time :   593.5 secs   av.it.:   8.2
      thresh= 2.613E-06 alpha_mix =  0.700 |ddv_scf|^2 =  1.141E-12

      iter #   5 total cpu time :   603.9 secs   av.it.:   8.1
      thresh= 1.068E-07 alpha_mix =  0.700 |ddv_scf|^2 =  1.598E-14

      iter #   6 total cpu time :   616.6 secs   av.it.:   7.8
      thresh= 1.264E-08 alpha_mix =  0.700 |ddv_scf|^2 =  1.534E-17

     End of self-consistent calculation

     Convergence has been achieved 
 
     Number of q in the star =   24
     List of q in the star:
          1  -0.100000000  -0.100000000   0.200000000
          2  -0.100000000  -0.200000000   0.100000000
          3   0.100000000  -0.200000000   0.100000000
          4   0.100000000   0.200000000  -0.100000000
          5   0.100000000   0.100000000  -0.200000000
          6  -0.100000000   0.200000000  -0.100000000
          7  -0.100000000   0.100000000  -0.200000000
          8   0.200000000   0.100000000  -0.100000000
          9  -0.200000000   0.100000000   0.100000000
         10   0.200000000  -0.100000000   0.100000000
         11  -0.200000000  -0.100000000  -0.100000000
         12  -0.100000000  -0.100000000  -0.200000000
         13  -0.100000000   0.100000000   0.200000000
         14  -0.100000000   0.200000000   0.100000000
         15  -0.100000000  -0.200000000  -0.100000000
         16   0.100000000   0.100000000   0.200000000
         17   0.100000000  -0.200000000  -0.100000000
         18   0.200000000  -0.100000000  -0.100000000
         19   0.200000000   0.100000000   0.100000000
         20  -0.200000000   0.100000000  -0.100000000
         21  -0.200000000  -0.100000000   0.100000000
         22   0.100000000  -0.100000000  -0.200000000
         23   0.100000000  -0.100000000   0.200000000
         24   0.100000000   0.200000000   0.100000000

     Diagonalizing the dynamical matrix

     q = (   -0.100000000  -0.100000000   0.200000000 ) 

 **************************************************************************
     freq (    1) =       1.661197 [THz] =      55.411576 [cm-1]
     freq (    2) =       2.848498 [THz] =      95.015663 [cm-1]
     freq (    3) =       4.878909 [THz] =     162.742895 [cm-1]
 **************************************************************************

     Mode symmetry, C_s (m)     point group:

     freq (  1 -  1) =         55.4  [cm-1]   --> A'                 
     freq (  2 -  2) =         95.0  [cm-1]   --> A''                
     freq (  3 -  3) =        162.7  [cm-1]   --> A'                 

     Calculation of q =   -0.1000000  -0.2000000   0.3000000
 
     G-vector sticks info
     --------------------
     sticks:   dense  smooth     PW     G-vecs:    dense   smooth      PW
     Sum        1113     557    181                23455     8391    1601
 


     bravais-lattice index     =            3
     lattice parameter (alat)  =       6.4179  a.u.
     unit-cell volume          =     132.1771 (a.u.)^3
     number of atoms/cell      =            1
     number of atomic types    =            1
     number of electrons       =         3.00
     number of Kohn-Sham states=            6
     kinetic-energy cutoff     =      60.0000  Ry
     charge density cutoff     =     480.0000  Ry
     Exchange-correlation      =  SLA  PW   PBX  PBC ( 1  4  3  4 0 0)

     celldm(1)=   6.417937  celldm(2)=   0.000000  celldm(3)=   0.000000
     celldm(4)=   0.000000  celldm(5)=   0.000000  celldm(6)=   0.000000

     crystal axes: (cart. coord. in units of alat)
               a(1) = (   0.500000   0.500000   0.500000 )  
               a(2) = (  -0.500000   0.500000   0.500000 )  
               a(3) = (  -0.500000  -0.500000   0.500000 )  

     reciprocal axes: (cart. coord. in units 2 pi/alat)
               b(1) = (  1.000000  0.000000  1.000000 )  
               b(2) = ( -1.000000  1.000000  0.000000 )  
               b(3) = (  0.000000 -1.000000  1.000000 )  


     PseudoPot. # 1 for Li read from file:
     ../Li.pbe-s-gbrv14.UPF
     MD5 check sum: 7ca33c4f951f001da2db5c8738379802
     Pseudo is Ultrasoft, Zval =  3.0
     Generated by new atomic code, or converted to UPF format
     Using radial grid of  751 points,  5 beta functions with: 
                l(1) =   0
                l(2) =   0
                l(3) =   0
                l(4) =   1
                l(5) =   1
     Q(r) pseudized with 10 coefficients,  rinner =    1.150   1.150   1.150


     atomic species   valence    mass     pseudopotential
        Li             3.00     6.94100     Li( 1.00)

     48 Sym. Ops., with inversion, found



   Cartesian axes

     site n.     atom                  positions (alat units)
         1           Li  tau(   1) = (   0.0000000   0.0000000   0.0000000  )

     number of k points= 43904  Marzari-Vanderbilt smearing, width (Ry)=  0.0200

     Number of k-points >= 100: set verbosity='high' to print them.

     Dense  grid:    23455 G-vectors     FFT dimensions: (  40,  40,  40)

     Smooth grid:     8391 G-vectors     FFT dimensions: (  27,  27,  27)

     Largest allocated arrays     est. size (Mb)     dimensions
        Kohn-Sham Wavefunctions         0.10 Mb     (    1055,    6)
        NL pseudopotentials             0.14 Mb     (    1055,    9)
        Each V/rho on FFT grid          0.98 Mb     (   64000)
        Each G-vector array             0.18 Mb     (   23455)
        G-vector shells                 0.00 Mb     (     231)
     Largest temporary arrays     est. size (Mb)     dimensions
        Auxiliary wavefunctions         0.39 Mb     (    1055,   24)
        Each subspace H/S matrix        0.01 Mb     (      24,   24)
        Each <psi_i|beta_j> matrix      0.00 Mb     (       9,    6)

     The potential is recalculated from file :
     ./tmp/_ph0/li-bcc.save/charge-density.dat

     Starting wfc are    5 atomic +    1 random wfc

     Band Structure Calculation
     Davidson diagonalization with overlap

     ethr =  3.33E-10,  avg # of iterations = 17.3

     total cpu time spent up to now is       84.5 secs

     End of band structure calculation

     Number of k-points >= 100: set verbosity='high' to print the bands.

     the Fermi energy is     1.0621 ev

                                                                                

     bravais-lattice index     =            3
     lattice parameter (alat)  =       6.4179  a.u.
[...]
        1     Li   6.9410   tau(    1) = (    0.00000    0.00000    0.00000  )

     Computing dynamical matrix for 
                    q = (   0.0000000   0.9000000  -0.1000000 )
 
      4 Sym.Ops. (no q -> -q+G )


     G cutoff =  500.8093  (  23455 G-vectors)     FFT grid: ( 40, 40, 40)
     G cutoff =  250.4047  (   8391 G-vectors)  smooth grid: ( 27, 27, 27)

     number of k points= 11760  Marzari-Vanderbilt smearing, width (Ry)=  0.0200

     PseudoPot. # 1 for Li read from file:
     ../Li.pbe-s-gbrv14.UPF
     MD5 check sum: 7ca33c4f951f001da2db5c8738379802
     Pseudo is Ultrasoft, Zval =  3.0
     Generated by new atomic code, or converted to UPF format
     Using radial grid of  751 points,  5 beta functions with: 
                l(1) =   0
                l(2) =   0
                l(3) =   0
                l(4) =   1
                l(5) =   1
     Q(r) pseudized with 10 coefficients,  rinner =    1.150   1.150   1.150


     Mode symmetry, C_2v (mm2)  point group:


     Atomic displacements:
     There are   3 irreducible representations

     Representation     1      1 modes -A_1  D_1  S_1  To be done

     Representation     2      1 modes -B_1  D_3  S_3  To be done

     Representation     3      1 modes -B_2  D_4  S_4  To be done



     Alpha used in Ewald sum =   2.8000
     PHONON       : 22m19.54s CPU    26m46.96s WALL



     Representation #  1 mode #   1

     Self-consistent Calculation

      iter #   1 total cpu time :  1607.6 secs   av.it.:   6.2
      thresh= 1.000E-02 alpha_mix =  0.700 |ddv_scf|^2 =  2.170E-06

      iter #   2 total cpu time :  1610.4 secs   av.it.:   8.8
      thresh= 1.473E-04 alpha_mix =  0.700 |ddv_scf|^2 =  9.319E-08

      iter #   3 total cpu time :  1611.0 secs   av.it.:   8.7
      thresh= 3.053E-05 alpha_mix =  0.700 |ddv_scf|^2 =  6.398E-09

      iter #   4 total cpu time :  1611.7 secs   av.it.:   8.7
      thresh= 7.999E-06 alpha_mix =  0.700 |ddv_scf|^2 =  6.427E-11

      iter #   5 total cpu time :  1614.3 secs   av.it.:   8.9
      thresh= 8.017E-07 alpha_mix =  0.700 |ddv_scf|^2 =  2.018E-13

      iter #   6 total cpu time :  1626.6 secs   av.it.:   9.6
      thresh= 4.492E-08 alpha_mix =  0.700 |ddv_scf|^2 =  2.362E-15

      iter #   7 total cpu time :  1634.4 secs   av.it.:   9.4
      thresh= 4.860E-09 alpha_mix =  0.700 |ddv_scf|^2 =  1.180E-16

      iter #   8 total cpu time :  1637.4 secs   av.it.:   9.2
      thresh= 1.086E-09 alpha_mix =  0.700 |ddv_scf|^2 =  2.768E-19

     End of self-consistent calculation

     Convergence has been achieved 


     Representation #  2 mode #   2

     Self-consistent Calculation

      iter #   1 total cpu time :  1644.8 secs   av.it.:   6.1
      thresh= 1.000E-02 alpha_mix =  0.700 |ddv_scf|^2 =  2.598E-06

      iter #   2 total cpu time :  1645.6 secs   av.it.:   8.7
      thresh= 1.612E-04 alpha_mix =  0.700 |ddv_scf|^2 =  1.048E-07

      iter #   3 total cpu time :  1646.2 secs   av.it.:   8.5
      thresh= 3.237E-05 alpha_mix =  0.700 |ddv_scf|^2 =  7.241E-09

      iter #   4 total cpu time :  1648.8 secs   av.it.:   8.6
      thresh= 8.509E-06 alpha_mix =  0.700 |ddv_scf|^2 =  7.365E-11

      iter #   5 total cpu time :  1651.6 secs   av.it.:   8.6
      thresh= 8.582E-07 alpha_mix =  0.700 |ddv_scf|^2 =  6.318E-14

      iter #   6 total cpu time :  1654.2 secs   av.it.:   8.4
      thresh= 2.514E-08 alpha_mix =  0.700 |ddv_scf|^2 =  6.730E-16

      iter #   7 total cpu time :  1655.9 secs   av.it.:   8.3
      thresh= 2.594E-09 alpha_mix =  0.700 |ddv_scf|^2 =  7.858E-18

     End of self-consistent calculation

     Convergence has been achieved 


     Representation #  3 mode #   3

     Self-consistent Calculation

      iter #   1 total cpu time :  1659.1 secs   av.it.:   6.0
      thresh= 1.000E-02 alpha_mix =  0.700 |ddv_scf|^2 =  1.925E-06

      iter #   2 total cpu time :  1662.4 secs   av.it.:   8.6
      thresh= 1.387E-04 alpha_mix =  0.700 |ddv_scf|^2 =  7.443E-08

      iter #   3 total cpu time :  1668.3 secs   av.it.:   8.5
      thresh= 2.728E-05 alpha_mix =  0.700 |ddv_scf|^2 =  5.085E-09

      iter #   4 total cpu time :  1677.8 secs   av.it.:   8.0
      thresh= 7.131E-06 alpha_mix =  0.700 |ddv_scf|^2 =  1.376E-12

      iter #   5 total cpu time :  1681.1 secs   av.it.:   8.4
      thresh= 1.173E-07 alpha_mix =  0.700 |ddv_scf|^2 =  1.333E-14

      iter #   6 total cpu time :  1683.6 secs   av.it.:   8.2
      thresh= 1.155E-08 alpha_mix =  0.700 |ddv_scf|^2 =  2.376E-16

      iter #   7 total cpu time :  1685.4 secs   av.it.:   8.3
      thresh= 1.542E-09 alpha_mix =  0.700 |ddv_scf|^2 =  2.030E-19

     End of self-consistent calculation

     Convergence has been achieved 
 
     Number of q in the star =   12
     List of q in the star:
          1   0.000000000   0.900000000  -0.100000000
          2  -0.900000000   0.000000000  -0.100000000
          3   0.000000000  -0.900000000  -0.100000000
          4   0.900000000   0.000000000  -0.100000000
          5  -0.100000000  -0.900000000   0.000000000
          6   0.100000000  -0.900000000   0.000000000
          7  -0.100000000   0.900000000   0.000000000
          8   0.100000000   0.900000000   0.000000000
          9   0.900000000   0.000000000   0.100000000
         10   0.000000000   0.100000000  -0.900000000
         11   0.000000000  -0.100000000  -0.900000000
         12   0.100000000   0.000000000  -0.900000000

     Diagonalizing the dynamical matrix

     q = (    0.000000000   0.900000000  -0.100000000 ) 

 **************************************************************************
     freq (    1) =       9.486210 [THz] =     316.425892 [cm-1]
     freq (    2) =       9.951837 [THz] =     331.957541 [cm-1]
     freq (    3) =       9.965528 [THz] =     332.414238 [cm-1]
 **************************************************************************

     Mode symmetry, C_2v (mm2)  point group:

     freq (  1 -  1) =        316.4  [cm-1]   --> A_1  D_1  S_1      
     freq (  2 -  2) =        332.0  [cm-1]   --> B_1  D_3  S_3      
     freq (  3 -  3) =        332.4  [cm-1]   --> B_2  D_4  S_4      

     Calculation of q =    0.0000000   0.0000000  -1.0000000
 
     G-vector sticks info
     --------------------
     sticks:   dense  smooth     PW     G-vecs:    dense   smooth      PW
     Sum        1113     557    205                23455     8391    1865
 


     bravais-lattice index     =            3
     lattice parameter (alat)  =       6.4179  a.u.
     unit-cell volume          =     132.1771 (a.u.)^3
     number of atoms/cell      =            1
     number of atomic types    =            1
     number of electrons       =         3.00
     number of Kohn-Sham states=            6
     kinetic-energy cutoff     =      60.0000  Ry
     charge density cutoff     =     480.0000  Ry
     Exchange-correlation      =  SLA  PW   PBX  PBC ( 1  4  3  4 0 0)

     celldm(1)=   6.417937  celldm(2)=   0.000000  celldm(3)=   0.000000
     celldm(4)=   0.000000  celldm(5)=   0.000000  celldm(6)=   0.000000

     crystal axes: (cart. coord. in units of alat)
               a(1) = (   0.500000   0.500000   0.500000 )  
               a(2) = (  -0.500000   0.500000   0.500000 )  
               a(3) = (  -0.500000  -0.500000   0.500000 )  

     reciprocal axes: (cart. coord. in units 2 pi/alat)
               b(1) = (  1.000000  0.000000  1.000000 )  
               b(2) = ( -1.000000  1.000000  0.000000 )  
               b(3) = (  0.000000 -1.000000  1.000000 )  


     PseudoPot. # 1 for Li read from file:
     ../Li.pbe-s-gbrv14.UPF
     MD5 check sum: 7ca33c4f951f001da2db5c8738379802
     Pseudo is Ultrasoft, Zval =  3.0
     Generated by new atomic code, or converted to UPF format
     Using radial grid of  751 points,  5 beta functions with: 
                l(1) =   0
                l(2) =   0
                l(3) =   0
                l(4) =   1
                l(5) =   1
     Q(r) pseudized with 10 coefficients,  rinner =    1.150   1.150   1.150


     atomic species   valence    mass     pseudopotential
        Li             3.00     6.94100     Li( 1.00)

     48 Sym. Ops., with inversion, found



   Cartesian axes

     site n.     atom                  positions (alat units)
         1           Li  tau(   1) = (   0.0000000   0.0000000   0.0000000  )

     number of k points=  1232  Marzari-Vanderbilt smearing, width (Ry)=  0.0200

     Number of k-points >= 100: set verbosity='high' to print them.

     Dense  grid:    23455 G-vectors     FFT dimensions: (  40,  40,  40)

     Smooth grid:     8391 G-vectors     FFT dimensions: (  27,  27,  27)

     Largest allocated arrays     est. size (Mb)     dimensions
        Kohn-Sham Wavefunctions         0.10 Mb     (    1055,    6)
        NL pseudopotentials             0.14 Mb     (    1055,    9)
        Each V/rho on FFT grid          0.98 Mb     (   64000)
        Each G-vector array             0.18 Mb     (   23455)
        G-vector shells                 0.00 Mb     (     231)
     Largest temporary arrays     est. size (Mb)     dimensions
        Auxiliary wavefunctions         0.39 Mb     (    1055,   24)
        Each subspace H/S matrix        0.01 Mb     (      24,   24)
        Each <psi_i|beta_j> matrix      0.00 Mb     (       9,    6)

     The potential is recalculated from file :
     ./tmp/_ph0/li-bcc.save/charge-density.dat

     Starting wfc are    5 atomic +    1 random wfc

     Band Structure Calculation
     Davidson diagonalization with overlap

     ethr =  3.33E-10,  avg # of iterations = 17.3

     total cpu time spent up to now is      226.8 secs

     End of band structure calculation

     Number of k-points >= 100: set verbosity='high' to print the bands.

     the Fermi energy is     1.0621 ev

                                                                                

     bravais-lattice index     =            3
     lattice parameter (alat)  =       6.4179  a.u.
     unit-cell volume          =     132.1771 (a.u.)^3
     number of atoms/cell      =            1
     number of atomic types    =            1
     kinetic-energy cut-off    =      60.0000  Ry
     charge density cut-off    =     480.0000  Ry
     convergence threshold     =      1.0E-16
     beta                      =       0.7000
     number of iterations used =            4
     Exchange-correlation      =  SLA  PW   PBX  PBC ( 1  4  3  4 0 0)


     celldm(1)=    6.41794  celldm(2)=    0.00000  celldm(3)=    0.00000
     celldm(4)=    0.00000  celldm(5)=    0.00000  celldm(6)=    0.00000

     crystal axes: (cart. coord. in units of alat)
               a(1) = (  0.5000  0.5000  0.5000 )  
               a(2) = ( -0.5000  0.5000  0.5000 )  
               a(3) = ( -0.5000 -0.5000  0.5000 )  

     reciprocal axes: (cart. coord. in units 2 pi/alat)
               b(1) = (  1.0000  0.0000  1.0000 )  
               b(2) = ( -1.0000  1.0000  0.0000 )  
               b(3) = (  0.0000 -1.0000  1.0000 )  


     Atoms inside the unit cell: 

     Cartesian axes

     site n.  atom      mass           positions (alat units)
        1     Li   6.9410   tau(    1) = (    0.00000    0.00000    0.00000  )

     Computing dynamical matrix for 
                    q = (   0.0000000   0.0000000  -1.0000000 )
 
     49 Sym.Ops. (with q -> -q+G )


     G cutoff =  500.8093  (  23455 G-vectors)     FFT grid: ( 40, 40, 40)
     G cutoff =  250.4047  (   8391 G-vectors)  smooth grid: ( 27, 27, 27)

     number of k points=  1232  Marzari-Vanderbilt smearing, width (Ry)=  0.0200

     PseudoPot. # 1 for Li read from file:
     ../Li.pbe-s-gbrv14.UPF
     MD5 check sum: 7ca33c4f951f001da2db5c8738379802
     Pseudo is Ultrasoft, Zval =  3.0
     Generated by new atomic code, or converted to UPF format
     Using radial grid of  751 points,  5 beta functions with: 
                l(1) =   0
                l(2) =   0
                l(3) =   0
                l(4) =   1
                l(5) =   1
     Q(r) pseudized with 10 coefficients,  rinner =    1.150   1.150   1.150


     Mode symmetry, O_h (m-3m)  point group:


     Atomic displacements:
     There are   1 irreducible representations

     Representation     1      3 modes -T_1u G_15  G_4-  To be done



     Alpha used in Ewald sum =   2.8000
     PHONON       : 23m25.02s CPU    28m31.99s WALL



     Representation #  1 modes #   1  2  3

     Self-consistent Calculation

      iter #   1 total cpu time :  1712.8 secs   av.it.:   6.1
      thresh= 1.000E-02 alpha_mix =  0.700 |ddv_scf|^2 =  2.247E-07

      iter #   2 total cpu time :  1717.8 secs   av.it.:   9.5
      thresh= 4.741E-05 alpha_mix =  0.700 |ddv_scf|^2 =  8.394E-09

      iter #   3 total cpu time :  1721.4 secs   av.it.:   9.5
      thresh= 9.162E-06 alpha_mix =  0.700 |ddv_scf|^2 =  6.072E-10

      iter #   4 total cpu time :  1724.1 secs   av.it.:   8.9
      thresh= 2.464E-06 alpha_mix =  0.700 |ddv_scf|^2 =  1.400E-13

      iter #   5 total cpu time :  1728.0 secs   av.it.:   9.2
      thresh= 3.741E-08 alpha_mix =  0.700 |ddv_scf|^2 =  1.255E-15

      iter #   6 total cpu time :  1730.8 secs   av.it.:   9.1
      thresh= 3.543E-09 alpha_mix =  0.700 |ddv_scf|^2 =  2.272E-17

     End of self-consistent calculation

     Convergence has been achieved 
 
     Number of q in the star =    1
     List of q in the star:
          1   0.000000000   0.000000000  -1.000000000

     Diagonalizing the dynamical matrix

     q = (    0.000000000   0.000000000  -1.000000000 ) 

 **************************************************************************
     freq (    1) =      10.224730 [THz] =     341.060287 [cm-1]
     freq (    2) =      10.224730 [THz] =     341.060287 [cm-1]
     freq (    3) =      10.224730 [THz] =     341.060287 [cm-1]
 **************************************************************************

     Mode symmetry, O_h (m-3m)  point group:

     freq (  1 -  3) =        341.1  [cm-1]   --> T_1u G_15  G_4-    
 
     init_run     :     80.74s CPU     89.81s WALL (      17 calls)
     electrons    :    108.71s CPU    109.87s WALL (      17 calls)

     Called by init_run:
     wfcinit      :      0.00s CPU      0.19s WALL (      17 calls)
     potinit      :     77.46s CPU     77.81s WALL (      17 calls)

     Called by electrons:
     c_bands      :    108.65s CPU    109.80s WALL (      17 calls)
     v_of_rho     :      0.76s CPU      0.76s WALL (      18 calls)
     newd         :      0.24s CPU      0.34s WALL (      18 calls)

     Called by c_bands:
     init_us_2    :      2.84s CPU      2.62s WALL (   13851 calls)
     cegterg      :     59.54s CPU     59.97s WALL (    1167 calls)

     Called by sum_band:

     Called by *egterg:
     h_psi        :     56.54s CPU     56.83s WALL (   18613 calls)
     s_psi        :      7.01s CPU      7.13s WALL (  225511 calls)
     g_psi        :      0.42s CPU      0.42s WALL (   16562 calls)
     cdiaghg      :      2.40s CPU      2.38s WALL (   17446 calls)

     Called by h_psi:
     add_vuspsi   :      4.72s CPU      4.77s WALL (  116809 calls)

     General routines
     calbec       :      5.13s CPU      5.08s WALL (  248835 calls)
     fft          :     10.75s CPU     10.82s WALL (    6149 calls)
     ffts         :      1.32s CPU      1.33s WALL (    2355 calls)
     fftw         :    215.43s CPU    218.22s WALL (  592257 calls)
     interpolate  :      0.10s CPU      0.09s WALL (      34 calls)
     davcio       :      0.08s CPU      1.53s WALL (    2652 calls)
 
     Parallel routines
     fft_scatter  :     12.69s CPU     12.96s WALL (  600761 calls)
 
     PHONON       : 23m45.42s CPU    28m59.43s WALL

     INITIALIZATION: 
     phq_setup    :      1.78s CPU     12.16s WALL (      17 calls)
     phq_init     :     40.81s CPU     52.12s WALL (      17 calls)
 
     phq_init     :     40.81s CPU     52.12s WALL (      17 calls)
     init_vloc    :      0.02s CPU      0.02s WALL (      18 calls)
     init_us_1    :      2.33s CPU      2.36s WALL (      18 calls)
     newd         :      0.24s CPU      0.34s WALL (      18 calls)
     dvanqq       :      1.85s CPU      1.87s WALL (      17 calls)
     drho         :     36.17s CPU     36.31s WALL (      17 calls)
 
     DYNAMICAL MATRIX:
     dynmat0      :      0.44s CPU      2.83s WALL (      17 calls)
     phqscf       :   1078.50s CPU   1337.57s WALL (      17 calls)
     dynmatrix    :     79.75s CPU     87.37s WALL (      17 calls)
 
     phqscf       :   1078.50s CPU   1337.57s WALL (      17 calls)
     solve_linter :   1077.62s CPU   1289.67s WALL (      43 calls)
     drhodv       :      0.74s CPU      0.78s WALL (      43 calls)
 
     dynmat0      :      0.44s CPU      2.83s WALL (      17 calls)
     dynmat_us    :      0.37s CPU      0.38s WALL (      17 calls)
     d2ionq       :      0.05s CPU      0.06s WALL (      17 calls)
 
     dynmat_us    :      0.37s CPU      0.38s WALL (      17 calls)
     addusdynmat  :      0.00s CPU      0.00s WALL (      17 calls)
 
     phqscf       :   1078.50s CPU   1337.57s WALL (      17 calls)
     solve_linter :   1077.62s CPU   1289.67s WALL (      43 calls)
 
     solve_linter :   1077.62s CPU   1289.67s WALL (      43 calls)
     dvqpsi_us    :      7.35s CPU      7.50s WALL (    1326 calls)
     ortho        :      1.79s CPU      1.70s WALL (   10506 calls)
     cgsolve      :    168.18s CPU    170.01s WALL (   10506 calls)
     incdrhoscf   :     18.05s CPU     18.46s WALL (   10506 calls)
     addusddens   :      8.73s CPU      8.77s WALL (     374 calls)
     vpsifft      :     14.56s CPU     15.14s WALL (    9180 calls)
     dv_of_drho   :     14.55s CPU     14.73s WALL (     382 calls)
     mix_pot      :      1.92s CPU      2.02s WALL (     331 calls)
     psymdvscf    :      7.14s CPU      7.16s WALL (     305 calls)
     newdq        :      8.33s CPU      8.36s WALL (     331 calls)
     adddvscf     :      0.56s CPU      0.53s WALL (    9180 calls)
     drhodvus     :      0.12s CPU      0.10s WALL (      43 calls)
 
     dvqpsi_us    :      7.35s CPU      7.50s WALL (    1326 calls)
     dvqpsi_us_on :      0.38s CPU      0.40s WALL (    1326 calls)
 
     cgsolve      :    168.18s CPU    170.01s WALL (   10506 calls)
     ch_psi       :    165.93s CPU    167.86s WALL (   98196 calls)
 
     ch_psi       :    165.93s CPU    167.86s WALL (   98196 calls)
     h_psiq       :    158.33s CPU    160.29s WALL (   98196 calls)
     last         :      7.01s CPU      6.93s WALL (   98196 calls)
 
     h_psiq       :    158.33s CPU    160.29s WALL (   98196 calls)
     firstfft     :     78.08s CPU     79.02s WALL (  180097 calls)
     secondfft    :     65.96s CPU     66.76s WALL (  180097 calls)
     add_vuspsi   :      4.72s CPU      4.77s WALL (  116809 calls)
 
     incdrhoscf   :     18.05s CPU     18.46s WALL (   10506 calls)
     addusdbec    :      0.60s CPU      0.58s WALL (   11832 calls)
 
     drhodvus     :      0.12s CPU      0.10s WALL (      43 calls)
 
      General routines
     calbec       :      5.13s CPU      5.08s WALL (  248835 calls)
     fft          :     10.75s CPU     10.82s WALL (    6149 calls)
     ffts         :      1.32s CPU      1.33s WALL (    2355 calls)
     fftw         :    215.43s CPU    218.22s WALL (  592257 calls)
     cinterpolate :      2.04s CPU      2.11s WALL (     815 calls)
     davcio       :      0.08s CPU      1.53s WALL (    2652 calls)
     write_rec    :      0.78s CPU    253.58s WALL (     374 calls)
 
 
     PHONON       : 23m45.42s CPU    28m59.43s WALL

 
   This run was terminated on:  13:33: 8   2Jun2016            

=------------------------------------------------------------------------------=
   JOB DONE.
=------------------------------------------------------------------------------=
Application 21898893 resources: utime ~457201s, stime ~2374s, Rss ~113960, inblocks ~111687272, outblocks ~384878639
