
     Program PWSCF v.6.1 (svn rev. 13369) starts on 17Dec2017 at 17: 2:52 

     This program is part of the open-source Quantum ESPRESSO suite
     for quantum simulation of materials; please cite
         "P. Giannozzi et al., J. Phys.:Condens. Matter 21 395502 (2009);
          URL http://www.quantum-espresso.org", 
     in publications or presentations arising from this work. More details at
     http://www.quantum-espresso.org/quote

     Parallel version (MPI), running on     4 processors
     R & G space division:  proc/nbgrp/npool/nimage =       4
     Waiting for input...
     Reading input from standard input

     Current dimensions of program PWSCF are:
     Max number of different atomic species (ntypx) = 10
     Max number of k-points (npk) =  40000
     Max angular momentum in pseudopotentials (lmaxx) =  3

     Subspace diagonalization in iterative solution of the eigenvalue problem:
     a serial algorithm will be used


     Parallelization info
     --------------------
     sticks:   dense  smooth     PW     G-vecs:    dense   smooth      PW
     Min         293     149     45                 6424     2296     388
     Max         294     150     46                 6425     2298     389
     Sum        1175     599    181                25699     9189    1553



     bravais-lattice index     =            3
     lattice parameter (alat)  =       8.1080  a.u.
     unit-cell volume          =     266.5086 (a.u.)^3
     number of atoms/cell      =            1
     number of atomic types    =            1
     number of electrons       =         9.00
     number of Kohn-Sham states=            9
     kinetic-energy cutoff     =      40.0000  Ry
     charge density cutoff     =     320.0000  Ry
     convergence threshold     =      1.0E-08
     mixing beta               =       0.7000
     number of iterations used =            8  plain     mixing
     Exchange-correlation      = SLA  PW   PBE  PBE ( 1  4  3  4 0 0)

     celldm(1)=   8.108000  celldm(2)=   0.000000  celldm(3)=   0.000000
     celldm(4)=   0.000000  celldm(5)=   0.000000  celldm(6)=   0.000000

     crystal axes: (cart. coord. in units of alat)
               a(1) = (   0.500000   0.500000   0.500000 )  
               a(2) = (  -0.500000   0.500000   0.500000 )  
               a(3) = (  -0.500000  -0.500000   0.500000 )  

     reciprocal axes: (cart. coord. in units 2 pi/alat)
               b(1) = (  1.000000  0.000000  1.000000 )  
               b(2) = ( -1.000000  1.000000  0.000000 )  
               b(3) = (  0.000000 -1.000000  1.000000 )  


     PseudoPot. # 1 for Na read from file:
     /home/max/quantum_espresso/qe-6.1/pseudo/Na_pbe_v1.uspp.F.UPF
     MD5 check sum: 76a99c7e9422403d3e93cbc85ab7bccb
     Pseudo is Ultrasoft, Zval =  9.0
     Generated by new atomic code, or converted to UPF format
     Using radial grid of  819 points,  5 beta functions with: 
                l(1) =   0
                l(2) =   0
                l(3) =   1
                l(4) =   1
                l(5) =   2
     Q(r) pseudized with  8 coefficients,  rinner =    1.250   1.250   1.250
                                                       1.250   1.250

     atomic species   valence    mass     pseudopotential
        Na             9.00    22.99000     Na( 1.00)

     48 Sym. Ops., with inversion, found



   Cartesian axes

     site n.     atom                  positions (alat units)
         1           Na  tau(   1) = (   0.0000000   0.0000000   0.0000000  )

     number of k points=    14  Marzari-Vanderbilt smearing, width (Ry)=  0.0200
                       cart. coord. in units 2pi/alat
        k(    1) = (   0.0000000   0.0000000   0.1666667), wk =   0.0555556
        k(    2) = (   0.0000000  -0.1666667   0.3333333), wk =   0.2222222
        k(    3) = (   0.0000000  -0.3333333   0.5000000), wk =   0.2222222
        k(    4) = (  -0.1666667   0.1666667   0.1666667), wk =   0.0740741
        k(    5) = (  -0.1666667  -0.1666667   0.5000000), wk =   0.2222222
        k(    6) = (  -0.1666667   0.6666667  -0.3333333), wk =   0.2222222
        k(    7) = (  -0.3333333   0.3333333   0.1666667), wk =   0.2222222
        k(    8) = (   0.5000000  -0.5000000   0.1666667), wk =   0.1111111
        k(    9) = (   0.5000000  -0.6666667   0.3333333), wk =   0.2222222
        k(   10) = (   0.0000000   0.0000000   0.5000000), wk =   0.0555556
        k(   11) = (   0.0000000  -0.1666667   0.6666667), wk =   0.2222222
        k(   12) = (  -0.1666667   0.8333333  -0.1666667), wk =   0.0740741
        k(   13) = (   0.5000000  -0.5000000   0.5000000), wk =   0.0185185
        k(   14) = (   0.0000000   0.0000000   0.8333333), wk =   0.0555556

     Dense  grid:    25699 G-vectors     FFT dimensions: (  40,  40,  40)

     Smooth grid:     9189 G-vectors     FFT dimensions: (  30,  30,  30)

     Estimated max dynamical RAM per process >       4.63MB

     Estimated total allocated dynamical RAM >      18.54MB

     Initial potential from superposition of free atoms

     starting charge    8.99371, renormalised to    9.00000
     Starting wfc are    5 randomized atomic wfcs +    4 random wfc

     total cpu time spent up to now is        0.2 secs

     per-process dynamical memory:     8.9 Mb

     Self-consistent Calculation

     iteration #  1     ecut=    40.00 Ry     beta=0.70
     Davidson diagonalization with overlap
     ethr =  1.00E-02,  avg # of iterations =  5.9

     Threshold (ethr) on eigenvalues was too large:
     Diagonalizing with lowered threshold

     Davidson diagonalization with overlap
     ethr =  9.83E-06,  avg # of iterations =  5.0

     total cpu time spent up to now is        0.9 secs

     total energy              =     -95.10748047 Ry
     Harris-Foulkes estimate   =     -95.10765305 Ry
     estimated scf accuracy    <       0.00087983 Ry

     iteration #  2     ecut=    40.00 Ry     beta=0.70
     Davidson diagonalization with overlap
     ethr =  9.78E-06,  avg # of iterations =  2.0

     total cpu time spent up to now is        1.1 secs

     total energy              =     -95.10757542 Ry
     Harris-Foulkes estimate   =     -95.10759452 Ry
     estimated scf accuracy    <       0.00009644 Ry

     iteration #  3     ecut=    40.00 Ry     beta=0.70
     Davidson diagonalization with overlap
     ethr =  1.07E-06,  avg # of iterations =  2.0

     total cpu time spent up to now is        1.2 secs

     total energy              =     -95.10758777 Ry
     Harris-Foulkes estimate   =     -95.10758858 Ry
     estimated scf accuracy    <       0.00000580 Ry

     iteration #  4     ecut=    40.00 Ry     beta=0.70
     Davidson diagonalization with overlap
     ethr =  6.45E-08,  avg # of iterations =  1.0

     total cpu time spent up to now is        1.4 secs

     total energy              =     -95.10758833 Ry
     Harris-Foulkes estimate   =     -95.10758828 Ry
     estimated scf accuracy    <       0.00000002 Ry

     iteration #  5     ecut=    40.00 Ry     beta=0.70
     Davidson diagonalization with overlap
     ethr =  1.91E-10,  avg # of iterations =  3.0

     total cpu time spent up to now is        1.6 secs

     End of self-consistent calculation

          k = 0.0000 0.0000 0.1667 (  1132 PWs)   bands (ev):

   -51.7014 -23.6006 -23.5996 -23.5996  -1.5676  11.0471  11.0471  11.4204
    12.5852

          k = 0.0000-0.1667 0.3333 (  1133 PWs)   bands (ev):

   -51.7008 -23.6124 -23.6038 -23.5997  -0.6428   7.2328   9.4340  10.3392
    11.9381

          k = 0.0000-0.3333 0.5000 (  1133 PWs)   bands (ev):

   -51.7002 -23.6245 -23.6080 -23.5995   1.1612   3.8376   8.6100   9.5363
    11.1849

          k =-0.1667 0.1667 0.1667 (  1133 PWs)   bands (ev):

   -51.7011 -23.6091 -23.5996 -23.5996  -1.1033   9.0803   9.0803  10.1239
    13.8381

          k =-0.1667-0.1667 0.5000 (  1130 PWs)   bands (ev):

   -51.7002 -23.6198 -23.6093 -23.6019   0.7169   5.6771   6.3632  10.8326
    11.1759

          k =-0.1667 0.6667-0.3333 (  1147 PWs)   bands (ev):

   -51.6999 -23.6231 -23.6136 -23.6023   2.7156   3.1552   5.6625  10.7293
    10.8785

          k =-0.3333 0.3333 0.1667 (  1133 PWs)   bands (ev):

   -51.7005 -23.6199 -23.6054 -23.5999   0.2671   5.5286   7.7923   8.7408
    13.0452

          k = 0.5000-0.5000 0.1667 (  1150 PWs)   bands (ev):

   -51.7002 -23.6249 -23.6091 -23.6001   2.2959   2.7176   7.3628   8.3095
    12.6350

          k = 0.5000-0.6667 0.3333 (  1148 PWs)   bands (ev):

   -51.7002 -23.6206 -23.6112 -23.6030   2.0362   4.4008   5.0361   7.5528
    14.6837

          k = 0.0000 0.0000 0.5000 (  1136 PWs)   bands (ev):

   -51.7003 -23.6129 -23.6083 -23.6083   0.2675   7.8033   7.8334   7.8334
     9.5766

          k = 0.0000-0.1667 0.6667 (  1146 PWs)   bands (ev):

   -51.6997 -23.6214 -23.6129 -23.6089   2.0422   4.6777   7.0291   7.6911
    10.1127

          k =-0.1667 0.8333-0.1667 (  1147 PWs)   bands (ev):

   -51.6994 -23.6194 -23.6194 -23.6103   3.9807   3.9807   4.8734   9.1182
     9.1182

          k = 0.5000-0.5000 0.5000 (  1136 PWs)   bands (ev):

   -51.7001 -23.6121 -23.6121 -23.6121   3.9771   3.9771   3.9771   5.4113
    18.0521

          k = 0.0000 0.0000 0.8333 (  1140 PWs)   bands (ev):

   -51.6992 -23.6187 -23.6176 -23.6176   3.7563   5.9899   6.2330   6.2330
     7.4410

     the Fermi energy is     1.2423 ev

!    total energy              =     -95.10758836 Ry
     Harris-Foulkes estimate   =     -95.10758836 Ry
     estimated scf accuracy    <          1.7E-09 Ry

     The total energy is the sum of the following terms:

     one-electron contribution =     -89.50228169 Ry
     hartree contribution      =      45.01173960 Ry
     xc contribution           =     -14.26049290 Ry
     ewald contribution        =     -36.35642691 Ry
     smearing contrib. (-TS)   =      -0.00012646 Ry

     convergence has been achieved in   5 iterations


     Computing stress (Cartesian axis) and pressure

          total   stress  (Ry/bohr**3)                   (kbar)     P=   -7.35
  -0.00004995   0.00000000  -0.00000000         -7.35      0.00     -0.00
   0.00000000  -0.00004995   0.00000000          0.00     -7.35      0.00
  -0.00000000   0.00000000  -0.00004995         -0.00      0.00     -7.35


     Writing output data file na.bcc.save

     init_run     :      0.18s CPU      0.20s WALL (       1 calls)
     electrons    :      1.15s CPU      1.34s WALL (       1 calls)
     stress       :      0.13s CPU      0.13s WALL (       1 calls)

     Called by init_run:
     wfcinit      :      0.02s CPU      0.04s WALL (       1 calls)
     potinit      :      0.02s CPU      0.02s WALL (       1 calls)

     Called by electrons:
     c_bands      :      0.77s CPU      0.94s WALL (       6 calls)
     sum_band     :      0.21s CPU      0.23s WALL (       6 calls)
     v_of_rho     :      0.07s CPU      0.08s WALL (       6 calls)
     newd         :      0.11s CPU      0.12s WALL (       6 calls)
     mix_rho      :      0.01s CPU      0.01s WALL (       6 calls)

     Called by c_bands:
     init_us_2    :      0.02s CPU      0.02s WALL (     196 calls)
     cegterg      :      0.75s CPU      0.91s WALL (      84 calls)

     Called by sum_band:
     sum_band:bec :      0.00s CPU      0.00s WALL (      84 calls)
     addusdens    :      0.10s CPU      0.10s WALL (       6 calls)

     Called by *egterg:
     h_psi        :      0.61s CPU      0.76s WALL (     363 calls)
     s_psi        :      0.01s CPU      0.01s WALL (     363 calls)
     g_psi        :      0.00s CPU      0.00s WALL (     265 calls)
     cdiaghg      :      0.06s CPU      0.06s WALL (     335 calls)

     Called by h_psi:
     h_psi:pot    :      0.61s CPU      0.76s WALL (     363 calls)
     h_psi:calbec :      0.02s CPU      0.03s WALL (     363 calls)
     vloc_psi     :      0.58s CPU      0.72s WALL (     363 calls)
     add_vuspsi   :      0.01s CPU      0.01s WALL (     363 calls)

     General routines
     calbec       :      0.03s CPU      0.04s WALL (     461 calls)
     fft          :      0.04s CPU      0.05s WALL (     101 calls)
     ffts         :      0.00s CPU      0.00s WALL (      12 calls)
     fftw         :      0.61s CPU      0.75s WALL (    5050 calls)
     interpolate  :      0.01s CPU      0.01s WALL (      12 calls)
     davcio       :      0.00s CPU      0.00s WALL (      14 calls)

     Parallel routines
     fft_scatter  :      0.23s CPU      0.34s WALL (    5163 calls)

     PWSCF        :     1.53s CPU         1.76s WALL


   This run was terminated on:  17: 2:54  17Dec2017            

=------------------------------------------------------------------------------=
   JOB DONE.
=------------------------------------------------------------------------------=
