
     Program PWSCF v.6.1 (svn rev. 13369) starts on 17Dec2017 at 17: 2:51 

     This program is part of the open-source Quantum ESPRESSO suite
     for quantum simulation of materials; please cite
         "P. Giannozzi et al., J. Phys.:Condens. Matter 21 395502 (2009);
          URL http://www.quantum-espresso.org", 
     in publications or presentations arising from this work. More details at
     http://www.quantum-espresso.org/quote

     Parallel version (MPI), running on     4 processors
     R & G space division:  proc/nbgrp/npool/nimage =       4
     Waiting for input...
     Reading input from standard input

     Current dimensions of program PWSCF are:
     Max number of different atomic species (ntypx) = 10
     Max number of k-points (npk) =  40000
     Max angular momentum in pseudopotentials (lmaxx) =  3

     Subspace diagonalization in iterative solution of the eigenvalue problem:
     a serial algorithm will be used


     Parallelization info
     --------------------
     sticks:   dense  smooth     PW     G-vecs:    dense   smooth      PW
     Min         293     149     43                 6424     2296     375
     Max         294     150     44                 6425     2298     378
     Sum        1175     599    173                25699     9189    1505



     bravais-lattice index     =            3
     lattice parameter (alat)  =       8.1080  a.u.
     unit-cell volume          =     266.5086 (a.u.)^3
     number of atoms/cell      =            1
     number of atomic types    =            1
     number of electrons       =         9.00
     number of Kohn-Sham states=            9
     kinetic-energy cutoff     =      40.0000  Ry
     charge density cutoff     =     320.0000  Ry
     convergence threshold     =      1.0E-08
     mixing beta               =       0.7000
     number of iterations used =            8  plain     mixing
     Exchange-correlation      = SLA  PW   PBE  PBE ( 1  4  3  4 0 0)

     celldm(1)=   8.108000  celldm(2)=   0.000000  celldm(3)=   0.000000
     celldm(4)=   0.000000  celldm(5)=   0.000000  celldm(6)=   0.000000

     crystal axes: (cart. coord. in units of alat)
               a(1) = (   0.500000   0.500000   0.500000 )  
               a(2) = (  -0.500000   0.500000   0.500000 )  
               a(3) = (  -0.500000  -0.500000   0.500000 )  

     reciprocal axes: (cart. coord. in units 2 pi/alat)
               b(1) = (  1.000000  0.000000  1.000000 )  
               b(2) = ( -1.000000  1.000000  0.000000 )  
               b(3) = (  0.000000 -1.000000  1.000000 )  


     PseudoPot. # 1 for Na read from file:
     /home/max/quantum_espresso/qe-6.1/pseudo/Na_pbe_v1.uspp.F.UPF
     MD5 check sum: 76a99c7e9422403d3e93cbc85ab7bccb
     Pseudo is Ultrasoft, Zval =  9.0
     Generated by new atomic code, or converted to UPF format
     Using radial grid of  819 points,  5 beta functions with: 
                l(1) =   0
                l(2) =   0
                l(3) =   1
                l(4) =   1
                l(5) =   2
     Q(r) pseudized with  8 coefficients,  rinner =    1.250   1.250   1.250
                                                       1.250   1.250

     atomic species   valence    mass     pseudopotential
        Na             9.00    22.99000     Na( 1.00)

     48 Sym. Ops., with inversion, found



   Cartesian axes

     site n.     atom                  positions (alat units)
         1           Na  tau(   1) = (   0.0000000   0.0000000   0.0000000  )

     number of k points=     6  Marzari-Vanderbilt smearing, width (Ry)=  0.0200
                       cart. coord. in units 2pi/alat
        k(    1) = (   0.0000000   0.0000000   0.2500000), wk =   0.1875000
        k(    2) = (   0.0000000  -0.2500000   0.5000000), wk =   0.7500000
        k(    3) = (  -0.2500000   0.2500000   0.2500000), wk =   0.2500000
        k(    4) = (  -0.2500000   0.7500000  -0.2500000), wk =   0.2500000
        k(    5) = (   0.5000000  -0.5000000   0.2500000), wk =   0.3750000
        k(    6) = (   0.0000000   0.0000000   0.7500000), wk =   0.1875000

     Dense  grid:    25699 G-vectors     FFT dimensions: (  40,  40,  40)

     Smooth grid:     9189 G-vectors     FFT dimensions: (  30,  30,  30)

     Estimated max dynamical RAM per process >       4.32MB

     Estimated total allocated dynamical RAM >      17.29MB

     Initial potential from superposition of free atoms

     starting charge    8.99371, renormalised to    9.00000
     Starting wfc are    5 randomized atomic wfcs +    4 random wfc

     total cpu time spent up to now is        0.2 secs

     per-process dynamical memory:     8.7 Mb

     Self-consistent Calculation

     iteration #  1     ecut=    40.00 Ry     beta=0.70
     Davidson diagonalization with overlap
     ethr =  1.00E-02,  avg # of iterations =  5.3

     Threshold (ethr) on eigenvalues was too large:
     Diagonalizing with lowered threshold

     Davidson diagonalization with overlap
     ethr =  9.81E-06,  avg # of iterations =  5.8

     total cpu time spent up to now is        0.4 secs

     total energy              =     -95.10533250 Ry
     Harris-Foulkes estimate   =     -95.10550179 Ry
     estimated scf accuracy    <       0.00087776 Ry

     iteration #  2     ecut=    40.00 Ry     beta=0.70
     Davidson diagonalization with overlap
     ethr =  9.75E-06,  avg # of iterations =  2.0

     total cpu time spent up to now is        0.5 secs

     total energy              =     -95.10542631 Ry
     Harris-Foulkes estimate   =     -95.10544481 Ry
     estimated scf accuracy    <       0.00009573 Ry

     iteration #  3     ecut=    40.00 Ry     beta=0.70
     Davidson diagonalization with overlap
     ethr =  1.06E-06,  avg # of iterations =  2.0

     total cpu time spent up to now is        0.6 secs

     total energy              =     -95.10543820 Ry
     Harris-Foulkes estimate   =     -95.10543902 Ry
     estimated scf accuracy    <       0.00000578 Ry

     iteration #  4     ecut=    40.00 Ry     beta=0.70
     Davidson diagonalization with overlap
     ethr =  6.42E-08,  avg # of iterations =  1.0

     total cpu time spent up to now is        0.7 secs

     total energy              =     -95.10543875 Ry
     Harris-Foulkes estimate   =     -95.10543871 Ry
     estimated scf accuracy    <       0.00000002 Ry

     iteration #  5     ecut=    40.00 Ry     beta=0.70
     Davidson diagonalization with overlap
     ethr =  1.83E-10,  avg # of iterations =  3.0

     total cpu time spent up to now is        0.8 secs

     End of self-consistent calculation

          k = 0.0000 0.0000 0.2500 (  1140 PWs)   bands (ev):

   -51.7006 -23.6028 -23.6007 -23.6007  -1.2770  10.1015  10.1015  10.3490
    11.8178

          k = 0.0000-0.2500 0.5000 (  1135 PWs)   bands (ev):

   -51.6996 -23.6212 -23.6076 -23.6007   0.7727   4.7459   8.2743   9.1462
    12.0315

          k =-0.2500 0.2500 0.2500 (  1127 PWs)   bands (ev):

   -51.7001 -23.6162 -23.6011 -23.6011  -0.2430   7.3218   7.3218   8.5457
    14.6650

          k =-0.2500 0.7500-0.2500 (  1129 PWs)   bands (ev):

   -51.6992 -23.6185 -23.6185 -23.6033   3.5050   3.5050   4.3855  11.2161
    11.2161

          k = 0.5000-0.5000 0.2500 (  1150 PWs)   bands (ev):

   -51.6996 -23.6220 -23.6096 -23.6017   2.5575   2.9909   6.3588   7.3264
    14.1849

          k = 0.0000 0.0000 0.7500 (  1144 PWs)   bands (ev):

   -51.6988 -23.6177 -23.6154 -23.6154   2.7500   6.2732   6.4817   6.4817
     7.9091

     the Fermi energy is     0.9021 ev

!    total energy              =     -95.10543879 Ry
     Harris-Foulkes estimate   =     -95.10543878 Ry
     estimated scf accuracy    <          1.8E-09 Ry

     The total energy is the sum of the following terms:

     one-electron contribution =     -89.49922750 Ry
     hartree contribution      =      45.01210693 Ry
     xc contribution           =     -14.26057965 Ry
     ewald contribution        =     -36.35642691 Ry
     smearing contrib. (-TS)   =      -0.00131166 Ry

     convergence has been achieved in   5 iterations


     Computing stress (Cartesian axis) and pressure

          total   stress  (Ry/bohr**3)                   (kbar)     P=   -6.17
  -0.00004195   0.00000000  -0.00000000         -6.17      0.00     -0.00
   0.00000000  -0.00004195   0.00000000          0.00     -6.17      0.00
  -0.00000000   0.00000000  -0.00004195         -0.00      0.00     -6.17


     Writing output data file na.bcc.save

     init_run     :      0.17s CPU      0.18s WALL (       1 calls)
     electrons    :      0.60s CPU      0.61s WALL (       1 calls)
     stress       :      0.12s CPU      0.12s WALL (       1 calls)

     Called by init_run:
     wfcinit      :      0.02s CPU      0.02s WALL (       1 calls)
     potinit      :      0.02s CPU      0.02s WALL (       1 calls)

     Called by electrons:
     c_bands      :      0.26s CPU      0.27s WALL (       6 calls)
     sum_band     :      0.16s CPU      0.16s WALL (       6 calls)
     v_of_rho     :      0.08s CPU      0.08s WALL (       6 calls)
     newd         :      0.11s CPU      0.12s WALL (       6 calls)
     mix_rho      :      0.01s CPU      0.01s WALL (       6 calls)

     Called by c_bands:
     init_us_2    :      0.01s CPU      0.01s WALL (      84 calls)
     cegterg      :      0.25s CPU      0.26s WALL (      36 calls)

     Called by sum_band:
     sum_band:bec :      0.00s CPU      0.00s WALL (      36 calls)
     addusdens    :      0.10s CPU      0.10s WALL (       6 calls)

     Called by *egterg:
     h_psi        :      0.21s CPU      0.22s WALL (     157 calls)
     s_psi        :      0.00s CPU      0.00s WALL (     157 calls)
     g_psi        :      0.00s CPU      0.00s WALL (     115 calls)
     cdiaghg      :      0.02s CPU      0.02s WALL (     145 calls)

     Called by h_psi:
     h_psi:pot    :      0.21s CPU      0.22s WALL (     157 calls)
     h_psi:calbec :      0.01s CPU      0.01s WALL (     157 calls)
     vloc_psi     :      0.20s CPU      0.21s WALL (     157 calls)
     add_vuspsi   :      0.00s CPU      0.00s WALL (     157 calls)

     General routines
     calbec       :      0.01s CPU      0.01s WALL (     199 calls)
     fft          :      0.05s CPU      0.05s WALL (     101 calls)
     ffts         :      0.01s CPU      0.01s WALL (      12 calls)
     fftw         :      0.22s CPU      0.22s WALL (    2152 calls)
     interpolate  :      0.01s CPU      0.01s WALL (      12 calls)
     davcio       :      0.00s CPU      0.00s WALL (       6 calls)

     Parallel routines
     fft_scatter  :      0.07s CPU      0.08s WALL (    2265 calls)

     PWSCF        :     0.95s CPU         0.98s WALL


   This run was terminated on:  17: 2:52  17Dec2017            

=------------------------------------------------------------------------------=
   JOB DONE.
=------------------------------------------------------------------------------=
