
     Program PWSCF v.6.1 (svn rev. 13369) starts on 17Dec2017 at 17: 3: 1 

     This program is part of the open-source Quantum ESPRESSO suite
     for quantum simulation of materials; please cite
         "P. Giannozzi et al., J. Phys.:Condens. Matter 21 395502 (2009);
          URL http://www.quantum-espresso.org", 
     in publications or presentations arising from this work. More details at
     http://www.quantum-espresso.org/quote

     Parallel version (MPI), running on     4 processors
     R & G space division:  proc/nbgrp/npool/nimage =       4
     Waiting for input...
     Reading input from standard input

     Current dimensions of program PWSCF are:
     Max number of different atomic species (ntypx) = 10
     Max number of k-points (npk) =  40000
     Max angular momentum in pseudopotentials (lmaxx) =  3

     Subspace diagonalization in iterative solution of the eigenvalue problem:
     a serial algorithm will be used


     Parallelization info
     --------------------
     sticks:   dense  smooth     PW     G-vecs:    dense   smooth      PW
     Min         293     149     45                 6424     2296     388
     Max         294     150     46                 6425     2298     389
     Sum        1175     599    181                25699     9189    1553



     bravais-lattice index     =            3
     lattice parameter (alat)  =       8.1080  a.u.
     unit-cell volume          =     266.5086 (a.u.)^3
     number of atoms/cell      =            1
     number of atomic types    =            1
     number of electrons       =         9.00
     number of Kohn-Sham states=            9
     kinetic-energy cutoff     =      40.0000  Ry
     charge density cutoff     =     320.0000  Ry
     convergence threshold     =      1.0E-08
     mixing beta               =       0.7000
     number of iterations used =            8  plain     mixing
     Exchange-correlation      = SLA  PW   PBE  PBE ( 1  4  3  4 0 0)

     celldm(1)=   8.108000  celldm(2)=   0.000000  celldm(3)=   0.000000
     celldm(4)=   0.000000  celldm(5)=   0.000000  celldm(6)=   0.000000

     crystal axes: (cart. coord. in units of alat)
               a(1) = (   0.500000   0.500000   0.500000 )  
               a(2) = (  -0.500000   0.500000   0.500000 )  
               a(3) = (  -0.500000  -0.500000   0.500000 )  

     reciprocal axes: (cart. coord. in units 2 pi/alat)
               b(1) = (  1.000000  0.000000  1.000000 )  
               b(2) = ( -1.000000  1.000000  0.000000 )  
               b(3) = (  0.000000 -1.000000  1.000000 )  


     PseudoPot. # 1 for Na read from file:
     /home/max/quantum_espresso/qe-6.1/pseudo/Na_pbe_v1.uspp.F.UPF
     MD5 check sum: 76a99c7e9422403d3e93cbc85ab7bccb
     Pseudo is Ultrasoft, Zval =  9.0
     Generated by new atomic code, or converted to UPF format
     Using radial grid of  819 points,  5 beta functions with: 
                l(1) =   0
                l(2) =   0
                l(3) =   1
                l(4) =   1
                l(5) =   2
     Q(r) pseudized with  8 coefficients,  rinner =    1.250   1.250   1.250
                                                       1.250   1.250

     atomic species   valence    mass     pseudopotential
        Na             9.00    22.99000     Na( 1.00)

     48 Sym. Ops., with inversion, found



   Cartesian axes

     site n.     atom                  positions (alat units)
         1           Na  tau(   1) = (   0.0000000   0.0000000   0.0000000  )

     number of k points=    68  Marzari-Vanderbilt smearing, width (Ry)=  0.0200
                       cart. coord. in units 2pi/alat
        k(    1) = (   0.0000000   0.0000000   0.0833333), wk =   0.0069444
        k(    2) = (   0.0000000  -0.0833333   0.1666667), wk =   0.0277778
        k(    3) = (   0.0000000  -0.1666667   0.2500000), wk =   0.0277778
        k(    4) = (   0.0000000  -0.2500000   0.3333333), wk =   0.0277778
        k(    5) = (   0.0000000  -0.3333333   0.4166667), wk =   0.0277778
        k(    6) = (   0.0000000  -0.4166667   0.5000000), wk =   0.0277778
        k(    7) = (  -0.0833333   0.0833333   0.0833333), wk =   0.0092593
        k(    8) = (  -0.0833333  -0.0833333   0.2500000), wk =   0.0277778
        k(    9) = (  -0.0833333  -0.1666667   0.3333333), wk =   0.0555556
        k(   10) = (  -0.0833333  -0.2500000   0.4166667), wk =   0.0555556
        k(   11) = (  -0.0833333  -0.3333333   0.5000000), wk =   0.0555556
        k(   12) = (  -0.0833333   0.5833333  -0.4166667), wk =   0.0277778
        k(   13) = (  -0.1666667   0.1666667   0.0833333), wk =   0.0277778
        k(   14) = (  -0.1666667  -0.1666667   0.4166667), wk =   0.0277778
        k(   15) = (  -0.1666667  -0.2500000   0.5000000), wk =   0.0555556
        k(   16) = (  -0.1666667   0.6666667  -0.4166667), wk =   0.0555556
        k(   17) = (  -0.2500000   0.2500000   0.0833333), wk =   0.0277778
        k(   18) = (  -0.2500000   0.1666667   0.1666667), wk =   0.0277778
        k(   19) = (  -0.2500000   0.7500000  -0.4166667), wk =   0.0277778
        k(   20) = (  -0.2500000   0.6666667  -0.3333333), wk =   0.0277778
        k(   21) = (  -0.3333333   0.3333333   0.0833333), wk =   0.0277778
        k(   22) = (  -0.3333333   0.2500000   0.1666667), wk =   0.0555556
        k(   23) = (  -0.4166667   0.4166667   0.0833333), wk =   0.0277778
        k(   24) = (  -0.4166667   0.3333333   0.1666667), wk =   0.0555556
        k(   25) = (  -0.4166667   0.2500000   0.2500000), wk =   0.0277778
        k(   26) = (   0.5000000  -0.5000000   0.0833333), wk =   0.0138889
        k(   27) = (   0.5000000  -0.5833333   0.1666667), wk =   0.0555556
        k(   28) = (   0.5000000  -0.6666667   0.2500000), wk =   0.0555556
        k(   29) = (   0.4166667  -0.5833333   0.2500000), wk =   0.0277778
        k(   30) = (   0.4166667  -0.6666667   0.3333333), wk =   0.0277778
        k(   31) = (   0.0000000   0.0000000   0.2500000), wk =   0.0069444
        k(   32) = (   0.0000000  -0.0833333   0.3333333), wk =   0.0277778
        k(   33) = (   0.0000000  -0.1666667   0.4166667), wk =   0.0277778
        k(   34) = (   0.0000000  -0.2500000   0.5000000), wk =   0.0277778
        k(   35) = (   0.0000000  -0.3333333   0.5833333), wk =   0.0277778
        k(   36) = (  -0.0833333  -0.0833333   0.4166667), wk =   0.0277778
        k(   37) = (  -0.0833333  -0.1666667   0.5000000), wk =   0.0555556
        k(   38) = (  -0.0833333  -0.2500000   0.5833333), wk =   0.0555556
        k(   39) = (  -0.0833333   0.6666667  -0.3333333), wk =   0.0277778
        k(   40) = (  -0.1666667  -0.1666667   0.5833333), wk =   0.0277778
        k(   41) = (  -0.1666667   0.7500000  -0.3333333), wk =   0.0555556
        k(   42) = (  -0.2500000   0.2500000   0.2500000), wk =   0.0092593
        k(   43) = (  -0.2500000   0.7500000  -0.2500000), wk =   0.0092593
        k(   44) = (  -0.3333333   0.3333333   0.2500000), wk =   0.0277778
        k(   45) = (   0.5833333  -0.5833333   0.2500000), wk =   0.0277778
        k(   46) = (   0.5833333  -0.6666667   0.3333333), wk =   0.0277778
        k(   47) = (   0.5000000  -0.5000000   0.2500000), wk =   0.0138889
        k(   48) = (   0.5000000  -0.5833333   0.3333333), wk =   0.0555556
        k(   49) = (   0.4166667  -0.5833333   0.4166667), wk =   0.0092593
        k(   50) = (   0.0000000   0.0000000   0.4166667), wk =   0.0069444
        k(   51) = (   0.0000000  -0.0833333   0.5000000), wk =   0.0277778
        k(   52) = (   0.0000000  -0.1666667   0.5833333), wk =   0.0277778
        k(   53) = (   0.0000000  -0.2500000   0.6666667), wk =   0.0277778
        k(   54) = (  -0.0833333  -0.0833333   0.5833333), wk =   0.0277778
        k(   55) = (  -0.0833333  -0.1666667   0.6666667), wk =   0.0555556
        k(   56) = (  -0.0833333   0.7500000  -0.2500000), wk =   0.0277778
        k(   57) = (  -0.1666667   0.8333333  -0.2500000), wk =   0.0277778
        k(   58) = (   0.5833333  -0.5833333   0.4166667), wk =   0.0092593
        k(   59) = (   0.5000000  -0.5000000   0.4166667), wk =   0.0138889
        k(   60) = (   0.0000000   0.0000000   0.5833333), wk =   0.0069444
        k(   61) = (   0.0000000  -0.0833333   0.6666667), wk =   0.0277778
        k(   62) = (   0.0000000  -0.1666667   0.7500000), wk =   0.0277778
        k(   63) = (  -0.0833333  -0.0833333   0.7500000), wk =   0.0277778
        k(   64) = (  -0.0833333   0.8333333  -0.1666667), wk =   0.0277778
        k(   65) = (   0.0000000   0.0000000   0.7500000), wk =   0.0069444
        k(   66) = (   0.0000000  -0.0833333   0.8333333), wk =   0.0277778
        k(   67) = (  -0.0833333   0.9166667  -0.0833333), wk =   0.0092593
        k(   68) = (   0.0000000   0.0000000   0.9166667), wk =   0.0069444

     Dense  grid:    25699 G-vectors     FFT dimensions: (  40,  40,  40)

     Smooth grid:     9189 G-vectors     FFT dimensions: (  30,  30,  30)

     Estimated max dynamical RAM per process >       6.74MB

     Estimated total allocated dynamical RAM >      26.96MB

     Initial potential from superposition of free atoms

     starting charge    8.99371, renormalised to    9.00000
     Starting wfc are    5 randomized atomic wfcs +    4 random wfc

     total cpu time spent up to now is        0.7 secs

     per-process dynamical memory:    11.1 Mb

     Self-consistent Calculation

     iteration #  1     ecut=    40.00 Ry     beta=0.70
     Davidson diagonalization with overlap
     ethr =  1.00E-02,  avg # of iterations =  5.8

     Threshold (ethr) on eigenvalues was too large:
     Diagonalizing with lowered threshold

     Davidson diagonalization with overlap
     ethr =  9.79E-06,  avg # of iterations =  5.0

     total cpu time spent up to now is        2.7 secs

     total energy              =     -95.10619076 Ry
     Harris-Foulkes estimate   =     -95.10636290 Ry
     estimated scf accuracy    <       0.00088058 Ry

     iteration #  2     ecut=    40.00 Ry     beta=0.70
     Davidson diagonalization with overlap
     ethr =  9.78E-06,  avg # of iterations =  2.0

     total cpu time spent up to now is        3.3 secs

     total energy              =     -95.10628584 Ry
     Harris-Foulkes estimate   =     -95.10630479 Ry
     estimated scf accuracy    <       0.00009637 Ry

     iteration #  3     ecut=    40.00 Ry     beta=0.70
     Davidson diagonalization with overlap
     ethr =  1.07E-06,  avg # of iterations =  2.0

     total cpu time spent up to now is        3.8 secs

     total energy              =     -95.10629777 Ry
     Harris-Foulkes estimate   =     -95.10629864 Ry
     estimated scf accuracy    <       0.00000588 Ry

     iteration #  4     ecut=    40.00 Ry     beta=0.70
     Davidson diagonalization with overlap
     ethr =  6.54E-08,  avg # of iterations =  1.0

     total cpu time spent up to now is        4.7 secs

     total energy              =     -95.10629834 Ry
     Harris-Foulkes estimate   =     -95.10629829 Ry
     estimated scf accuracy    <       0.00000002 Ry

     iteration #  5     ecut=    40.00 Ry     beta=0.70
     Davidson diagonalization with overlap
     ethr =  1.72E-10,  avg # of iterations =  3.0

     total cpu time spent up to now is        5.4 secs

     End of self-consistent calculation

          k = 0.0000 0.0000 0.0833 (  1125 PWs)   bands (ev):

   -51.7017 -23.5988 -23.5987 -23.5987  -1.7427  12.0337  12.0337  12.5943
    12.7274

          k = 0.0000-0.0833 0.1667 (  1129 PWs)   bands (ev):

   -51.7015 -23.6026 -23.6000 -23.5987  -1.5094  10.1677  11.0875  11.9051
    12.2773

          k = 0.0000-0.1667 0.2500 (  1137 PWs)   bands (ev):

   -51.7012 -23.6090 -23.6022 -23.5988  -1.0456   8.1284  10.2735  11.1866
    11.5859

          k = 0.0000-0.2500 0.3333 (  1128 PWs)   bands (ev):

   -51.7008 -23.6162 -23.6047 -23.5987  -0.3569   6.2420   9.6477  10.5917
    11.0328

          k = 0.0000-0.3333 0.4167 (  1134 PWs)   bands (ev):

   -51.7005 -23.6227 -23.6068 -23.5986   0.5484   4.5364   9.2255  10.1841
    10.6599

          k = 0.0000-0.4167 0.5000 (  1136 PWs)   bands (ev):

   -51.7003 -23.6264 -23.6081 -23.5986   1.6491   3.0356   9.0132   9.9779
    10.4733

          k =-0.0833 0.0833 0.0833 (  1124 PWs)   bands (ev):

   -51.7016 -23.6014 -23.5986 -23.5986  -1.6259  11.1273  11.1273  11.7106
    13.3620

          k =-0.0833-0.0833 0.2500 (  1133 PWs)   bands (ev):

   -51.7013 -23.6070 -23.6013 -23.5996  -1.1612   9.0365   9.5279  11.6253
    11.8055

          k =-0.0833-0.1667 0.3333 (  1128 PWs)   bands (ev):

   -51.7009 -23.6132 -23.6038 -23.5999  -0.5856   7.2581   8.6353  11.1415
    11.2962

          k =-0.0833-0.2500 0.4167 (  1137 PWs)   bands (ev):

   -51.7006 -23.6196 -23.6066 -23.6000   0.2108   5.4877   8.0901  10.6821
    10.8312

          k =-0.0833-0.3333 0.5000 (  1139 PWs)   bands (ev):

   -51.7003 -23.6243 -23.6085 -23.5999   1.2164   3.8892   7.7672  10.4028
    10.5200

          k =-0.0833 0.5833-0.4167 (  1143 PWs)   bands (ev):

   -51.7003 -23.6260 -23.6093 -23.5999   2.2438   2.6636   7.6598  10.3094
    10.4130

          k =-0.1667 0.1667 0.0833 (  1135 PWs)   bands (ev):

   -51.7014 -23.6067 -23.6004 -23.5987  -1.2770   9.1326  10.1751  10.8821
    12.8402

          k =-0.1667-0.1667 0.4167 (  1130 PWs)   bands (ev):

   -51.7006 -23.6179 -23.6065 -23.6008   0.0977   6.3685   7.0404  10.6543
    11.5287

          k =-0.1667-0.2500 0.5000 (  1135 PWs)   bands (ev):

   -51.7003 -23.6216 -23.6096 -23.6012   0.9955   4.9171   6.3731  10.2617
    11.4291

          k =-0.1667 0.6667-0.4167 (  1141 PWs)   bands (ev):

   -51.7002 -23.6237 -23.6117 -23.6013   2.0836   3.4620   6.1267  10.0606
    11.2780

          k =-0.2500 0.2500 0.0833 (  1131 PWs)   bands (ev):

   -51.7010 -23.6132 -23.6030 -23.5987  -0.7002   7.1802   9.4227  10.2251
    12.1458

          k =-0.2500 0.1667 0.1667 (  1127 PWs)   bands (ev):

   -51.7011 -23.6121 -23.6015 -23.5996  -0.8151   8.0721   8.5692   9.9525
    13.2043

          k =-0.2500 0.7500-0.4167 (  1141 PWs)   bands (ev):

   -51.7002 -23.6218 -23.6136 -23.6018   1.9829   4.3494   5.0346   9.9618
    12.0736

          k =-0.2500 0.6667-0.3333 (  1147 PWs)   bands (ev):

   -51.7001 -23.6211 -23.6160 -23.6020   2.9780   3.3731   4.7081   9.8599
    12.2276

          k =-0.3333 0.3333 0.0833 (  1131 PWs)   bands (ev):

   -51.7007 -23.6198 -23.6057 -23.5987   0.0976   5.3883   8.8828   9.7429
    11.6318

          k =-0.3333 0.2500 0.1667 (  1126 PWs)   bands (ev):

   -51.7007 -23.6175 -23.6043 -23.6000  -0.1292   6.4019   7.7608   9.3181
    12.8712

          k =-0.4167 0.4167 0.0833 (  1133 PWs)   bands (ev):

   -51.7004 -23.6247 -23.6076 -23.5987   1.1055   3.7826   8.5582   9.4488
    11.3210

          k =-0.4167 0.3333 0.1667 (  1134 PWs)   bands (ev):

   -51.7005 -23.6221 -23.6073 -23.6001   0.7723   4.7345   7.3129   8.8960
    12.5070

          k =-0.4167 0.2500 0.2500 (  1133 PWs)   bands (ev):

   -51.7005 -23.6207 -23.6072 -23.6011   0.6605   5.6211   6.2690   8.7578
    13.3503

          k = 0.5000-0.5000 0.0833 (  1132 PWs)   bands (ev):

   -51.7003 -23.6265 -23.6083 -23.5986   2.1390   2.5496   8.4499   9.3500
    11.2172

          k = 0.5000-0.5833 0.1667 (  1141 PWs)   bands (ev):

   -51.7003 -23.6246 -23.6093 -23.6002   1.8665   3.2500   7.0934   8.6841
    12.3121

          k = 0.5000-0.6667 0.2500 (  1148 PWs)   bands (ev):

   -51.7003 -23.6221 -23.6107 -23.6017   1.6562   4.2737   5.7123   8.4286
    13.3225

          k = 0.4167-0.5833 0.2500 (  1148 PWs)   bands (ev):

   -51.7003 -23.6223 -23.6122 -23.6018   2.6625   3.0946   5.5806   8.3192
    13.2556

          k = 0.4167-0.6667 0.3333 (  1147 PWs)   bands (ev):

   -51.7002 -23.6198 -23.6148 -23.6024   2.7161   3.8200   4.5022   8.2030
    14.1078

          k = 0.0000 0.0000 0.2500 (  1140 PWs)   bands (ev):

   -51.7014 -23.6035 -23.6014 -23.6014  -1.2770  10.1015  10.1015  10.3491
    11.8178

          k = 0.0000-0.0833 0.3333 (  1131 PWs)   bands (ev):

   -51.7010 -23.6089 -23.6035 -23.6017  -0.8151   8.2868   9.2931  10.0141
    11.4940

          k = 0.0000-0.1667 0.4167 (  1127 PWs)   bands (ev):

   -51.7007 -23.6157 -23.6060 -23.6015  -0.1291   6.4365   8.6825   9.5392
    11.8706

          k = 0.0000-0.2500 0.5000 (  1135 PWs)   bands (ev):

   -51.7004 -23.6219 -23.6083 -23.6014   0.7726   4.7459   8.2743   9.1462
    12.0315

          k = 0.0000-0.3333 0.5833 (  1138 PWs)   bands (ev):

   -51.7002 -23.6254 -23.6095 -23.6014   1.8675   3.2548   8.0699   8.9384
    11.8404

          k =-0.0833-0.0833 0.4167 (  1138 PWs)   bands (ev):

   -51.7007 -23.6135 -23.6061 -23.6031  -0.2429   7.3321   7.9134   9.9134
    11.0165

          k =-0.0833-0.1667 0.5000 (  1135 PWs)   bands (ev):

   -51.7004 -23.6189 -23.6088 -23.6032   0.5488   5.7699   7.1964   9.7381
    11.3125

          k =-0.0833-0.2500 0.5833 (  1136 PWs)   bands (ev):

   -51.7001 -23.6230 -23.6109 -23.6032   1.5480   4.2047   6.8547   9.4966
    11.8677

          k =-0.0833 0.6667-0.3333 (  1144 PWs)   bands (ev):

   -51.7000 -23.6246 -23.6118 -23.6032   2.5584   3.0011   6.7439   9.4051
    11.8462

          k =-0.1667-0.1667 0.5833 (  1142 PWs)   bands (ev):

   -51.7001 -23.6213 -23.6125 -23.6039   1.4390   5.0929   5.7813  10.2428
    11.1423

          k =-0.1667 0.7500-0.3333 (  1145 PWs)   bands (ev):

   -51.7000 -23.6223 -23.6151 -23.6040   2.5145   3.8629   5.3249  10.3393
    11.5900

          k =-0.2500 0.2500 0.2500 (  1127 PWs)   bands (ev):

   -51.7008 -23.6168 -23.6018 -23.6018  -0.2430   7.3218   7.3218   8.5456
    14.6650

          k =-0.2500 0.7500-0.2500 (  1129 PWs)   bands (ev):

   -51.6999 -23.6192 -23.6192 -23.6040   3.5050   3.5050   4.3855  11.2161
    11.2162

          k =-0.3333 0.3333 0.2500 (  1134 PWs)   bands (ev):

   -51.7006 -23.6204 -23.6053 -23.6020   0.5484   5.7355   6.7865   7.8199
    14.5657

          k = 0.5833-0.5833 0.2500 (  1139 PWs)   bands (ev):

   -51.7004 -23.6222 -23.6087 -23.6022   1.5466   4.1899   6.4656   7.4463
    14.2845

          k = 0.5833-0.6667 0.3333 (  1143 PWs)   bands (ev):

   -51.7004 -23.6211 -23.6079 -23.6040   1.4375   5.0887   5.6037   7.0999
    15.3356

          k = 0.5000-0.5000 0.2500 (  1150 PWs)   bands (ev):

   -51.7003 -23.6227 -23.6103 -23.6023   2.5575   2.9909   6.3588   7.3263
    14.1849

          k = 0.5000-0.5833 0.3333 (  1145 PWs)   bands (ev):

   -51.7003 -23.6199 -23.6114 -23.6045   2.5110   3.8495   5.2127   6.8224
    15.3812

          k = 0.4167-0.5833 0.4167 (  1145 PWs)   bands (ev):

   -51.7003 -23.6157 -23.6157 -23.6053   3.5030   3.5030   4.3017   6.6687
    16.2881

          k = 0.0000 0.0000 0.4167 (  1132 PWs)   bands (ev):

   -51.7007 -23.6099 -23.6058 -23.6058  -0.3569   8.4882   8.4882   8.5394
    10.2788

          k = 0.0000-0.0833 0.5000 (  1147 PWs)   bands (ev):

   -51.7004 -23.6152 -23.6085 -23.6067   0.3238   6.8015   7.8826   8.4867
    10.0745

          k = 0.0000-0.1667 0.5833 (  1146 PWs)   bands (ev):

   -51.7001 -23.6205 -23.6109 -23.6064   1.2185   5.1560   7.4789   8.2060
    10.6436

          k = 0.0000-0.2500 0.6667 (  1142 PWs)   bands (ev):

   -51.6999 -23.6237 -23.6120 -23.6062   2.3019   3.6876   7.2771   8.0162
    11.4823

          k =-0.0833-0.0833 0.5833 (  1140 PWs)   bands (ev):

   -51.7001 -23.6185 -23.6115 -23.6078   1.1078   6.0521   6.6691   8.6280
     9.7395

          k =-0.0833-0.1667 0.6667 (  1140 PWs)   bands (ev):

   -51.6998 -23.6215 -23.6140 -23.6078   2.0961   4.7055   6.1475   8.6538
    10.2020

          k =-0.0833 0.7500-0.2500 (  1146 PWs)   bands (ev):

   -51.6998 -23.6227 -23.6149 -23.6078   3.0840   3.5447   6.0215   8.6011
    10.7872

          k =-0.1667 0.8333-0.2500 (  1150 PWs)   bands (ev):

   -51.6997 -23.6210 -23.6177 -23.6081   3.1474   4.2451   4.9615   9.3856
    10.0097

          k = 0.5833-0.5833 0.4167 (  1142 PWs)   bands (ev):

   -51.7003 -23.6188 -23.6084 -23.6084   2.4121   4.7699   4.7699   6.0215
    17.1610

          k = 0.5000-0.5000 0.4167 (  1148 PWs)   bands (ev):

   -51.7003 -23.6161 -23.6121 -23.6086   3.3975   3.7521   4.6637   5.7401
    17.3234

          k = 0.0000 0.0000 0.5833 (  1148 PWs)   bands (ev):

   -51.7001 -23.6156 -23.6112 -23.6112   0.9967   7.1800   7.2811   7.2811
     8.9454

          k = 0.0000-0.0833 0.6667 (  1145 PWs)   bands (ev):

   -51.6998 -23.6190 -23.6136 -23.6120   1.8807   5.7361   6.8803   7.3791
     8.9267

          k = 0.0000-0.1667 0.7500 (  1147 PWs)   bands (ev):

   -51.6996 -23.6218 -23.6150 -23.6117   2.9480   4.3187   6.6802   7.2805
     9.5944

          k =-0.0833-0.0833 0.7500 (  1148 PWs)   bands (ev):

   -51.6996 -23.6203 -23.6165 -23.6127   2.8528   5.1993   5.8359   7.7748
     8.7097

          k =-0.0833 0.8333-0.1667 (  1142 PWs)   bands (ev):

   -51.6995 -23.6208 -23.6178 -23.6126   3.8221   4.2391   5.5453   7.9518
     8.9577

          k = 0.0000 0.0000 0.7500 (  1144 PWs)   bands (ev):

   -51.6995 -23.6184 -23.6160 -23.6160   2.7500   6.2733   6.4817   6.4817
     7.9090

          k = 0.0000-0.0833 0.8333 (  1144 PWs)   bands (ev):

   -51.6993 -23.6200 -23.6175 -23.6163   3.7971   5.1072   6.2826   6.6952
     7.9621

          k =-0.0833 0.9167-0.0833 (  1141 PWs)   bands (ev):

   -51.6993 -23.6194 -23.6194 -23.6165   4.7732   4.7732   5.5734   7.3498
     7.3498

          k = 0.0000 0.0000 0.9167 (  1156 PWs)   bands (ev):

   -51.6992 -23.6193 -23.6190 -23.6190   4.8201   5.8197   6.0841   6.0841
     6.8256

     the Fermi energy is     1.3553 ev

!    total energy              =     -95.10629837 Ry
     Harris-Foulkes estimate   =     -95.10629837 Ry
     estimated scf accuracy    <          1.7E-09 Ry

     The total energy is the sum of the following terms:

     one-electron contribution =     -89.50099863 Ry
     hartree contribution      =      45.01164208 Ry
     xc contribution           =     -14.26049541 Ry
     ewald contribution        =     -36.35642691 Ry
     smearing contrib. (-TS)   =      -0.00001951 Ry

     convergence has been achieved in   5 iterations


     Computing stress (Cartesian axis) and pressure

          total   stress  (Ry/bohr**3)                   (kbar)     P=   -6.98
  -0.00004742  -0.00000000   0.00000000         -6.98     -0.00      0.00
  -0.00000000  -0.00004742  -0.00000000         -0.00     -6.98     -0.00
   0.00000000  -0.00000000  -0.00004742          0.00     -0.00     -6.98


     Writing output data file na.bcc.save

     init_run     :      0.57s CPU      0.68s WALL (       1 calls)
     electrons    :      4.23s CPU      4.67s WALL (       1 calls)
     stress       :      0.24s CPU      0.24s WALL (       1 calls)

     Called by init_run:
     wfcinit      :      0.41s CPU      0.50s WALL (       1 calls)
     potinit      :      0.02s CPU      0.02s WALL (       1 calls)

     Called by electrons:
     c_bands      :      3.26s CPU      3.59s WALL (       6 calls)
     sum_band     :      0.79s CPU      0.89s WALL (       6 calls)
     v_of_rho     :      0.08s CPU      0.08s WALL (       6 calls)
     newd         :      0.12s CPU      0.13s WALL (       6 calls)
     mix_rho      :      0.01s CPU      0.01s WALL (       6 calls)

     Called by c_bands:
     init_us_2    :      0.11s CPU      0.11s WALL (     952 calls)
     cegterg      :      3.16s CPU      3.48s WALL (     408 calls)

     Called by sum_band:
     sum_band:bec :      0.00s CPU      0.00s WALL (     408 calls)
     addusdens    :      0.10s CPU      0.10s WALL (       6 calls)

     Called by *egterg:
     h_psi        :      2.84s CPU      3.18s WALL (    1757 calls)
     s_psi        :      0.05s CPU      0.05s WALL (    1757 calls)
     g_psi        :      0.01s CPU      0.01s WALL (    1281 calls)
     cdiaghg      :      0.28s CPU      0.30s WALL (    1621 calls)

     Called by h_psi:
     h_psi:pot    :      2.83s CPU      3.18s WALL (    1757 calls)
     h_psi:calbec :      0.09s CPU      0.09s WALL (    1757 calls)
     vloc_psi     :      2.69s CPU      3.03s WALL (    1757 calls)
     add_vuspsi   :      0.05s CPU      0.05s WALL (    1757 calls)

     General routines
     calbec       :      0.14s CPU      0.16s WALL (    2233 calls)
     fft          :      0.05s CPU      0.05s WALL (     101 calls)
     ffts         :      0.00s CPU      0.00s WALL (      12 calls)
     fftw         :      3.04s CPU      3.43s WALL (   24604 calls)
     interpolate  :      0.01s CPU      0.01s WALL (      12 calls)
     davcio       :      0.00s CPU      0.00s WALL (      68 calls)

     Parallel routines
     fft_scatter  :      1.15s CPU      1.42s WALL (   24717 calls)

     PWSCF        :     5.17s CPU         5.72s WALL


   This run was terminated on:  17: 3: 6  17Dec2017            

=------------------------------------------------------------------------------=
   JOB DONE.
=------------------------------------------------------------------------------=
