
     Program PWSCF v.6.1 (svn rev. 13369) starts on 17Dec2017 at 17: 3:59 

     This program is part of the open-source Quantum ESPRESSO suite
     for quantum simulation of materials; please cite
         "P. Giannozzi et al., J. Phys.:Condens. Matter 21 395502 (2009);
          URL http://www.quantum-espresso.org", 
     in publications or presentations arising from this work. More details at
     http://www.quantum-espresso.org/quote

     Parallel version (MPI), running on     4 processors
     R & G space division:  proc/nbgrp/npool/nimage =       4
     Waiting for input...
     Reading input from standard input

     Current dimensions of program PWSCF are:
     Max number of different atomic species (ntypx) = 10
     Max number of k-points (npk) =  40000
     Max angular momentum in pseudopotentials (lmaxx) =  3

     Subspace diagonalization in iterative solution of the eigenvalue problem:
     a serial algorithm will be used


     Parallelization info
     --------------------
     sticks:   dense  smooth     PW     G-vecs:    dense   smooth      PW
     Min         293     149     45                 6424     2296     388
     Max         294     150     46                 6425     2298     389
     Sum        1175     599    181                25699     9189    1553



     bravais-lattice index     =            3
     lattice parameter (alat)  =       8.1080  a.u.
     unit-cell volume          =     266.5086 (a.u.)^3
     number of atoms/cell      =            1
     number of atomic types    =            1
     number of electrons       =         9.00
     number of Kohn-Sham states=            9
     kinetic-energy cutoff     =      40.0000  Ry
     charge density cutoff     =     320.0000  Ry
     convergence threshold     =      1.0E-08
     mixing beta               =       0.7000
     number of iterations used =            8  plain     mixing
     Exchange-correlation      = SLA  PW   PBE  PBE ( 1  4  3  4 0 0)

     celldm(1)=   8.108000  celldm(2)=   0.000000  celldm(3)=   0.000000
     celldm(4)=   0.000000  celldm(5)=   0.000000  celldm(6)=   0.000000

     crystal axes: (cart. coord. in units of alat)
               a(1) = (   0.500000   0.500000   0.500000 )  
               a(2) = (  -0.500000   0.500000   0.500000 )  
               a(3) = (  -0.500000  -0.500000   0.500000 )  

     reciprocal axes: (cart. coord. in units 2 pi/alat)
               b(1) = (  1.000000  0.000000  1.000000 )  
               b(2) = ( -1.000000  1.000000  0.000000 )  
               b(3) = (  0.000000 -1.000000  1.000000 )  


     PseudoPot. # 1 for Na read from file:
     /home/max/quantum_espresso/qe-6.1/pseudo/Na_pbe_v1.uspp.F.UPF
     MD5 check sum: 76a99c7e9422403d3e93cbc85ab7bccb
     Pseudo is Ultrasoft, Zval =  9.0
     Generated by new atomic code, or converted to UPF format
     Using radial grid of  819 points,  5 beta functions with: 
                l(1) =   0
                l(2) =   0
                l(3) =   1
                l(4) =   1
                l(5) =   2
     Q(r) pseudized with  8 coefficients,  rinner =    1.250   1.250   1.250
                                                       1.250   1.250

     atomic species   valence    mass     pseudopotential
        Na             9.00    22.99000     Na( 1.00)

     48 Sym. Ops., with inversion, found



   Cartesian axes

     site n.     atom                  positions (alat units)
         1           Na  tau(   1) = (   0.0000000   0.0000000   0.0000000  )

     number of k points=   322  Marzari-Vanderbilt smearing, width (Ry)=  0.0200

     Number of k-points >= 100: set verbosity='high' to print them.

     Dense  grid:    25699 G-vectors     FFT dimensions: (  40,  40,  40)

     Smooth grid:     9189 G-vectors     FFT dimensions: (  30,  30,  30)

     Estimated max dynamical RAM per process >      16.65MB

     Estimated total allocated dynamical RAM >      66.59MB

     Initial potential from superposition of free atoms

     starting charge    8.99371, renormalised to    9.00000
     Starting wfc are    5 randomized atomic wfcs +    4 random wfc

     total cpu time spent up to now is        1.3 secs

     per-process dynamical memory:    21.9 Mb

     Self-consistent Calculation

     iteration #  1     ecut=    40.00 Ry     beta=0.70
     Davidson diagonalization with overlap
     ethr =  1.00E-02,  avg # of iterations =  5.8

     Threshold (ethr) on eigenvalues was too large:
     Diagonalizing with lowered threshold

     Davidson diagonalization with overlap
     ethr =  9.80E-06,  avg # of iterations =  4.9

     total cpu time spent up to now is       10.6 secs

     total energy              =     -95.10615402 Ry
     Harris-Foulkes estimate   =     -95.10632622 Ry
     estimated scf accuracy    <       0.00088089 Ry

     iteration #  2     ecut=    40.00 Ry     beta=0.70
     Davidson diagonalization with overlap
     ethr =  9.79E-06,  avg # of iterations =  2.0

     total cpu time spent up to now is       13.3 secs

     total energy              =     -95.10624932 Ry
     Harris-Foulkes estimate   =     -95.10626828 Ry
     estimated scf accuracy    <       0.00009648 Ry

     iteration #  3     ecut=    40.00 Ry     beta=0.70
     Davidson diagonalization with overlap
     ethr =  1.07E-06,  avg # of iterations =  2.2

     total cpu time spent up to now is       16.6 secs

     total energy              =     -95.10626114 Ry
     Harris-Foulkes estimate   =     -95.10626202 Ry
     estimated scf accuracy    <       0.00000590 Ry

     iteration #  4     ecut=    40.00 Ry     beta=0.70
     Davidson diagonalization with overlap
     ethr =  6.55E-08,  avg # of iterations =  1.0

     total cpu time spent up to now is       19.1 secs

     total energy              =     -95.10626171 Ry
     Harris-Foulkes estimate   =     -95.10626167 Ry
     estimated scf accuracy    <       0.00000002 Ry

     iteration #  5     ecut=    40.00 Ry     beta=0.70
     Davidson diagonalization with overlap
     ethr =  1.69E-10,  avg # of iterations =  3.0

     total cpu time spent up to now is       22.9 secs

     End of self-consistent calculation

     Number of k-points >= 100: set verbosity='high' to print the bands.

     the Fermi energy is     1.3508 ev

!    total energy              =     -95.10626175 Ry
     Harris-Foulkes estimate   =     -95.10626174 Ry
     estimated scf accuracy    <          1.7E-09 Ry

     The total energy is the sum of the following terms:

     one-electron contribution =     -89.50089973 Ry
     hartree contribution      =      45.01163166 Ry
     xc contribution           =     -14.26049720 Ry
     ewald contribution        =     -36.35642691 Ry
     smearing contrib. (-TS)   =      -0.00006956 Ry

     convergence has been achieved in   5 iterations


     Computing stress (Cartesian axis) and pressure

          total   stress  (Ry/bohr**3)                   (kbar)     P=   -6.94
  -0.00004719   0.00000000   0.00000000         -6.94      0.00      0.00
   0.00000000  -0.00004719   0.00000000          0.00     -6.94      0.00
   0.00000000   0.00000000  -0.00004719          0.00      0.00     -6.94


     Writing output data file na.bcc.save

     init_run     :      1.08s CPU      1.24s WALL (       1 calls)
     electrons    :     18.44s CPU     21.61s WALL (       1 calls)
     stress       :      0.71s CPU      0.73s WALL (       1 calls)

     Called by init_run:
     wfcinit      :      0.80s CPU      0.84s WALL (       1 calls)
     potinit      :      0.06s CPU      0.06s WALL (       1 calls)

     Called by electrons:
     c_bands      :     15.32s CPU     17.82s WALL (       6 calls)
     sum_band     :      2.94s CPU      3.60s WALL (       6 calls)
     v_of_rho     :      0.11s CPU      0.11s WALL (       6 calls)
     newd         :      0.12s CPU      0.13s WALL (       6 calls)
     mix_rho      :      0.01s CPU      0.01s WALL (       6 calls)

     Called by c_bands:
     init_us_2    :      0.48s CPU      0.53s WALL (    4508 calls)
     cegterg      :     14.81s CPU     17.23s WALL (    1932 calls)

     Called by sum_band:
     sum_band:bec :      0.01s CPU      0.01s WALL (    1932 calls)
     addusdens    :      0.10s CPU      0.11s WALL (       6 calls)

     Called by *egterg:
     h_psi        :     12.10s CPU     14.13s WALL (    8335 calls)
     s_psi        :      0.24s CPU      0.26s WALL (    8335 calls)
     g_psi        :      0.07s CPU      0.08s WALL (    6081 calls)
     cdiaghg      :      1.32s CPU      1.48s WALL (    7691 calls)

     Called by h_psi:
     h_psi:pot    :     12.06s CPU     14.08s WALL (    8335 calls)
     h_psi:calbec :      0.40s CPU      0.46s WALL (    8335 calls)
     vloc_psi     :     11.41s CPU     13.35s WALL (    8335 calls)
     add_vuspsi   :      0.24s CPU      0.26s WALL (    8335 calls)

     General routines
     calbec       :      0.57s CPU      0.66s WALL (   10589 calls)
     fft          :      0.09s CPU      0.10s WALL (     101 calls)
     ffts         :      0.00s CPU      0.00s WALL (      12 calls)
     fftw         :     12.75s CPU     15.15s WALL (  116480 calls)
     interpolate  :      0.01s CPU      0.01s WALL (      12 calls)
     davcio       :      0.00s CPU      0.01s WALL (     322 calls)

     Parallel routines
     fft_scatter  :      3.71s CPU      5.05s WALL (  116593 calls)

     PWSCF        :    20.59s CPU        23.98s WALL


   This run was terminated on:  17: 4:23  17Dec2017            

=------------------------------------------------------------------------------=
   JOB DONE.
=------------------------------------------------------------------------------=
