
     Program PWSCF v.6.1 (svn rev. 13369) starts on 17Dec2017 at 17: 2:54 

     This program is part of the open-source Quantum ESPRESSO suite
     for quantum simulation of materials; please cite
         "P. Giannozzi et al., J. Phys.:Condens. Matter 21 395502 (2009);
          URL http://www.quantum-espresso.org", 
     in publications or presentations arising from this work. More details at
     http://www.quantum-espresso.org/quote

     Parallel version (MPI), running on     4 processors
     R & G space division:  proc/nbgrp/npool/nimage =       4
     Waiting for input...
     Reading input from standard input

     Current dimensions of program PWSCF are:
     Max number of different atomic species (ntypx) = 10
     Max number of k-points (npk) =  40000
     Max angular momentum in pseudopotentials (lmaxx) =  3

     Subspace diagonalization in iterative solution of the eigenvalue problem:
     a serial algorithm will be used


     Parallelization info
     --------------------
     sticks:   dense  smooth     PW     G-vecs:    dense   smooth      PW
     Min         293     149     45                 6424     2296     388
     Max         294     150     46                 6425     2298     389
     Sum        1175     599    181                25699     9189    1553



     bravais-lattice index     =            3
     lattice parameter (alat)  =       8.1080  a.u.
     unit-cell volume          =     266.5086 (a.u.)^3
     number of atoms/cell      =            1
     number of atomic types    =            1
     number of electrons       =         9.00
     number of Kohn-Sham states=            9
     kinetic-energy cutoff     =      40.0000  Ry
     charge density cutoff     =     320.0000  Ry
     convergence threshold     =      1.0E-08
     mixing beta               =       0.7000
     number of iterations used =            8  plain     mixing
     Exchange-correlation      = SLA  PW   PBE  PBE ( 1  4  3  4 0 0)

     celldm(1)=   8.108000  celldm(2)=   0.000000  celldm(3)=   0.000000
     celldm(4)=   0.000000  celldm(5)=   0.000000  celldm(6)=   0.000000

     crystal axes: (cart. coord. in units of alat)
               a(1) = (   0.500000   0.500000   0.500000 )  
               a(2) = (  -0.500000   0.500000   0.500000 )  
               a(3) = (  -0.500000  -0.500000   0.500000 )  

     reciprocal axes: (cart. coord. in units 2 pi/alat)
               b(1) = (  1.000000  0.000000  1.000000 )  
               b(2) = ( -1.000000  1.000000  0.000000 )  
               b(3) = (  0.000000 -1.000000  1.000000 )  


     PseudoPot. # 1 for Na read from file:
     /home/max/quantum_espresso/qe-6.1/pseudo/Na_pbe_v1.uspp.F.UPF
     MD5 check sum: 76a99c7e9422403d3e93cbc85ab7bccb
     Pseudo is Ultrasoft, Zval =  9.0
     Generated by new atomic code, or converted to UPF format
     Using radial grid of  819 points,  5 beta functions with: 
                l(1) =   0
                l(2) =   0
                l(3) =   1
                l(4) =   1
                l(5) =   2
     Q(r) pseudized with  8 coefficients,  rinner =    1.250   1.250   1.250
                                                       1.250   1.250

     atomic species   valence    mass     pseudopotential
        Na             9.00    22.99000     Na( 1.00)

     48 Sym. Ops., with inversion, found



   Cartesian axes

     site n.     atom                  positions (alat units)
         1           Na  tau(   1) = (   0.0000000   0.0000000   0.0000000  )

     number of k points=    26  Marzari-Vanderbilt smearing, width (Ry)=  0.0200
                       cart. coord. in units 2pi/alat
        k(    1) = (   0.0000000   0.0000000   0.1250000), wk =   0.0234375
        k(    2) = (   0.0000000  -0.1250000   0.2500000), wk =   0.0937500
        k(    3) = (   0.0000000  -0.2500000   0.3750000), wk =   0.0937500
        k(    4) = (   0.0000000  -0.3750000   0.5000000), wk =   0.0937500
        k(    5) = (  -0.1250000   0.1250000   0.1250000), wk =   0.0312500
        k(    6) = (  -0.1250000  -0.1250000   0.3750000), wk =   0.0937500
        k(    7) = (  -0.1250000  -0.2500000   0.5000000), wk =   0.1875000
        k(    8) = (  -0.1250000   0.6250000  -0.3750000), wk =   0.0937500
        k(    9) = (  -0.2500000   0.2500000   0.1250000), wk =   0.0937500
        k(   10) = (  -0.2500000   0.7500000  -0.3750000), wk =   0.0937500
        k(   11) = (  -0.3750000   0.3750000   0.1250000), wk =   0.0937500
        k(   12) = (  -0.3750000   0.2500000   0.2500000), wk =   0.0937500
        k(   13) = (   0.5000000  -0.5000000   0.1250000), wk =   0.0468750
        k(   14) = (   0.5000000  -0.6250000   0.2500000), wk =   0.1875000
        k(   15) = (   0.3750000  -0.6250000   0.3750000), wk =   0.0312500
        k(   16) = (   0.0000000   0.0000000   0.3750000), wk =   0.0234375
        k(   17) = (   0.0000000  -0.1250000   0.5000000), wk =   0.0937500
        k(   18) = (   0.0000000  -0.2500000   0.6250000), wk =   0.0937500
        k(   19) = (  -0.1250000  -0.1250000   0.6250000), wk =   0.0937500
        k(   20) = (  -0.1250000   0.7500000  -0.2500000), wk =   0.0937500
        k(   21) = (   0.6250000  -0.6250000   0.3750000), wk =   0.0312500
        k(   22) = (   0.5000000  -0.5000000   0.3750000), wk =   0.0468750
        k(   23) = (   0.0000000   0.0000000   0.6250000), wk =   0.0234375
        k(   24) = (   0.0000000  -0.1250000   0.7500000), wk =   0.0937500
        k(   25) = (  -0.1250000   0.8750000  -0.1250000), wk =   0.0312500
        k(   26) = (   0.0000000   0.0000000   0.8750000), wk =   0.0234375

     Dense  grid:    25699 G-vectors     FFT dimensions: (  40,  40,  40)

     Smooth grid:     9189 G-vectors     FFT dimensions: (  30,  30,  30)

     Estimated max dynamical RAM per process >       5.10MB

     Estimated total allocated dynamical RAM >      20.41MB

     Initial potential from superposition of free atoms

     starting charge    8.99371, renormalised to    9.00000
     Starting wfc are    5 randomized atomic wfcs +    4 random wfc

     total cpu time spent up to now is        0.3 secs

     per-process dynamical memory:     9.4 Mb

     Self-consistent Calculation

     iteration #  1     ecut=    40.00 Ry     beta=0.70
     Davidson diagonalization with overlap
     ethr =  1.00E-02,  avg # of iterations =  5.5

     Threshold (ethr) on eigenvalues was too large:
     Diagonalizing with lowered threshold

     Davidson diagonalization with overlap
     ethr =  9.78E-06,  avg # of iterations =  5.0

     total cpu time spent up to now is        1.3 secs

     total energy              =     -95.10671706 Ry
     Harris-Foulkes estimate   =     -95.10688906 Ry
     estimated scf accuracy    <       0.00088117 Ry

     iteration #  2     ecut=    40.00 Ry     beta=0.70
     Davidson diagonalization with overlap
     ethr =  9.79E-06,  avg # of iterations =  2.0

     total cpu time spent up to now is        1.5 secs

     total energy              =     -95.10681235 Ry
     Harris-Foulkes estimate   =     -95.10683123 Ry
     estimated scf accuracy    <       0.00009643 Ry

     iteration #  3     ecut=    40.00 Ry     beta=0.70
     Davidson diagonalization with overlap
     ethr =  1.07E-06,  avg # of iterations =  2.0

     total cpu time spent up to now is        1.8 secs

     total energy              =     -95.10682403 Ry
     Harris-Foulkes estimate   =     -95.10682492 Ry
     estimated scf accuracy    <       0.00000590 Ry

     iteration #  4     ecut=    40.00 Ry     beta=0.70
     Davidson diagonalization with overlap
     ethr =  6.56E-08,  avg # of iterations =  1.0

     total cpu time spent up to now is        2.0 secs

     total energy              =     -95.10682460 Ry
     Harris-Foulkes estimate   =     -95.10682455 Ry
     estimated scf accuracy    <       0.00000001 Ry

     iteration #  5     ecut=    40.00 Ry     beta=0.70
     Davidson diagonalization with overlap
     ethr =  1.66E-10,  avg # of iterations =  3.0

     total cpu time spent up to now is        2.3 secs

     End of self-consistent calculation

          k = 0.0000 0.0000 0.1250 (  1133 PWs)   bands (ev):

   -51.7018 -23.5999 -23.5993 -23.5993  -1.6697  11.5426  11.5426  11.9957
    12.7980

          k = 0.0000-0.1250 0.2500 (  1135 PWs)   bands (ev):

   -51.7014 -23.6074 -23.6019 -23.5994  -1.1468   8.6497  10.2029  11.0840
    12.0611

          k = 0.0000-0.2500 0.3750 (  1127 PWs)   bands (ev):

   -51.7008 -23.6180 -23.6056 -23.5992  -0.1150   5.8295   9.2757  10.2186
    11.2339

          k = 0.0000-0.3750 0.5000 (  1130 PWs)   bands (ev):

   -51.7005 -23.6257 -23.6081 -23.5991   1.3939   3.4217   8.8067   9.7551
    10.8084

          k =-0.1250 0.1250 0.1250 (  1142 PWs)   bands (ev):

   -51.7016 -23.6052 -23.5993 -23.5993  -1.4076  10.0738  10.0738  10.9339
    13.5522

          k =-0.1250-0.1250 0.3750 (  1129 PWs)   bands (ev):

   -51.7009 -23.6144 -23.6050 -23.6010  -0.3712   7.2094   7.8442  11.0825
    11.3752

          k =-0.1250-0.2500 0.5000 (  1137 PWs)   bands (ev):

   -51.7005 -23.6218 -23.6093 -23.6014   0.8981   4.8479   6.8869  10.6915
    10.8314

          k =-0.1250 0.6250-0.3750 (  1154 PWs)   bands (ev):

   -51.7003 -23.6250 -23.6113 -23.6015   2.4402   2.8731   6.6310  10.4887
    10.6119

          k =-0.2500 0.2500 0.1250 (  1122 PWs)   bands (ev):

   -51.7011 -23.6140 -23.6028 -23.5993  -0.6286   7.2263   8.8679   9.7490
    12.8270

          k =-0.2500 0.7500-0.3750 (  1144 PWs)   bands (ev):

   -51.7002 -23.6217 -23.6153 -23.6024   2.3701   4.0984   4.7891  10.3333
    11.8196

          k =-0.3750 0.3750 0.1250 (  1130 PWs)   bands (ev):

   -51.7006 -23.6225 -23.6070 -23.5993   0.6464   4.6236   8.1415   9.0600
    12.1393

          k =-0.3750 0.2500 0.2500 (  1135 PWs)   bands (ev):

   -51.7007 -23.6201 -23.6058 -23.6013   0.3938   6.0062   6.6120   8.5511
    13.7282

          k = 0.5000-0.5000 0.1250 (  1140 PWs)   bands (ev):

   -51.7005 -23.6260 -23.6089 -23.5994   2.2043   2.6199   7.8992   8.8280
    11.9059

          k = 0.5000-0.6250 0.2500 (  1141 PWs)   bands (ev):

   -51.7004 -23.6224 -23.6106 -23.6020   1.8858   3.8828   5.8941   8.0422
    13.5706

          k = 0.3750-0.6250 0.3750 (  1148 PWs)   bands (ev):

   -51.7004 -23.6172 -23.6172 -23.6032   3.3849   3.3849   4.2260   7.7728
    14.9424

          k = 0.0000 0.0000 0.3750 (  1128 PWs)   bands (ev):

   -51.7010 -23.6084 -23.6046 -23.6046  -0.6285   8.8539   8.8539   8.9497
    10.6515

          k = 0.0000-0.1250 0.5000 (  1143 PWs)   bands (ev):

   -51.7005 -23.6170 -23.6086 -23.6053   0.3942   6.2681   7.9441   8.6704
    10.6091

          k = 0.0000-0.2500 0.6250 (  1142 PWs)   bands (ev):

   -51.7002 -23.6238 -23.6113 -23.6050   1.8883   3.9059   7.4889   8.2614
    11.7642

          k =-0.1250-0.1250 0.6250 (  1142 PWs)   bands (ev):

   -51.7001 -23.6207 -23.6134 -23.6070   1.6462   5.2930   5.9652   9.1537
    10.1422

          k =-0.1250 0.7500-0.2500 (  1144 PWs)   bands (ev):

   -51.6999 -23.6223 -23.6161 -23.6069   3.1497   3.5949   5.4826   9.2563
    10.8542

          k = 0.6250-0.6250 0.3750 (  1142 PWs)   bands (ev):

   -51.7005 -23.6208 -23.6066 -23.6066   1.6432   5.2867   5.2867   6.5419
    16.4765

          k = 0.5000-0.5000 0.3750 (  1144 PWs)   bands (ev):

   -51.7004 -23.6180 -23.6118 -23.6070   3.1477   3.5550   5.0473   6.0667
    16.6954

          k = 0.0000 0.0000 0.6250 (  1144 PWs)   bands (ev):

   -51.7000 -23.6166 -23.6127 -23.6127   1.3993   6.9109   7.0432   7.0432
     8.6592

          k = 0.0000-0.1250 0.7500 (  1146 PWs)   bands (ev):

   -51.6997 -23.6210 -23.6156 -23.6132   2.8643   4.8350   6.5933   7.1403
     8.9936

          k =-0.1250 0.8750-0.1250 (  1135 PWs)   bands (ev):

   -51.6995 -23.6195 -23.6195 -23.6138   4.3374   4.3374   5.2100   8.1923
     8.1923

          k = 0.0000 0.0000 0.8750 (  1148 PWs)   bands (ev):

   -51.6994 -23.6191 -23.6186 -23.6186   4.2836   5.8906   6.1461   6.1461
     7.1664

     the Fermi energy is     1.4409 ev

!    total energy              =     -95.10682463 Ry
     Harris-Foulkes estimate   =     -95.10682463 Ry
     estimated scf accuracy    <          1.8E-09 Ry

     The total energy is the sum of the following terms:

     one-electron contribution =     -89.50129559 Ry
     hartree contribution      =      45.01158731 Ry
     xc contribution           =     -14.26049758 Ry
     ewald contribution        =     -36.35642691 Ry
     smearing contrib. (-TS)   =      -0.00019186 Ry

     convergence has been achieved in   5 iterations


     Computing stress (Cartesian axis) and pressure

          total   stress  (Ry/bohr**3)                   (kbar)     P=   -7.09
  -0.00004822  -0.00000000   0.00000000         -7.09     -0.00      0.00
  -0.00000000  -0.00004822  -0.00000000         -0.00     -7.09     -0.00
   0.00000000  -0.00000000  -0.00004822          0.00     -0.00     -7.09


     Writing output data file na.bcc.save

     init_run     :      0.21s CPU      0.23s WALL (       1 calls)
     electrons    :      1.69s CPU      2.05s WALL (       1 calls)
     stress       :      0.15s CPU      0.16s WALL (       1 calls)

     Called by init_run:
     wfcinit      :      0.06s CPU      0.07s WALL (       1 calls)
     potinit      :      0.02s CPU      0.02s WALL (       1 calls)

     Called by electrons:
     c_bands      :      1.25s CPU      1.56s WALL (       6 calls)
     sum_band     :      0.29s CPU      0.32s WALL (       6 calls)
     v_of_rho     :      0.07s CPU      0.08s WALL (       6 calls)
     newd         :      0.10s CPU      0.12s WALL (       6 calls)
     mix_rho      :      0.01s CPU      0.01s WALL (       6 calls)

     Called by c_bands:
     init_us_2    :      0.04s CPU      0.05s WALL (     364 calls)
     cegterg      :      1.21s CPU      1.50s WALL (     156 calls)

     Called by sum_band:
     sum_band:bec :      0.00s CPU      0.00s WALL (     156 calls)
     addusdens    :      0.09s CPU      0.10s WALL (       6 calls)

     Called by *egterg:
     h_psi        :      0.99s CPU      1.24s WALL (     663 calls)
     s_psi        :      0.02s CPU      0.02s WALL (     663 calls)
     g_psi        :      0.01s CPU      0.01s WALL (     481 calls)
     cdiaghg      :      0.11s CPU      0.13s WALL (     611 calls)

     Called by h_psi:
     h_psi:pot    :      0.98s CPU      1.24s WALL (     663 calls)
     h_psi:calbec :      0.04s CPU      0.05s WALL (     663 calls)
     vloc_psi     :      0.93s CPU      1.16s WALL (     663 calls)
     add_vuspsi   :      0.02s CPU      0.02s WALL (     663 calls)

     General routines
     calbec       :      0.05s CPU      0.07s WALL (     845 calls)
     fft          :      0.04s CPU      0.04s WALL (     101 calls)
     ffts         :      0.00s CPU      0.00s WALL (      12 calls)
     fftw         :      0.99s CPU      1.20s WALL (    9386 calls)
     interpolate  :      0.01s CPU      0.01s WALL (      12 calls)
     davcio       :      0.00s CPU      0.00s WALL (      26 calls)

     Parallel routines
     fft_scatter  :      0.27s CPU      0.41s WALL (    9499 calls)

     PWSCF        :     2.14s CPU         2.53s WALL


   This run was terminated on:  17: 2:57  17Dec2017            

=------------------------------------------------------------------------------=
   JOB DONE.
=------------------------------------------------------------------------------=
