
     Program PHONON v.5.2.0 starts on  3Jun2016 at 15:59:34 

     This program is part of the open-source Quantum ESPRESSO suite
     for quantum simulation of materials; please cite
         "P. Giannozzi et al., J. Phys.:Condens. Matter 21 395502 (2009);
          URL http://www.quantum-espresso.org", 
     in publications or presentations arising from this work. More details at
     http://www.quantum-espresso.org/quote

     Parallel version (MPI), running on   384 processors
     K-points division:     npool     =     384

     Reading data from directory:
     ./tmp/li-fcc.save

   Info: using nr1, nr2, nr3 values from input

   Info: using nr1, nr2, nr3 values from input

     IMPORTANT: XC functional enforced from input :
     Exchange-correlation      =  SLA  PW   PBX  PBC ( 1  4  3  4 0 0)
     Any further DFT definition will be discarded
     Please, verify this is what you really want

 
     G-vector sticks info
     --------------------
     sticks:   dense  smooth     PW     G-vecs:    dense   smooth      PW
     Sum         955     475    163                19195     6735    1363
 


     Dynamical matrices for ( 8, 8, 8)  uniform grid of q-points
     (  29q-points):
       N         xq(1)         xq(2)         xq(3) 
       1   0.000000000   0.000000000   0.000000000
       2  -0.125000000   0.125000000  -0.125000000
       3  -0.250000000   0.250000000  -0.250000000
       4  -0.375000000   0.375000000  -0.375000000
       5   0.500000000  -0.500000000   0.500000000
       6   0.000000000   0.250000000   0.000000000
       7  -0.125000000   0.375000000  -0.125000000
       8  -0.250000000   0.500000000  -0.250000000
       9   0.625000000  -0.375000000   0.625000000
      10   0.500000000  -0.250000000   0.500000000
      11   0.375000000  -0.125000000   0.375000000
      12   0.250000000   0.000000000   0.250000000
      13   0.000000000   0.500000000   0.000000000
      14  -0.125000000   0.625000000  -0.125000000
      15   0.750000000  -0.250000000   0.750000000
      16   0.625000000  -0.125000000   0.625000000
      17   0.500000000   0.000000000   0.500000000
      18   0.000000000   0.750000000   0.000000000
      19   0.875000000  -0.125000000   0.875000000
      20   0.750000000   0.000000000   0.750000000
      21   0.000000000  -1.000000000   0.000000000
      22  -0.250000000   0.500000000   0.000000000
      23   0.625000000  -0.375000000   0.875000000
      24   0.500000000  -0.250000000   0.750000000
      25   0.750000000  -0.250000000   1.000000000
      26   0.625000000  -0.125000000   0.875000000
      27   0.500000000   0.000000000   0.750000000
      28  -0.250000000  -1.000000000   0.000000000
      29  -0.500000000  -1.000000000   0.000000000

     Calculation of q =    0.0000000   0.0000000   0.0000000

                                                                                

     bravais-lattice index     =            2
     lattice parameter (alat)  =       7.5481  a.u.
     unit-cell volume          =     107.5096 (a.u.)^3
     number of atoms/cell      =            1
     number of atomic types    =            1
     kinetic-energy cut-off    =      60.0000  Ry
     charge density cut-off    =     480.0000  Ry
     convergence threshold     =      1.0E-16
     beta                      =       0.7000
     number of iterations used =            4
     Exchange-correlation      =  SLA  PW   PBX  PBC ( 1  4  3  4 0 0)


     celldm(1)=    7.54807  celldm(2)=    0.00000  celldm(3)=    0.00000
     celldm(4)=    0.00000  celldm(5)=    0.00000  celldm(6)=    0.00000

     crystal axes: (cart. coord. in units of alat)
               a(1) = ( -0.5000  0.0000  0.5000 )  
               a(2) = (  0.0000  0.5000  0.5000 )  
               a(3) = ( -0.5000  0.5000  0.0000 )  

     reciprocal axes: (cart. coord. in units 2 pi/alat)
               b(1) = ( -1.0000 -1.0000  1.0000 )  
               b(2) = (  1.0000  1.0000  1.0000 )  
               b(3) = ( -1.0000  1.0000 -1.0000 )  


     Atoms inside the unit cell: 

     Cartesian axes

     site n.  atom      mass           positions (alat units)
        1     Li   6.9410   tau(    1) = (    0.00000    0.00000    0.00000  )

     Computing dynamical matrix for 
                    q = (   0.0000000   0.0000000   0.0000000 )
 
     49 Sym.Ops. (with q -> -q+G )


     G cutoff =  692.7123  (  19195 G-vectors)     FFT grid: ( 40, 40, 40)
     G cutoff =  346.3561  (   6735 G-vectors)  smooth grid: ( 27, 27, 27)

     number of k points=  2030  Marzari-Vanderbilt smearing, width (Ry)=  0.0200

     PseudoPot. # 1 for Li read from file:
     ../Li.pbe-s-gbrv14.UPF
     MD5 check sum: 7ca33c4f951f001da2db5c8738379802
     Pseudo is Ultrasoft, Zval =  3.0
     Generated by new atomic code, or converted to UPF format
     Using radial grid of  751 points,  5 beta functions with: 
                l(1) =   0
                l(2) =   0
                l(3) =   0
                l(4) =   1
                l(5) =   1
     Q(r) pseudized with 10 coefficients,  rinner =    1.150   1.150   1.150


     Mode symmetry, O_h (m-3m)  point group:


     Atomic displacements:
     There are   1 irreducible representations

     Representation     1      3 modes -T_1u G_15  G_4-  To be done



     Alpha used in Ewald sum =   2.8000
     PHONON       :    16.34s CPU        32.92s WALL



     Representation #  1 modes #   1  2  3

     Self-consistent Calculation
 
     Pert. #  1: Fermi energy shift (Ry) =     1.7233E-26     1.5673E-37
     Pert. #  2: Fermi energy shift (Ry) =    -1.7691E-25    -9.9917E-38
     Pert. #  3: Fermi energy shift (Ry) =     1.2925E-26    -1.1755E-37

      iter #   1 total cpu time :    33.8 secs   av.it.:   5.5
      thresh= 1.000E-02 alpha_mix =  0.700 |ddv_scf|^2 =  1.316E-07
 
     Pert. #  1: Fermi energy shift (Ry) =     3.4466E-25     6.1224E-41
     Pert. #  2: Fermi energy shift (Ry) =     1.8956E-25     9.9488E-41
     Pert. #  3: Fermi energy shift (Ry) =    -3.4466E-26    -1.5306E-40

      iter #   2 total cpu time :    45.5 secs   av.it.:   9.4
      thresh= 3.627E-05 alpha_mix =  0.700 |ddv_scf|^2 =  8.000E-09
 
     Pert. #  1: Fermi energy shift (Ry) =     5.1699E-26     3.0612E-41
     Pert. #  2: Fermi energy shift (Ry) =     1.0555E-25     4.9744E-41
     Pert. #  3: Fermi energy shift (Ry) =     3.4466E-26    -7.6530E-41

      iter #   3 total cpu time :    59.8 secs   av.it.:   9.6
      thresh= 8.944E-06 alpha_mix =  0.700 |ddv_scf|^2 =  3.756E-11
 
     Pert. #  1: Fermi energy shift (Ry) =     3.4466E-26    -8.6096E-42
     Pert. #  2: Fermi energy shift (Ry) =     2.3695E-26    -8.3106E-42
     Pert. #  3: Fermi energy shift (Ry) =     2.0680E-25     5.9789E-42

      iter #   4 total cpu time :    69.6 secs   av.it.:   9.1
      thresh= 6.129E-07 alpha_mix =  0.700 |ddv_scf|^2 =  1.023E-13
 
     Pert. #  1: Fermi energy shift (Ry) =    -5.1699E-26    -3.1090E-42
     Pert. #  2: Fermi energy shift (Ry) =     8.1856E-26     4.7831E-43
     Pert. #  3: Fermi energy shift (Ry) =     1.2063E-25     2.6307E-42

      iter #   5 total cpu time :    72.3 secs   av.it.:   8.3
      thresh= 3.198E-08 alpha_mix =  0.700 |ddv_scf|^2 =  2.284E-15
 
     Pert. #  1: Fermi energy shift (Ry) =     1.7233E-26    -3.1090E-42
     Pert. #  2: Fermi energy shift (Ry) =     2.1757E-25     4.7831E-43
     Pert. #  3: Fermi energy shift (Ry) =     6.8932E-26     2.6307E-42

      iter #   6 total cpu time :    73.3 secs   av.it.:   8.6
      thresh= 4.779E-09 alpha_mix =  0.700 |ddv_scf|^2 =  4.800E-19

     End of self-consistent calculation

     Convergence has been achieved 
 
     Number of q in the star =    1
     List of q in the star:
          1   0.000000000   0.000000000   0.000000000

     Diagonalizing the dynamical matrix

     q = (    0.000000000   0.000000000   0.000000000 ) 

 **************************************************************************
     freq (    1) =       0.145343 [THz] =       4.848126 [cm-1]
     freq (    2) =       0.145343 [THz] =       4.848126 [cm-1]
     freq (    3) =       0.145343 [THz] =       4.848126 [cm-1]
 **************************************************************************

     Mode symmetry, O_h (m-3m)  point group:

     freq (  1 -  3) =          4.8  [cm-1]   --> T_1u G_15  G_4- I  

     Calculation of q =   -0.1250000   0.1250000  -0.1250000
 
     G-vector sticks info
     --------------------
     sticks:   dense  smooth     PW     G-vecs:    dense   smooth      PW
     Sum         955     475    163                19195     6735    1459
 


     bravais-lattice index     =            2
     lattice parameter (alat)  =       7.5481  a.u.
     unit-cell volume          =     107.5096 (a.u.)^3
     number of atoms/cell      =            1
     number of atomic types    =            1
     number of electrons       =         3.00
     number of Kohn-Sham states=            6
     kinetic-energy cutoff     =      60.0000  Ry
     charge density cutoff     =     480.0000  Ry
     Exchange-correlation      =  SLA  PW   PBX  PBC ( 1  4  3  4 0 0)

     celldm(1)=   7.548066  celldm(2)=   0.000000  celldm(3)=   0.000000
     celldm(4)=   0.000000  celldm(5)=   0.000000  celldm(6)=   0.000000

     crystal axes: (cart. coord. in units of alat)
               a(1) = (  -0.500000   0.000000   0.500000 )  
               a(2) = (   0.000000   0.500000   0.500000 )  
               a(3) = (  -0.500000   0.500000   0.000000 )  

     reciprocal axes: (cart. coord. in units 2 pi/alat)
               b(1) = ( -1.000000 -1.000000  1.000000 )  
               b(2) = (  1.000000  1.000000  1.000000 )  
               b(3) = ( -1.000000  1.000000 -1.000000 )  


     PseudoPot. # 1 for Li read from file:
     ../Li.pbe-s-gbrv14.UPF
     MD5 check sum: 7ca33c4f951f001da2db5c8738379802
     Pseudo is Ultrasoft, Zval =  3.0
     Generated by new atomic code, or converted to UPF format
     Using radial grid of  751 points,  5 beta functions with: 
                l(1) =   0
                l(2) =   0
                l(3) =   0
                l(4) =   1
                l(5) =   1
     Q(r) pseudized with 10 coefficients,  rinner =    1.150   1.150   1.150


     atomic species   valence    mass     pseudopotential
        Li             3.00     6.94100     Li( 1.00)

     48 Sym. Ops., with inversion, found



   Cartesian axes

     site n.     atom                  positions (alat units)
         1           Li  tau(   1) = (   0.0000000   0.0000000   0.0000000  )

     number of k points= 30856  Marzari-Vanderbilt smearing, width (Ry)=  0.0200

     Number of k-points >= 100: set verbosity='high' to print them.

     Dense  grid:    19195 G-vectors     FFT dimensions: (  40,  40,  40)

     Smooth grid:     6735 G-vectors     FFT dimensions: (  27,  27,  27)

     Largest allocated arrays     est. size (Mb)     dimensions
        Kohn-Sham Wavefunctions         0.08 Mb     (     877,    6)
        NL pseudopotentials             0.12 Mb     (     877,    9)
        Each V/rho on FFT grid          0.98 Mb     (   64000)
        Each G-vector array             0.15 Mb     (   19195)
        G-vector shells                 0.00 Mb     (     234)
     Largest temporary arrays     est. size (Mb)     dimensions
        Auxiliary wavefunctions         0.32 Mb     (     877,   24)
        Each subspace H/S matrix        0.01 Mb     (      24,   24)
        Each <psi_i|beta_j> matrix      0.00 Mb     (       9,    6)

     The potential is recalculated from file :
     ./tmp/_ph0/li-fcc.save/charge-density.dat

     Starting wfc are    5 atomic +    1 random wfc

     Band Structure Calculation
     Davidson diagonalization with overlap

     ethr =  3.33E-10,  avg # of iterations = 14.9

     total cpu time spent up to now is        9.3 secs

     End of band structure calculation

     Number of k-points >= 100: set verbosity='high' to print the bands.

     the Fermi energy is     1.7700 ev

                                                                                

     bravais-lattice index     =            2
     lattice parameter (alat)  =       7.5481  a.u.
     unit-cell volume          =     107.5096 (a.u.)^3
     number of atoms/cell      =            1
     number of atomic types    =            1
     kinetic-energy cut-off    =      60.0000  Ry
     charge density cut-off    =     480.0000  Ry
     convergence threshold     =      1.0E-16
     beta                      =       0.7000
     number of iterations used =            4
     Exchange-correlation      =  SLA  PW   PBX  PBC ( 1  4  3  4 0 0)


     celldm(1)=    7.54807  celldm(2)=    0.00000  celldm(3)=    0.00000
     celldm(4)=    0.00000  celldm(5)=    0.00000  celldm(6)=    0.00000

     crystal axes: (cart. coord. in units of alat)
               a(1) = ( -0.5000  0.0000  0.5000 )  
               a(2) = (  0.0000  0.5000  0.5000 )  
               a(3) = ( -0.5000  0.5000  0.0000 )  

     reciprocal axes: (cart. coord. in units 2 pi/alat)
               b(1) = ( -1.0000 -1.0000  1.0000 )  
               b(2) = (  1.0000  1.0000  1.0000 )  
               b(3) = ( -1.0000  1.0000 -1.0000 )  


     Atoms inside the unit cell: 

     Cartesian axes

     site n.  atom      mass           positions (alat units)
        1     Li   6.9410   tau(    1) = (    0.00000    0.00000    0.00000  )

     Computing dynamical matrix for 
                    q = (  -0.1250000   0.1250000  -0.1250000 )
 
      6 Sym.Ops. (no q -> -q+G )


     G cutoff =  692.7123  (  19195 G-vectors)     FFT grid: ( 40, 40, 40)
     G cutoff =  346.3561  (   6735 G-vectors)  smooth grid: ( 27, 27, 27)

     number of k points= 30856  Marzari-Vanderbilt smearing, width (Ry)=  0.0200

     PseudoPot. # 1 for Li read from file:
     ../Li.pbe-s-gbrv14.UPF
     MD5 check sum: 7ca33c4f951f001da2db5c8738379802
     Pseudo is Ultrasoft, Zval =  3.0
     Generated by new atomic code, or converted to UPF format
     Using radial grid of  751 points,  5 beta functions with: 
                l(1) =   0
                l(2) =   0
                l(3) =   0
                l(4) =   1
                l(5) =   1
     Q(r) pseudized with 10 coefficients,  rinner =    1.150   1.150   1.150


     Mode symmetry, C_3v (3m)   point group:


     Atomic displacements:
     There are   2 irreducible representations

     Representation     1      1 modes -A_1  L_1  To be done

     Representation     2      2 modes -E    L_3  To be done



     Alpha used in Ewald sum =   2.8000
     PHONON       :  1m22.29s CPU     1m43.82s WALL



     Representation #  1 mode #   1

     Self-consistent Calculation

      iter #   1 total cpu time :   104.8 secs   av.it.:   6.5
      thresh= 1.000E-02 alpha_mix =  0.700 |ddv_scf|^2 =  1.088E-01

      iter #   2 total cpu time :   107.2 secs   av.it.:   8.0
      thresh= 1.000E-02 alpha_mix =  0.700 |ddv_scf|^2 =  9.514E+01

      iter #   3 total cpu time :   108.4 secs   av.it.:   8.0
      thresh= 1.000E-02 alpha_mix =  0.700 |ddv_scf|^2 =  7.792E-04

      iter #   4 total cpu time :   110.9 secs   av.it.:   4.9
      thresh= 2.791E-03 alpha_mix =  0.700 |ddv_scf|^2 =  3.882E-08

      iter #   5 total cpu time :   114.0 secs   av.it.:   8.3
      thresh= 1.970E-05 alpha_mix =  0.700 |ddv_scf|^2 =  4.481E-10

      iter #   6 total cpu time :   115.2 secs   av.it.:   8.7
      thresh= 2.117E-06 alpha_mix =  0.700 |ddv_scf|^2 =  6.689E-11

      iter #   7 total cpu time :   116.9 secs   av.it.:   7.5
      thresh= 8.179E-07 alpha_mix =  0.700 |ddv_scf|^2 =  8.300E-09

      iter #   8 total cpu time :   118.9 secs   av.it.:   4.9
      thresh= 9.110E-06 alpha_mix =  0.700 |ddv_scf|^2 =  4.673E-13

      iter #   9 total cpu time :   121.9 secs   av.it.:   7.2
      thresh= 6.836E-08 alpha_mix =  0.700 |ddv_scf|^2 =  1.394E-13

      iter #  10 total cpu time :   129.4 secs   av.it.:   6.8
      thresh= 3.734E-08 alpha_mix =  0.700 |ddv_scf|^2 =  1.685E-14

      iter #  11 total cpu time :   138.1 secs   av.it.:   6.5
      thresh= 1.298E-08 alpha_mix =  0.700 |ddv_scf|^2 =  5.166E-17

     End of self-consistent calculation

     Convergence has been achieved 


     Representation #  2 modes #   2  3

     Self-consistent Calculation

      iter #   1 total cpu time :   146.0 secs   av.it.:   5.6
      thresh= 1.000E-02 alpha_mix =  0.700 |ddv_scf|^2 =  2.989E-07

      iter #   2 total cpu time :   148.9 secs   av.it.:   9.4
      thresh= 5.467E-05 alpha_mix =  0.700 |ddv_scf|^2 =  1.813E-08

      iter #   3 total cpu time :   153.4 secs   av.it.:   9.5
      thresh= 1.346E-05 alpha_mix =  0.700 |ddv_scf|^2 =  9.568E-11

      iter #   4 total cpu time :   155.6 secs   av.it.:   9.0
      thresh= 9.782E-07 alpha_mix =  0.700 |ddv_scf|^2 =  2.264E-13

      iter #   5 total cpu time :   159.4 secs   av.it.:   8.7
      thresh= 4.758E-08 alpha_mix =  0.700 |ddv_scf|^2 =  4.973E-15

      iter #   6 total cpu time :   164.7 secs   av.it.:   8.6
      thresh= 7.052E-09 alpha_mix =  0.700 |ddv_scf|^2 =  1.277E-18

     End of self-consistent calculation

     Convergence has been achieved 
 
     Number of q in the star =    8
     List of q in the star:
          1  -0.125000000   0.125000000  -0.125000000
          2   0.125000000  -0.125000000  -0.125000000
          3   0.125000000  -0.125000000   0.125000000
          4  -0.125000000   0.125000000   0.125000000
          5   0.125000000   0.125000000  -0.125000000
          6  -0.125000000  -0.125000000  -0.125000000
          7  -0.125000000  -0.125000000   0.125000000
          8   0.125000000   0.125000000   0.125000000

     Diagonalizing the dynamical matrix

     q = (   -0.125000000   0.125000000  -0.125000000 ) 

 **************************************************************************
     freq (    1) =       1.475287 [THz] =      49.210271 [cm-1]
     freq (    2) =       1.475287 [THz] =      49.210271 [cm-1]
     freq (    3) =       4.450482 [THz] =     148.452096 [cm-1]
 **************************************************************************

     Mode symmetry, C_3v (3m)   point group:

     freq (  1 -  2) =         49.2  [cm-1]   --> E    L_3           
     freq (  3 -  3) =        148.5  [cm-1]   --> A_1  L_1           

     Calculation of q =   -0.2500000   0.2500000  -0.2500000
 
     G-vector sticks info
     --------------------
     sticks:   dense  smooth     PW     G-vecs:    dense   smooth      PW
     Sum         955     475    163                19195     6735    1459
 


     bravais-lattice index     =            2
     lattice parameter (alat)  =       7.5481  a.u.
     unit-cell volume          =     107.5096 (a.u.)^3
     number of atoms/cell      =            1
     number of atomic types    =            1
     number of electrons       =         3.00
     number of Kohn-Sham states=            6
     kinetic-energy cutoff     =      60.0000  Ry
     charge density cutoff     =     480.0000  Ry
     Exchange-correlation      =  SLA  PW   PBX  PBC ( 1  4  3  4 0 0)

     celldm(1)=   7.548066  celldm(2)=   0.000000  celldm(3)=   0.000000
     celldm(4)=   0.000000  celldm(5)=   0.000000  celldm(6)=   0.000000

     crystal axes: (cart. coord. in units of alat)
               a(1) = (  -0.500000   0.000000   0.500000 )  
               a(2) = (   0.000000   0.500000   0.500000 )  
               a(3) = (  -0.500000   0.500000   0.000000 )  

     reciprocal axes: (cart. coord. in units 2 pi/alat)
               b(1) = ( -1.000000 -1.000000  1.000000 )  
               b(2) = (  1.000000  1.000000  1.000000 )  
               b(3) = ( -1.000000  1.000000 -1.000000 )  


     PseudoPot. # 1 for Li read from file:
     ../Li.pbe-s-gbrv14.UPF
     MD5 check sum: 7ca33c4f951f001da2db5c8738379802
     Pseudo is Ultrasoft, Zval =  3.0
     Generated by new atomic code, or converted to UPF format
     Using radial grid of  751 points,  5 beta functions with: 
                l(1) =   0
                l(2) =   0
                l(3) =   0
                l(4) =   1
                l(5) =   1
     Q(r) pseudized with 10 coefficients,  rinner =    1.150   1.150   1.150


     atomic species   valence    mass     pseudopotential
        Li             3.00     6.94100     Li( 1.00)

     48 Sym. Ops., with inversion, found



   Cartesian axes

     site n.     atom                  positions (alat units)
         1           Li  tau(   1) = (   0.0000000   0.0000000   0.0000000  )

     number of k points= 30856  Marzari-Vanderbilt smearing, width (Ry)=  0.0200

     Number of k-points >= 100: set verbosity='high' to print them.

     Dense  grid:    19195 G-vectors     FFT dimensions: (  40,  40,  40)

     Smooth grid:     6735 G-vectors     FFT dimensions: (  27,  27,  27)

     Largest allocated arrays     est. size (Mb)     dimensions
        Kohn-Sham Wavefunctions         0.08 Mb     (     876,    6)
        NL pseudopotentials             0.12 Mb     (     876,    9)
        Each V/rho on FFT grid          0.98 Mb     (   64000)
        Each G-vector array             0.15 Mb     (   19195)
        G-vector shells                 0.00 Mb     (     234)
     Largest temporary arrays     est. size (Mb)     dimensions
        Auxiliary wavefunctions         0.32 Mb     (     876,   24)
        Each subspace H/S matrix        0.01 Mb     (      24,   24)
        Each <psi_i|beta_j> matrix      0.00 Mb     (       9,    6)

     The potential is recalculated from file :
     ./tmp/_ph0/li-fcc.save/charge-density.dat

     Starting wfc are    5 atomic +    1 random wfc

     Band Structure Calculation
     Davidson diagonalization with overlap

     ethr =  3.33E-10,  avg # of iterations = 14.9

     total cpu time spent up to now is       29.6 secs

     End of band structure calculation

     Number of k-points >= 100: set verbosity='high' to print the bands.

     the Fermi energy is     1.7700 ev

                                                                                

     bravais-lattice index     =            2
     lattice parameter (alat)  =       7.5481  a.u.
     unit-cell volume          =     107.5096 (a.u.)^3
     number of atoms/cell      =            1
     number of atomic types    =            1
     kinetic-energy cut-off    =      60.0000  Ry
     charge density cut-off    =     480.0000  Ry
     convergence threshold     =      1.0E-16
     beta                      =       0.7000
     number of iterations used =            4
     Exchange-correlation      =  SLA  PW   PBX  PBC ( 1  4  3  4 0 0)


     celldm(1)=    7.54807  celldm(2)=    0.00000  celldm(3)=    0.00000
     celldm(4)=    0.00000  celldm(5)=    0.00000  celldm(6)=    0.00000

     crystal axes: (cart. coord. in units of alat)
               a(1) = ( -0.5000  0.0000  0.5000 )  
               a(2) = (  0.0000  0.5000  0.5000 )  
               a(3) = ( -0.5000  0.5000  0.0000 )  

     reciprocal axes: (cart. coord. in units 2 pi/alat)
               b(1) = ( -1.0000 -1.0000  1.0000 )  
               b(2) = (  1.0000  1.0000  1.0000 )  
               b(3) = ( -1.0000  1.0000 -1.0000 )  


     Atoms inside the unit cell: 

     Cartesian axes

     site n.  atom      mass           positions (alat units)
        1     Li   6.9410   tau(    1) = (    0.00000    0.00000    0.00000  )

     Computing dynamical matrix for 
                    q = (  -0.2500000   0.2500000  -0.2500000 )
 
      6 Sym.Ops. (no q -> -q+G )


     G cutoff =  692.7123  (  19195 G-vectors)     FFT grid: ( 40, 40, 40)
     G cutoff =  346.3561  (   6735 G-vectors)  smooth grid: ( 27, 27, 27)

     number of k points= 30856  Marzari-Vanderbilt smearing, width (Ry)=  0.0200

     PseudoPot. # 1 for Li read from file:
     ../Li.pbe-s-gbrv14.UPF
     MD5 check sum: 7ca33c4f951f001da2db5c8738379802
     Pseudo is Ultrasoft, Zval =  3.0
     Generated by new atomic code, or converted to UPF format
     Using radial grid of  751 points,  5 beta functions with: 
                l(1) =   0
                l(2) =   0
                l(3) =   0
                l(4) =   1
                l(5) =   1
     Q(r) pseudized with 10 coefficients,  rinner =    1.150   1.150   1.150


     Mode symmetry, C_3v (3m)   point group:


     Atomic displacements:
     There are   2 irreducible representations

     Representation     1      1 modes -A_1  L_1  To be done

     Representation     2      2 modes -E    L_3  To be done



     Alpha used in Ewald sum =   2.8000
     PHONON       :  2m59.99s CPU     3m30.76s WALL



     Representation #  1 mode #   1

     Self-consistent Calculation

      iter #   1 total cpu time :   211.7 secs   av.it.:   6.5
      thresh= 1.000E-02 alpha_mix =  0.700 |ddv_scf|^2 =  1.284E-03

      iter #   2 total cpu time :   221.3 secs   av.it.:   7.8
      thresh= 3.583E-03 alpha_mix =  0.700 |ddv_scf|^2 =  4.673E-02

      iter #   3 total cpu time :   224.5 secs   av.it.:   6.5
      thresh= 1.000E-02 alpha_mix =  0.700 |ddv_scf|^2 =  8.845E-08

      iter #   4 total cpu time :   235.1 secs   av.it.:   8.9
      thresh= 2.974E-05 alpha_mix =  0.700 |ddv_scf|^2 =  4.431E-09

      iter #   5 total cpu time :   243.1 secs   av.it.:   8.9
      thresh= 6.656E-06 alpha_mix =  0.700 |ddv_scf|^2 =  1.148E-10

      iter #   6 total cpu time :   248.8 secs   av.it.:   8.1
      thresh= 1.071E-06 alpha_mix =  0.700 |ddv_scf|^2 =  2.175E-13

      iter #   7 total cpu time :   249.9 secs   av.it.:   9.6
      thresh= 4.664E-08 alpha_mix =  0.700 |ddv_scf|^2 =  1.952E-14

      iter #   8 total cpu time :   250.9 secs   av.it.:   8.5
      thresh= 1.397E-08 alpha_mix =  0.700 |ddv_scf|^2 =  9.262E-14

      iter #   9 total cpu time :   255.5 secs   av.it.:   6.3
      thresh= 3.043E-08 alpha_mix =  0.700 |ddv_scf|^2 =  1.356E-14

      iter #  10 total cpu time :   257.2 secs   av.it.:   6.7
      thresh= 1.164E-08 alpha_mix =  0.700 |ddv_scf|^2 =  5.323E-17

     End of self-consistent calculation

     Convergence has been achieved 


     Representation #  2 modes #   2  3

     Self-consistent Calculation

      iter #   1 total cpu time :   261.1 secs   av.it.:   5.6
      thresh= 1.000E-02 alpha_mix =  0.700 |ddv_scf|^2 =  3.056E-07

      iter #   2 total cpu time :   264.0 secs   av.it.:   9.5
      thresh= 5.528E-05 alpha_mix =  0.700 |ddv_scf|^2 =  1.842E-08

      iter #   3 total cpu time :   278.5 secs   av.it.:   9.6
      thresh= 1.357E-05 alpha_mix =  0.700 |ddv_scf|^2 =  1.187E-10

      iter #   4 total cpu time :   281.5 secs   av.it.:   9.1
      thresh= 1.089E-06 alpha_mix =  0.700 |ddv_scf|^2 =  2.236E-13

      iter #   5 total cpu time :   284.0 secs   av.it.:   9.0
      thresh= 4.729E-08 alpha_mix =  0.700 |ddv_scf|^2 =  4.676E-15

      iter #   6 total cpu time :   286.9 secs   av.it.:   8.2
      thresh= 6.838E-09 alpha_mix =  0.700 |ddv_scf|^2 =  1.465E-18

     End of self-consistent calculation

     Convergence has been achieved 
 
     Number of q in the star =    8
     List of q in the star:
          1  -0.250000000   0.250000000  -0.250000000
          2   0.250000000  -0.250000000  -0.250000000
          3   0.250000000  -0.250000000   0.250000000
          4  -0.250000000   0.250000000   0.250000000
          5   0.250000000   0.250000000  -0.250000000
          6  -0.250000000  -0.250000000  -0.250000000
          7  -0.250000000  -0.250000000   0.250000000
          8   0.250000000   0.250000000   0.250000000

     Diagonalizing the dynamical matrix

     q = (   -0.250000000   0.250000000  -0.250000000 ) 

 **************************************************************************
     freq (    1) =       2.760724 [THz] =      92.087828 [cm-1]
     freq (    2) =       2.760724 [THz] =      92.087828 [cm-1]
     freq (    3) =       8.862344 [THz] =     295.615960 [cm-1]
 **************************************************************************

     Mode symmetry, C_3v (3m)   point group:

     freq (  1 -  2) =         92.1  [cm-1]   --> E    L_3           
     freq (  3 -  3) =        295.6  [cm-1]   --> A_1  L_1           

     Calculation of q =   -0.3750000   0.3750000  -0.3750000
 
     G-vector sticks info
     --------------------
     sticks:   dense  smooth     PW     G-vecs:    dense   smooth      PW
     Sum         955     475    187                19195     6735    1639
 


     bravais-lattice index     =            2
     lattice parameter (alat)  =       7.5481  a.u.
     unit-cell volume          =     107.5096 (a.u.)^3
     number of atoms/cell      =            1
     number of atomic types    =            1
     number of electrons       =         3.00
     number of Kohn-Sham states=            6
     kinetic-energy cutoff     =      60.0000  Ry
     charge density cutoff     =     480.0000  Ry
     Exchange-correlation      =  SLA  PW   PBX  PBC ( 1  4  3  4 0 0)

     celldm(1)=   7.548066  celldm(2)=   0.000000  celldm(3)=   0.000000
     celldm(4)=   0.000000  celldm(5)=   0.000000  celldm(6)=   0.000000

     crystal axes: (cart. coord. in units of alat)
               a(1) = (  -0.500000   0.000000   0.500000 )  
               a(2) = (   0.000000   0.500000   0.500000 )  
               a(3) = (  -0.500000   0.500000   0.000000 )  

     reciprocal axes: (cart. coord. in units 2 pi/alat)
               b(1) = ( -1.000000 -1.000000  1.000000 )  
               b(2) = (  1.000000  1.000000  1.000000 )  
               b(3) = ( -1.000000  1.000000 -1.000000 )  


     PseudoPot. # 1 for Li read from file:
     ../Li.pbe-s-gbrv14.UPF
     MD5 check sum: 7ca33c4f951f001da2db5c8738379802
     Pseudo is Ultrasoft, Zval =  3.0
     Generated by new atomic code, or converted to UPF format
     Using radial grid of  751 points,  5 beta functions with: 
                l(1) =   0
                l(2) =   0
                l(3) =   0
                l(4) =   1
                l(5) =   1
     Q(r) pseudized with 10 coefficients,  rinner =    1.150   1.150   1.150


     atomic species   valence    mass     pseudopotential
        Li             3.00     6.94100     Li( 1.00)

     48 Sym. Ops., with inversion, found



   Cartesian axes

     site n.     atom                  positions (alat units)
         1           Li  tau(   1) = (   0.0000000   0.0000000   0.0000000  )

     number of k points= 30856  Marzari-Vanderbilt smearing, width (Ry)=  0.0200

     Number of k-points >= 100: set verbosity='high' to print them.

     Dense  grid:    19195 G-vectors     FFT dimensions: (  40,  40,  40)

     Smooth grid:     6735 G-vectors     FFT dimensions: (  27,  27,  27)

     Largest allocated arrays     est. size (Mb)     dimensions
        Kohn-Sham Wavefunctions         0.08 Mb     (     877,    6)
        NL pseudopotentials             0.12 Mb     (     877,    9)
        Each V/rho on FFT grid          0.98 Mb     (   64000)
        Each G-vector array             0.15 Mb     (   19195)
        G-vector shells                 0.00 Mb     (     234)
     Largest temporary arrays     est. size (Mb)     dimensions
        Auxiliary wavefunctions         0.32 Mb     (     877,   24)
        Each subspace H/S matrix        0.01 Mb     (      24,   24)
        Each <psi_i|beta_j> matrix      0.00 Mb     (       9,    6)

     The potential is recalculated from file :
     ./tmp/_ph0/li-fcc.save/charge-density.dat

     Starting wfc are    5 atomic +    1 random wfc

     Band Structure Calculation
     Davidson diagonalization with overlap

     ethr =  3.33E-10,  avg # of iterations = 14.9

     total cpu time spent up to now is       39.1 secs

     End of band structure calculation

     Number of k-points >= 100: set verbosity='high' to print the bands.

     the Fermi energy is     1.7700 ev

                                                                                

     bravais-lattice index     =            2
     lattice parameter (alat)  =       7.5481  a.u.
     unit-cell volume          =     107.5096 (a.u.)^3
     number of atoms/cell      =            1
     number of atomic types    =            1
     kinetic-energy cut-off    =      60.0000  Ry
     charge density cut-off    =     480.0000  Ry
     convergence threshold     =      1.0E-16
     beta                      =       0.7000
     number of iterations used =            4
     Exchange-correlation      =  SLA  PW   PBX  PBC ( 1  4  3  4 0 0)


     celldm(1)=    7.54807  celldm(2)=    0.00000  celldm(3)=    0.00000
     celldm(4)=    0.00000  celldm(5)=    0.00000  celldm(6)=    0.00000

     crystal axes: (cart. coord. in units of alat)
               a(1) = ( -0.5000  0.0000  0.5000 )  
               a(2) = (  0.0000  0.5000  0.5000 )  
               a(3) = ( -0.5000  0.5000  0.0000 )  

     reciprocal axes: (cart. coord. in units 2 pi/alat)
               b(1) = ( -1.0000 -1.0000  1.0000 )  
               b(2) = (  1.0000  1.0000  1.0000 )  
               b(3) = ( -1.0000  1.0000 -1.0000 )  


     Atoms inside the unit cell: 

     Cartesian axes

     site n.  atom      mass           positions (alat units)
        1     Li   6.9410   tau(    1) = (    0.00000    0.00000    0.00000  )

     Computing dynamical matrix for 
                    q = (  -0.3750000   0.3750000  -0.3750000 )
 
      6 Sym.Ops. (no q -> -q+G )


     G cutoff =  692.7123  (  19195 G-vectors)     FFT grid: ( 40, 40, 40)
     G cutoff =  346.3561  (   6735 G-vectors)  smooth grid: ( 27, 27, 27)

     number of k points= 30856  Marzari-Vanderbilt smearing, width (Ry)=  0.0200

     PseudoPot. # 1 for Li read from file:
     ../Li.pbe-s-gbrv14.UPF
     MD5 check sum: 7ca33c4f951f001da2db5c8738379802
     Pseudo is Ultrasoft, Zval =  3.0
     Generated by new atomic code, or converted to UPF format
     Using radial grid of  751 points,  5 beta functions with: 
                l(1) =   0
                l(2) =   0
                l(3) =   0
                l(4) =   1
                l(5) =   1
     Q(r) pseudized with 10 coefficients,  rinner =    1.150   1.150   1.150


     Mode symmetry, C_3v (3m)   point group:


     Atomic displacements:
     There are   2 irreducible representations

     Representation     1      1 modes -A_1  L_1  To be done

     Representation     2      2 modes -E    L_3  To be done



     Alpha used in Ewald sum =   2.8000
     PHONON       :  4m28.26s CPU     5m13.82s WALL



     Representation #  1 mode #   1

     Self-consistent Calculation

      iter #   1 total cpu time :   314.8 secs   av.it.:   6.5
      thresh= 1.000E-02 alpha_mix =  0.700 |ddv_scf|^2 =  8.263E-05

      iter #   2 total cpu time :   318.5 secs   av.it.:   8.5
      thresh= 9.090E-04 alpha_mix =  0.700 |ddv_scf|^2 =  3.001E-04

      iter #   3 total cpu time :   326.4 secs   av.it.:   7.0
      thresh= 1.732E-03 alpha_mix =  0.700 |ddv_scf|^2 =  6.170E-08

      iter #   4 total cpu time :   330.8 secs   av.it.:   8.7
      thresh= 2.484E-05 alpha_mix =  0.700 |ddv_scf|^2 =  3.405E-09

      iter #   5 total cpu time :   333.9 secs   av.it.:   8.8
      thresh= 5.835E-06 alpha_mix =  0.700 |ddv_scf|^2 =  3.717E-12

      iter #   6 total cpu time :   335.3 secs   av.it.:   9.1
      thresh= 1.928E-07 alpha_mix =  0.700 |ddv_scf|^2 =  2.042E-13

      iter #   7 total cpu time :   336.6 secs   av.it.:   9.0
      thresh= 4.519E-08 alpha_mix =  0.700 |ddv_scf|^2 =  9.523E-16

      iter #   8 total cpu time :   339.0 secs   av.it.:   9.5
      thresh= 3.086E-09 alpha_mix =  0.700 |ddv_scf|^2 =  5.548E-16

      iter #   9 total cpu time :   341.3 secs   av.it.:   8.5
      thresh= 2.355E-09 alpha_mix =  0.700 |ddv_scf|^2 =  6.128E-18

     End of self-consistent calculation

     Convergence has been achieved 


     Representation #  2 modes #   2  3

     Self-consistent Calculation

      iter #   1 total cpu time :   357.7 secs   av.it.:   5.6
      thresh= 1.000E-02 alpha_mix =  0.700 |ddv_scf|^2 =  3.119E-07

      iter #   2 total cpu time :   364.4 secs   av.it.:   9.6
      thresh= 5.585E-05 alpha_mix =  0.700 |ddv_scf|^2 =  1.871E-08

      iter #   3 total cpu time :   374.8 secs   av.it.:   9.7
      thresh= 1.368E-05 alpha_mix =  0.700 |ddv_scf|^2 =  1.338E-10

      iter #   4 total cpu time :   379.2 secs   av.it.:   9.1
      thresh= 1.157E-06 alpha_mix =  0.700 |ddv_scf|^2 =  2.300E-13

      iter #   5 total cpu time :   383.5 secs   av.it.:   9.1
      thresh= 4.796E-08 alpha_mix =  0.700 |ddv_scf|^2 =  4.608E-15

      iter #   6 total cpu time :   396.7 secs   av.it.:   8.2
      thresh= 6.788E-09 alpha_mix =  0.700 |ddv_scf|^2 =  1.193E-18

     End of self-consistent calculation

     Convergence has been achieved 
 
     Number of q in the star =    8
     List of q in the star:
          1  -0.375000000   0.375000000  -0.375000000
          2   0.375000000  -0.375000000  -0.375000000
          3   0.375000000  -0.375000000   0.375000000
          4  -0.375000000   0.375000000   0.375000000
          5   0.375000000   0.375000000  -0.375000000
          6  -0.375000000  -0.375000000  -0.375000000
          7  -0.375000000  -0.375000000   0.375000000
          8   0.375000000   0.375000000   0.375000000

     Diagonalizing the dynamical matrix

     q = (   -0.375000000   0.375000000  -0.375000000 ) 

 **************************************************************************
     freq (    1) =       3.770451 [THz] =     125.768708 [cm-1]
     freq (    2) =       3.770451 [THz] =     125.768708 [cm-1]
     freq (    3) =      11.742022 [THz] =     391.671685 [cm-1]
 **************************************************************************

     Mode symmetry, C_3v (3m)   point group:

     freq (  1 -  2) =        125.8  [cm-1]   --> E    L_3           
     freq (  3 -  3) =        391.7  [cm-1]   --> A_1  L_1           

     Calculation of q =    0.5000000  -0.5000000   0.5000000
 
     G-vector sticks info
     --------------------
     sticks:   dense  smooth     PW     G-vecs:    dense   smooth      PW
     Sum         955     475    187                19195     6735    1687
 


     bravais-lattice index     =            2
     lattice parameter (alat)  =       7.5481  a.u.
     unit-cell volume          =     107.5096 (a.u.)^3
     number of atoms/cell      =            1
     number of atomic types    =            1
     number of electrons       =         3.00
     number of Kohn-Sham states=            6
     kinetic-energy cutoff     =      60.0000  Ry
     charge density cutoff     =     480.0000  Ry
     Exchange-correlation      =  SLA  PW   PBX  PBC ( 1  4  3  4 0 0)

     celldm(1)=   7.548066  celldm(2)=   0.000000  celldm(3)=   0.000000
     celldm(4)=   0.000000  celldm(5)=   0.000000  celldm(6)=   0.000000

     crystal axes: (cart. coord. in units of alat)
               a(1) = (  -0.500000   0.000000   0.500000 )  
               a(2) = (   0.000000   0.500000   0.500000 )  
               a(3) = (  -0.500000   0.500000   0.000000 )  

     reciprocal axes: (cart. coord. in units 2 pi/alat)
               b(1) = ( -1.000000 -1.000000  1.000000 )  
               b(2) = (  1.000000  1.000000  1.000000 )  
               b(3) = ( -1.000000  1.000000 -1.000000 )  


     PseudoPot. # 1 for Li read from file:
     ../Li.pbe-s-gbrv14.UPF
     MD5 check sum: 7ca33c4f951f001da2db5c8738379802
     Pseudo is Ultrasoft, Zval =  3.0
     Generated by new atomic code, or converted to UPF format
     Using radial grid of  751 points,  5 beta functions with: 
                l(1) =   0
                l(2) =   0
                l(3) =   0
                l(4) =   1
                l(5) =   1
     Q(r) pseudized with 10 coefficients,  rinner =    1.150   1.150   1.150


     atomic species   valence    mass     pseudopotential
        Li             3.00     6.94100     Li( 1.00)

     48 Sym. Ops., with inversion, found



   Cartesian axes

     site n.     atom                  positions (alat units)
         1           Li  tau(   1) = (   0.0000000   0.0000000   0.0000000  )

     number of k points= 15428  Marzari-Vanderbilt smearing, width (Ry)=  0.0200

     Number of k-points >= 100: set verbosity='high' to print them.

     Dense  grid:    19195 G-vectors     FFT dimensions: (  40,  40,  40)

     Smooth grid:     6735 G-vectors     FFT dimensions: (  27,  27,  27)

     Largest allocated arrays     est. size (Mb)     dimensions
        Kohn-Sham Wavefunctions         0.08 Mb     (     876,    6)
        NL pseudopotentials             0.12 Mb     (     876,    9)
        Each V/rho on FFT grid          0.98 Mb     (   64000)
        Each G-vector array             0.15 Mb     (   19195)
        G-vector shells                 0.00 Mb     (     234)
     Largest temporary arrays     est. size (Mb)     dimensions
        Auxiliary wavefunctions         0.32 Mb     (     876,   24)
        Each subspace H/S matrix        0.01 Mb     (      24,   24)
        Each <psi_i|beta_j> matrix      0.00 Mb     (       9,    6)

     The potential is recalculated from file :
     ./tmp/_ph0/li-fcc.save/charge-density.dat

     Starting wfc are    5 atomic +    1 random wfc

     Band Structure Calculation
     Davidson diagonalization with overlap

     ethr =  3.33E-10,  avg # of iterations = 14.9

     total cpu time spent up to now is       54.6 secs

     End of band structure calculation

     Number of k-points >= 100: set verbosity='high' to print the bands.

     the Fermi energy is     1.7700 ev

                                                                                

     bravais-lattice index     =            2
     lattice parameter (alat)  =       7.5481  a.u.
     unit-cell volume          =     107.5096 (a.u.)^3
     number of atoms/cell      =            1
     number of atomic types    =            1
     kinetic-energy cut-off    =      60.0000  Ry
     charge density cut-off    =     480.0000  Ry
     convergence threshold     =      1.0E-16
     beta                      =       0.7000
     number of iterations used =            4
     Exchange-correlation      =  SLA  PW   PBX  PBC ( 1  4  3  4 0 0)


     celldm(1)=    7.54807  celldm(2)=    0.00000  celldm(3)=    0.00000
     celldm(4)=    0.00000  celldm(5)=    0.00000  celldm(6)=    0.00000

     crystal axes: (cart. coord. in units of alat)
               a(1) = ( -0.5000  0.0000  0.5000 )  
               a(2) = (  0.0000  0.5000  0.5000 )  
               a(3) = ( -0.5000  0.5000  0.0000 )  

     reciprocal axes: (cart. coord. in units 2 pi/alat)
               b(1) = ( -1.0000 -1.0000  1.0000 )  
               b(2) = (  1.0000  1.0000  1.0000 )  
               b(3) = ( -1.0000  1.0000 -1.0000 )  


     Atoms inside the unit cell: 

     Cartesian axes

     site n.  atom      mass           positions (alat units)
        1     Li   6.9410   tau(    1) = (    0.00000    0.00000    0.00000  )

     Computing dynamical matrix for 
                    q = (   0.5000000  -0.5000000   0.5000000 )
 
     13 Sym.Ops. (with q -> -q+G )


     G cutoff =  692.7123  (  19195 G-vectors)     FFT grid: ( 40, 40, 40)
     G cutoff =  346.3561  (   6735 G-vectors)  smooth grid: ( 27, 27, 27)

     number of k points= 15428  Marzari-Vanderbilt smearing, width (Ry)=  0.0200

     PseudoPot. # 1 for Li read from file:
     ../Li.pbe-s-gbrv14.UPF
     MD5 check sum: 7ca33c4f951f001da2db5c8738379802
     Pseudo is Ultrasoft, Zval =  3.0
     Generated by new atomic code, or converted to UPF format
     Using radial grid of  751 points,  5 beta functions with: 
                l(1) =   0
                l(2) =   0
                l(3) =   0
                l(4) =   1
                l(5) =   1
     Q(r) pseudized with 10 coefficients,  rinner =    1.150   1.150   1.150


     Mode symmetry, D_3d (-3m)  point group:


     Atomic displacements:
     There are   2 irreducible representations

     Representation     1      1 modes -A_2u L_2'  To be done

     Representation     2      2 modes -E_u  L_3'  To be done



     Alpha used in Ewald sum =   2.8000
     PHONON       :  6m 0.05s CPU     6m58.52s WALL



     Representation #  1 mode #   1

     Self-consistent Calculation

      iter #   1 total cpu time :   419.1 secs   av.it.:   6.5
      thresh= 1.000E-02 alpha_mix =  0.700 |ddv_scf|^2 =  2.112E-05

      iter #   2 total cpu time :   431.8 secs   av.it.:   8.7
      thresh= 4.596E-04 alpha_mix =  0.700 |ddv_scf|^2 =  8.505E-06

      iter #   3 total cpu time :   437.8 secs   av.it.:   8.0
      thresh= 2.916E-04 alpha_mix =  0.700 |ddv_scf|^2 =  2.132E-08

      iter #   4 total cpu time :   451.2 secs   av.it.:   8.8
      thresh= 1.460E-05 alpha_mix =  0.700 |ddv_scf|^2 =  1.333E-11

      iter #   5 total cpu time :   469.5 secs   av.it.:   8.1
      thresh= 3.651E-07 alpha_mix =  0.700 |ddv_scf|^2 =  8.133E-13

      iter #   6 total cpu time :   478.7 secs   av.it.:   8.5
      thresh= 9.018E-08 alpha_mix =  0.700 |ddv_scf|^2 =  2.370E-15

      iter #   7 total cpu time :   479.6 secs   av.it.:   8.8
      thresh= 4.868E-09 alpha_mix =  0.700 |ddv_scf|^2 =  1.583E-18

     End of self-consistent calculation

     Convergence has been achieved 


     Representation #  2 modes #   2  3

     Self-consistent Calculation

      iter #   1 total cpu time :   482.1 secs   av.it.:   5.6
      thresh= 1.000E-02 alpha_mix =  0.700 |ddv_scf|^2 =  3.145E-07

      iter #   2 total cpu time :   486.6 secs   av.it.:   9.3
      thresh= 5.608E-05 alpha_mix =  0.700 |ddv_scf|^2 =  1.882E-08

      iter #   3 total cpu time :   488.8 secs   av.it.:   9.6
      thresh= 1.372E-05 alpha_mix =  0.700 |ddv_scf|^2 =  1.374E-10

      iter #   4 total cpu time :   499.1 secs   av.it.:   8.9
      thresh= 1.172E-06 alpha_mix =  0.700 |ddv_scf|^2 =  2.293E-13

      iter #   5 total cpu time :   500.3 secs   av.it.:   8.9
      thresh= 4.788E-08 alpha_mix =  0.700 |ddv_scf|^2 =  4.482E-15

      iter #   6 total cpu time :   501.4 secs   av.it.:   7.9
      thresh= 6.695E-09 alpha_mix =  0.700 |ddv_scf|^2 =  9.309E-19

     End of self-consistent calculation

     Convergence has been achieved 
 
     Number of q in the star =    4
     List of q in the star:
          1   0.500000000  -0.500000000   0.500000000
          2   0.500000000   0.500000000   0.500000000
          3  -0.500000000   0.500000000   0.500000000
          4   0.500000000   0.500000000  -0.500000000

     Diagonalizing the dynamical matrix

     q = (    0.500000000  -0.500000000   0.500000000 ) 

 **************************************************************************
     freq (    1) =       4.175010 [THz] =     139.263329 [cm-1]
     freq (    2) =       4.175010 [THz] =     139.263329 [cm-1]
     freq (    3) =      12.713525 [THz] =     424.077560 [cm-1]
 **************************************************************************

     Mode symmetry, D_3d (-3m)  point group:

     freq (  1 -  2) =        139.3  [cm-1]   --> E_u  L_3'          
     freq (  3 -  3) =        424.1  [cm-1]   --> A_2u L_2'          

     Calculation of q =    0.0000000   0.2500000   0.0000000
 
     G-vector sticks info
     --------------------
     sticks:   dense  smooth     PW     G-vecs:    dense   smooth      PW
     Sum         955     475    163                19195     6735    1459
 


     bravais-lattice index     =            2
     lattice parameter (alat)  =       7.5481  a.u.
     unit-cell volume          =     107.5096 (a.u.)^3
     number of atoms/cell      =            1
     number of atomic types    =            1
     number of electrons       =         3.00
     number of Kohn-Sham states=            6
     kinetic-energy cutoff     =      60.0000  Ry
     charge density cutoff     =     480.0000  Ry
     Exchange-correlation      =  SLA  PW   PBX  PBC ( 1  4  3  4 0 0)

     celldm(1)=   7.548066  celldm(2)=   0.000000  celldm(3)=   0.000000
     celldm(4)=   0.000000  celldm(5)=   0.000000  celldm(6)=   0.000000

     crystal axes: (cart. coord. in units of alat)
               a(1) = (  -0.500000   0.000000   0.500000 )  
               a(2) = (   0.000000   0.500000   0.500000 )  
               a(3) = (  -0.500000   0.500000   0.000000 )  

     reciprocal axes: (cart. coord. in units 2 pi/alat)
               b(1) = ( -1.000000 -1.000000  1.000000 )  
               b(2) = (  1.000000  1.000000  1.000000 )  
               b(3) = ( -1.000000  1.000000 -1.000000 )  


     PseudoPot. # 1 for Li read from file:
     ../Li.pbe-s-gbrv14.UPF
     MD5 check sum: 7ca33c4f951f001da2db5c8738379802
     Pseudo is Ultrasoft, Zval =  3.0
     Generated by new atomic code, or converted to UPF format
     Using radial grid of  751 points,  5 beta functions with: 
                l(1) =   0
                l(2) =   0
                l(3) =   0
                l(4) =   1
                l(5) =   1
     Q(r) pseudized with 10 coefficients,  rinner =    1.150   1.150   1.150


     atomic species   valence    mass     pseudopotential
        Li             3.00     6.94100     Li( 1.00)

     48 Sym. Ops., with inversion, found



   Cartesian axes

     site n.     atom                  positions (alat units)
         1           Li  tau(   1) = (   0.0000000   0.0000000   0.0000000  )

     number of k points= 22736  Marzari-Vanderbilt smearing, width (Ry)=  0.0200

     Number of k-points >= 100: set verbosity='high' to print them.

     Dense  grid:    19195 G-vectors     FFT dimensions: (  40,  40,  40)

     Smooth grid:     6735 G-vectors     FFT dimensions: (  27,  27,  27)

     Largest allocated arrays     est. size (Mb)     dimensions
        Kohn-Sham Wavefunctions         0.08 Mb     (     876,    6)
        NL pseudopotentials             0.12 Mb     (     876,    9)
        Each V/rho on FFT grid          0.98 Mb     (   64000)
        Each G-vector array             0.15 Mb     (   19195)
        G-vector shells                 0.00 Mb     (     234)
     Largest temporary arrays     est. size (Mb)     dimensions
        Auxiliary wavefunctions         0.32 Mb     (     876,   24)
        Each subspace H/S matrix        0.01 Mb     (      24,   24)
        Each <psi_i|beta_j> matrix      0.00 Mb     (       9,    6)

     The potential is recalculated from file :
     ./tmp/_ph0/li-fcc.save/charge-density.dat

     Starting wfc are    5 atomic +    1 random wfc

     Band Structure Calculation
     Davidson diagonalization with overlap

     ethr =  3.33E-10,  avg # of iterations = 14.9

     total cpu time spent up to now is       61.9 secs

     End of band structure calculation

     Number of k-points >= 100: set verbosity='high' to print the bands.

     the Fermi energy is     1.7700 ev

                                                                                

     bravais-lattice index     =            2
     lattice parameter (alat)  =       7.5481  a.u.
     unit-cell volume          =     107.5096 (a.u.)^3
     number of atoms/cell      =            1
     number of atomic types    =            1
     kinetic-energy cut-off    =      60.0000  Ry
     charge density cut-off    =     480.0000  Ry
     convergence threshold     =      1.0E-16
     beta                      =       0.7000
     number of iterations used =            4
     Exchange-correlation      =  SLA  PW   PBX  PBC ( 1  4  3  4 0 0)


     celldm(1)=    7.54807  celldm(2)=    0.00000  celldm(3)=    0.00000
     celldm(4)=    0.00000  celldm(5)=    0.00000  celldm(6)=    0.00000

     crystal axes: (cart. coord. in units of alat)
               a(1) = ( -0.5000  0.0000  0.5000 )  
               a(2) = (  0.0000  0.5000  0.5000 )  
               a(3) = ( -0.5000  0.5000  0.0000 )  

     reciprocal axes: (cart. coord. in units 2 pi/alat)
               b(1) = ( -1.0000 -1.0000  1.0000 )  
               b(2) = (  1.0000  1.0000  1.0000 )  
               b(3) = ( -1.0000  1.0000 -1.0000 )  


     Atoms inside the unit cell: 

     Cartesian axes

     site n.  atom      mass           positions (alat units)
        1     Li   6.9410   tau(    1) = (    0.00000    0.00000    0.00000  )

     Computing dynamical matrix for 
                    q = (   0.0000000   0.2500000   0.0000000 )
 
      8 Sym.Ops. (no q -> -q+G )


     G cutoff =  692.7123  (  19195 G-vectors)     FFT grid: ( 40, 40, 40)
     G cutoff =  346.3561  (   6735 G-vectors)  smooth grid: ( 27, 27, 27)

     number of k points= 22736  Marzari-Vanderbilt smearing, width (Ry)=  0.0200

     PseudoPot. # 1 for Li read from file:
     ../Li.pbe-s-gbrv14.UPF
     MD5 check sum: 7ca33c4f951f001da2db5c8738379802
     Pseudo is Ultrasoft, Zval =  3.0
     Generated by new atomic code, or converted to UPF format
     Using radial grid of  751 points,  5 beta functions with: 
                l(1) =   0
                l(2) =   0
                l(3) =   0
                l(4) =   1
                l(5) =   1
     Q(r) pseudized with 10 coefficients,  rinner =    1.150   1.150   1.150


     Mode symmetry, C_4v (4mm)  point group:


     Atomic displacements:
     There are   2 irreducible representations

     Representation     1      1 modes -A_1  G_1 D_1  To be done

     Representation     2      2 modes -E    G_5 D_5  To be done



     Alpha used in Ewald sum =   2.8000
     PHONON       :  7m25.20s CPU     8m46.98s WALL



     Representation #  1 mode #   1

     Self-consistent Calculation

      iter #   1 total cpu time :   527.8 secs   av.it.:   6.5
      thresh= 1.000E-02 alpha_mix =  0.700 |ddv_scf|^2 =  4.592E-02

      iter #   2 total cpu time :   528.8 secs   av.it.:   7.9
      thresh= 1.000E-02 alpha_mix =  0.700 |ddv_scf|^2 =  2.239E+01

      iter #   3 total cpu time :   529.6 secs   av.it.:   7.8
      thresh= 1.000E-02 alpha_mix =  0.700 |ddv_scf|^2 =  9.266E-05

      iter #   4 total cpu time :   530.2 secs   av.it.:   6.0
      thresh= 9.626E-04 alpha_mix =  0.700 |ddv_scf|^2 =  3.061E-08

      iter #   5 total cpu time :   532.6 secs   av.it.:   8.5
      thresh= 1.750E-05 alpha_mix =  0.700 |ddv_scf|^2 =  1.374E-10

      iter #   6 total cpu time :   534.8 secs   av.it.:   8.5
      thresh= 1.172E-06 alpha_mix =  0.700 |ddv_scf|^2 =  1.967E-11

      iter #   7 total cpu time :   539.4 secs   av.it.:   8.0
      thresh= 4.435E-07 alpha_mix =  0.700 |ddv_scf|^2 =  1.241E-09

      iter #   8 total cpu time :   542.2 secs   av.it.:   4.8
      thresh= 3.523E-06 alpha_mix =  0.700 |ddv_scf|^2 =  7.980E-14

      iter #   9 total cpu time :   554.0 secs   av.it.:   8.1
      thresh= 2.825E-08 alpha_mix =  0.700 |ddv_scf|^2 =  2.069E-15

      iter #  10 total cpu time :   555.6 secs   av.it.:   8.2
      thresh= 4.549E-09 alpha_mix =  0.700 |ddv_scf|^2 =  1.309E-15

      iter #  11 total cpu time :   556.9 secs   av.it.:   6.0
      thresh= 3.618E-09 alpha_mix =  0.700 |ddv_scf|^2 =  2.151E-17

     End of self-consistent calculation

     Convergence has been achieved 


     Representation #  2 modes #   2  3

     Self-consistent Calculation

      iter #   1 total cpu time :   570.6 secs   av.it.:   5.6
      thresh= 1.000E-02 alpha_mix =  0.700 |ddv_scf|^2 =  3.072E-07

      iter #   2 total cpu time :   574.5 secs   av.it.:   9.4
      thresh= 5.543E-05 alpha_mix =  0.700 |ddv_scf|^2 =  1.840E-08

      iter #   3 total cpu time :   579.0 secs   av.it.:   9.5
      thresh= 1.356E-05 alpha_mix =  0.700 |ddv_scf|^2 =  1.362E-10

      iter #   4 total cpu time :   591.8 secs   av.it.:   8.8
      thresh= 1.167E-06 alpha_mix =  0.700 |ddv_scf|^2 =  2.002E-13

      iter #   5 total cpu time :   607.2 secs   av.it.:   8.8
      thresh= 4.475E-08 alpha_mix =  0.700 |ddv_scf|^2 =  4.622E-15

      iter #   6 total cpu time :   609.8 secs   av.it.:   8.4
      thresh= 6.798E-09 alpha_mix =  0.700 |ddv_scf|^2 =  1.602E-18

     End of self-consistent calculation

     Convergence has been achieved 
 
     Number of q in the star =    6
     List of q in the star:
          1   0.000000000   0.250000000   0.000000000
          2   0.000000000  -0.250000000   0.000000000
          3   0.250000000   0.000000000   0.000000000
          4   0.000000000   0.000000000   0.250000000
          5   0.000000000   0.000000000  -0.250000000
          6  -0.250000000   0.000000000   0.000000000

     Diagonalizing the dynamical matrix

     q = (    0.000000000   0.250000000   0.000000000 ) 

 **************************************************************************
     freq (    1) =       2.567129 [THz] =      85.630206 [cm-1]
     freq (    2) =       2.567129 [THz] =      85.630206 [cm-1]
     freq (    3) =       4.145792 [THz] =     138.288723 [cm-1]
 **************************************************************************

     Mode symmetry, C_4v (4mm)  point group:

     freq (  1 -  2) =         85.6  [cm-1]   --> E    G_5 D_5       
     freq (  3 -  3) =        138.3  [cm-1]   --> A_1  G_1 D_1       

     Calculation of q =   -0.1250000   0.3750000  -0.1250000
 
     G-vector sticks info
     --------------------
     sticks:   dense  smooth     PW     G-vecs:    dense   smooth      PW
     Sum         955     475    169                19195     6735    1471
 


     bravais-lattice index     =            2
     lattice parameter (alat)  =       7.5481  a.u.
     unit-cell volume          =     107.5096 (a.u.)^3
     number of atoms/cell      =            1
     number of atomic types    =            1
     number of electrons       =         3.00
     number of Kohn-Sham states=            6
     kinetic-energy cutoff     =      60.0000  Ry
     charge density cutoff     =     480.0000  Ry
     Exchange-correlation      =  SLA  PW   PBX  PBC ( 1  4  3  4 0 0)

     celldm(1)=   7.548066  celldm(2)=   0.000000  celldm(3)=   0.000000
     celldm(4)=   0.000000  celldm(5)=   0.000000  celldm(6)=   0.000000

     crystal axes: (cart. coord. in units of alat)
               a(1) = (  -0.500000   0.000000   0.500000 )  
               a(2) = (   0.000000   0.500000   0.500000 )  
               a(3) = (  -0.500000   0.500000   0.000000 )  

     reciprocal axes: (cart. coord. in units 2 pi/alat)
               b(1) = ( -1.000000 -1.000000  1.000000 )  
               b(2) = (  1.000000  1.000000  1.000000 )  
               b(3) = ( -1.000000  1.000000 -1.000000 )  


     PseudoPot. # 1 for Li read from file:
     ../Li.pbe-s-gbrv14.UPF
     MD5 check sum: 7ca33c4f951f001da2db5c8738379802
     Pseudo is Ultrasoft, Zval =  3.0
     Generated by new atomic code, or converted to UPF format
     Using radial grid of  751 points,  5 beta functions with: 
                l(1) =   0
                l(2) =   0
                l(3) =   0
                l(4) =   1
                l(5) =   1
     Q(r) pseudized with 10 coefficients,  rinner =    1.150   1.150   1.150


     atomic species   valence    mass     pseudopotential
        Li             3.00     6.94100     Li( 1.00)

     48 Sym. Ops., with inversion, found



   Cartesian axes

     site n.     atom                  positions (alat units)
         1           Li  tau(   1) = (   0.0000000   0.0000000   0.0000000  )

     number of k points= 89376  Marzari-Vanderbilt smearing, width (Ry)=  0.0200

     Number of k-points >= 100: set verbosity='high' to print them.

     Dense  grid:    19195 G-vectors     FFT dimensions: (  40,  40,  40)

     Smooth grid:     6735 G-vectors     FFT dimensions: (  27,  27,  27)

     Largest allocated arrays     est. size (Mb)     dimensions
        Kohn-Sham Wavefunctions         0.08 Mb     (     877,    6)
        NL pseudopotentials             0.12 Mb     (     877,    9)
        Each V/rho on FFT grid          0.98 Mb     (   64000)
        Each G-vector array             0.15 Mb     (   19195)
        G-vector shells                 0.00 Mb     (     234)
     Largest temporary arrays     est. size (Mb)     dimensions
        Auxiliary wavefunctions         0.32 Mb     (     877,   24)
        Each subspace H/S matrix        0.01 Mb     (      24,   24)
        Each <psi_i|beta_j> matrix      0.00 Mb     (       9,    6)

     The potential is recalculated from file :
     ./tmp/_ph0/li-fcc.save/charge-density.dat

     Starting wfc are    5 atomic +    1 random wfc

     Band Structure Calculation
     Davidson diagonalization with overlap

     ethr =  3.33E-10,  avg # of iterations = 14.8

     total cpu time spent up to now is       86.4 secs

     End of band structure calculation

     Number of k-points >= 100: set verbosity='high' to print the bands.

     the Fermi energy is     1.7700 ev

                                                                                

     bravais-lattice index     =            2
     lattice parameter (alat)  =       7.5481  a.u.
     unit-cell volume          =     107.5096 (a.u.)^3
     number of atoms/cell      =            1
     number of atomic types    =            1
     kinetic-energy cut-off    =      60.0000  Ry
     charge density cut-off    =     480.0000  Ry
     convergence threshold     =      1.0E-16
     beta                      =       0.7000
     number of iterations used =            4
     Exchange-correlation      =  SLA  PW   PBX  PBC ( 1  4  3  4 0 0)


     celldm(1)=    7.54807  celldm(2)=    0.00000  celldm(3)=    0.00000
     celldm(4)=    0.00000  celldm(5)=    0.00000  celldm(6)=    0.00000

     crystal axes: (cart. coord. in units of alat)
               a(1) = ( -0.5000  0.0000  0.5000 )  
               a(2) = (  0.0000  0.5000  0.5000 )  
               a(3) = ( -0.5000  0.5000  0.0000 )  

     reciprocal axes: (cart. coord. in units 2 pi/alat)
               b(1) = ( -1.0000 -1.0000  1.0000 )  
               b(2) = (  1.0000  1.0000  1.0000 )  
               b(3) = ( -1.0000  1.0000 -1.0000 )  


     Atoms inside the unit cell: 

     Cartesian axes

     site n.  atom      mass           positions (alat units)
        1     Li   6.9410   tau(    1) = (    0.00000    0.00000    0.00000  )

     Computing dynamical matrix for 
                    q = (  -0.1250000   0.3750000  -0.1250000 )
 
      2 Sym.Ops. (no q -> -q+G )


     G cutoff =  692.7123  (  19195 G-vectors)     FFT grid: ( 40, 40, 40)
     G cutoff =  346.3561  (   6735 G-vectors)  smooth grid: ( 27, 27, 27)

     number of k points= 89376  Marzari-Vanderbilt smearing, width (Ry)=  0.0200

     PseudoPot. # 1 for Li read from file:
     ../Li.pbe-s-gbrv14.UPF
     MD5 check sum: 7ca33c4f951f001da2db5c8738379802
     Pseudo is Ultrasoft, Zval =  3.0
     Generated by new atomic code, or converted to UPF format
     Using radial grid of  751 points,  5 beta functions with: 
                l(1) =   0
                l(2) =   0
                l(3) =   0
                l(4) =   1
                l(5) =   1
     Q(r) pseudized with 10 coefficients,  rinner =    1.150   1.150   1.150


     Mode symmetry, C_s (m)     point group:


     Atomic displacements:
     There are   3 irreducible representations

     Representation     1      1 modes -A'  To be done

     Representation     2      1 modes -A'  To be done

     Representation     3      1 modes -A''  To be done



     Alpha used in Ewald sum =   2.8000
     PHONON       :  9m18.31s CPU    10m48.99s WALL



     Representation #  1 mode #   1

     Self-consistent Calculation

      iter #   1 total cpu time :   651.7 secs   av.it.:   6.5
      thresh= 1.000E-02 alpha_mix =  0.700 |ddv_scf|^2 =  1.514E-03

      iter #   2 total cpu time :   658.0 secs   av.it.:   7.8
      thresh= 3.891E-03 alpha_mix =  0.700 |ddv_scf|^2 =  6.980E-02

      iter #   3 total cpu time :   668.5 secs   av.it.:   6.5
      thresh= 1.000E-02 alpha_mix =  0.700 |ddv_scf|^2 =  9.880E-08

      iter #   4 total cpu time :   679.0 secs   av.it.:   9.0
      thresh= 3.143E-05 alpha_mix =  0.700 |ddv_scf|^2 =  6.282E-09

      iter #   5 total cpu time :   689.2 secs   av.it.:   8.9
      thresh= 7.926E-06 alpha_mix =  0.700 |ddv_scf|^2 =  9.981E-11

      iter #   6 total cpu time :   695.0 secs   av.it.:   8.6
      thresh= 9.990E-07 alpha_mix =  0.700 |ddv_scf|^2 =  4.948E-13

      iter #   7 total cpu time :   711.7 secs   av.it.:   9.1
      thresh= 7.034E-08 alpha_mix =  0.700 |ddv_scf|^2 =  8.021E-12

      iter #   8 total cpu time :   714.9 secs   av.it.:   6.2
      thresh= 2.832E-07 alpha_mix =  0.700 |ddv_scf|^2 =  4.738E-14

      iter #   9 total cpu time :   718.6 secs   av.it.:   8.8
      thresh= 2.177E-08 alpha_mix =  0.700 |ddv_scf|^2 =  2.267E-15

      iter #  10 total cpu time :   725.4 secs   av.it.:   7.1
      thresh= 4.761E-09 alpha_mix =  0.700 |ddv_scf|^2 =  4.546E-15

      iter #  11 total cpu time :   737.1 secs   av.it.:   6.8
      thresh= 6.742E-09 alpha_mix =  0.700 |ddv_scf|^2 =  3.950E-18

     End of self-consistent calculation

     Convergence has been achieved 


     Representation #  2 mode #   2

     Self-consistent Calculation

      iter #   1 total cpu time :   749.0 secs   av.it.:   6.3
      thresh= 1.000E-02 alpha_mix =  0.700 |ddv_scf|^2 =  2.298E-04

      iter #   2 total cpu time :   757.5 secs   av.it.:   7.9
      thresh= 1.516E-03 alpha_mix =  0.700 |ddv_scf|^2 =  1.054E-02

      iter #   3 total cpu time :   777.2 secs   av.it.:   5.7
      thresh= 1.000E-02 alpha_mix =  0.700 |ddv_scf|^2 =  6.111E-08

      iter #   4 total cpu time :   798.8 secs   av.it.:   9.2
      thresh= 2.472E-05 alpha_mix =  0.700 |ddv_scf|^2 =  3.302E-09

      iter #   5 total cpu time :   804.1 secs   av.it.:   9.0
      thresh= 5.747E-06 alpha_mix =  0.700 |ddv_scf|^2 =  5.236E-11

      iter #   6 total cpu time :   808.5 secs   av.it.:   8.8
      thresh= 7.236E-07 alpha_mix =  0.700 |ddv_scf|^2 =  1.476E-11

      iter #   7 total cpu time :   812.1 secs   av.it.:   6.6
      thresh= 3.842E-07 alpha_mix =  0.700 |ddv_scf|^2 =  1.119E-11

      iter #   8 total cpu time :   825.0 secs   av.it.:   7.0
      thresh= 3.346E-07 alpha_mix =  0.700 |ddv_scf|^2 =  1.048E-12

      iter #   9 total cpu time :   830.6 secs   av.it.:   6.6
      thresh= 1.024E-07 alpha_mix =  0.700 |ddv_scf|^2 =  2.350E-13

      iter #  10 total cpu time :   834.3 secs   av.it.:   7.7
      thresh= 4.847E-08 alpha_mix =  0.700 |ddv_scf|^2 =  1.252E-16

      iter #  11 total cpu time :   858.4 secs   av.it.:   9.0
      thresh= 1.119E-09 alpha_mix =  0.700 |ddv_scf|^2 =  9.111E-18

     End of self-consistent calculation

     Convergence has been achieved 


     Representation #  3 mode #   3

     Self-consistent Calculation

      iter #   1 total cpu time :   867.1 secs   av.it.:   5.6
      thresh= 1.000E-02 alpha_mix =  0.700 |ddv_scf|^2 =  1.275E-06

      iter #   2 total cpu time :   878.9 secs   av.it.:   8.6
      thresh= 1.129E-04 alpha_mix =  0.700 |ddv_scf|^2 =  7.518E-08

      iter #   3 total cpu time :   885.0 secs   av.it.:   8.9
      thresh= 2.742E-05 alpha_mix =  0.700 |ddv_scf|^2 =  7.714E-10

      iter #   4 total cpu time :   894.2 secs   av.it.:   8.2
      thresh= 2.777E-06 alpha_mix =  0.700 |ddv_scf|^2 =  8.178E-13

      iter #   5 total cpu time :   896.9 secs   av.it.:   8.3
      thresh= 9.043E-08 alpha_mix =  0.700 |ddv_scf|^2 =  1.900E-14

      iter #   6 total cpu time :   900.6 secs   av.it.:   7.7
      thresh= 1.378E-08 alpha_mix =  0.700 |ddv_scf|^2 =  1.132E-17

     End of self-consistent calculation

     Convergence has been achieved 
 
     Number of q in the star =   24
     List of q in the star:
          1  -0.125000000   0.375000000  -0.125000000
          2  -0.125000000   0.375000000   0.125000000
          3   0.125000000   0.375000000  -0.125000000
          4   0.125000000   0.375000000   0.125000000
          5   0.125000000  -0.375000000   0.125000000
          6   0.375000000  -0.125000000   0.125000000
          7   0.125000000  -0.125000000   0.375000000
          8  -0.125000000  -0.375000000  -0.125000000
          9   0.125000000  -0.375000000  -0.125000000
         10  -0.125000000  -0.375000000   0.125000000
         11   0.125000000  -0.125000000  -0.375000000
         12   0.375000000  -0.125000000  -0.125000000
         13  -0.375000000  -0.125000000   0.125000000
         14   0.375000000   0.125000000   0.125000000
         15  -0.125000000  -0.125000000   0.375000000
         16   0.125000000   0.125000000   0.375000000
         17  -0.375000000   0.125000000  -0.125000000
         18  -0.125000000   0.125000000  -0.375000000
         19  -0.375000000  -0.125000000  -0.125000000
         20   0.125000000   0.125000000  -0.375000000
         21   0.375000000   0.125000000  -0.125000000
         22  -0.125000000  -0.125000000  -0.375000000
         23  -0.375000000   0.125000000   0.125000000
         24  -0.125000000   0.125000000   0.375000000

     Diagonalizing the dynamical matrix

     q = (   -0.125000000   0.375000000  -0.125000000 ) 

 **************************************************************************
     freq (    1) =       3.735052 [THz] =     124.587923 [cm-1]
     freq (    2) =       4.030158 [THz] =     134.431615 [cm-1]
     freq (    3) =       7.598095 [THz] =     253.445161 [cm-1]
 **************************************************************************

     Mode symmetry, C_s (m)     point group:

     freq (  1 -  1) =        124.6  [cm-1]   --> A''                
     freq (  2 -  2) =        134.4  [cm-1]   --> A'                 
     freq (  3 -  3) =        253.4  [cm-1]   --> A'                 

     Calculation of q =   -0.2500000   0.5000000  -0.2500000
 
     G-vector sticks info
     --------------------
     sticks:   dense  smooth     PW     G-vecs:    dense   smooth      PW
     Sum         955     475    187                19195     6735    1639
 


     bravais-lattice index     =            2
     lattice parameter (alat)  =       7.5481  a.u.
     unit-cell volume          =     107.5096 (a.u.)^3
     number of atoms/cell      =            1
     number of atomic types    =            1
     number of electrons       =         3.00
     number of Kohn-Sham states=            6
     kinetic-energy cutoff     =      60.0000  Ry
     charge density cutoff     =     480.0000  Ry
     Exchange-correlation      =  SLA  PW   PBX  PBC ( 1  4  3  4 0 0)

     celldm(1)=   7.548066  celldm(2)=   0.000000  celldm(3)=   0.000000
     celldm(4)=   0.000000  celldm(5)=   0.000000  celldm(6)=   0.000000

     crystal axes: (cart. coord. in units of alat)
               a(1) = (  -0.500000   0.000000   0.500000 )  
               a(2) = (   0.000000   0.500000   0.500000 )  
               a(3) = (  -0.500000   0.500000   0.000000 )  

     reciprocal axes: (cart. coord. in units 2 pi/alat)
               b(1) = ( -1.000000 -1.000000  1.000000 )  
               b(2) = (  1.000000  1.000000  1.000000 )  
               b(3) = ( -1.000000  1.000000 -1.000000 )  


     PseudoPot. # 1 for Li read from file:
     ../Li.pbe-s-gbrv14.UPF
     MD5 check sum: 7ca33c4f951f001da2db5c8738379802
     Pseudo is Ultrasoft, Zval =  3.0
     Generated by new atomic code, or converted to UPF format
     Using radial grid of  751 points,  5 beta functions with: 
                l(1) =   0
                l(2) =   0
                l(3) =   0
                l(4) =   1
                l(5) =   1
     Q(r) pseudized with 10 coefficients,  rinner =    1.150   1.150   1.150


     atomic species   valence    mass     pseudopotential
        Li             3.00     6.94100     Li( 1.00)

     48 Sym. Ops., with inversion, found



   Cartesian axes

     site n.     atom                  positions (alat units)
         1           Li  tau(   1) = (   0.0000000   0.0000000   0.0000000  )

     number of k points= 89376  Marzari-Vanderbilt smearing, width (Ry)=  0.0200

     Number of k-points >= 100: set verbosity='high' to print them.

     Dense  grid:    19195 G-vectors     FFT dimensions: (  40,  40,  40)

     Smooth grid:     6735 G-vectors     FFT dimensions: (  27,  27,  27)

     Largest allocated arrays     est. size (Mb)     dimensions
        Kohn-Sham Wavefunctions         0.08 Mb     (     876,    6)
        NL pseudopotentials             0.12 Mb     (     876,    9)
        Each V/rho on FFT grid          0.98 Mb     (   64000)
        Each G-vector array             0.15 Mb     (   19195)
        G-vector shells                 0.00 Mb     (     234)
     Largest temporary arrays     est. size (Mb)     dimensions
        Auxiliary wavefunctions         0.32 Mb     (     876,   24)
        Each subspace H/S matrix        0.01 Mb     (      24,   24)
        Each <psi_i|beta_j> matrix      0.00 Mb     (       9,    6)

     The potential is recalculated from file :
     ./tmp/_ph0/li-fcc.save/charge-density.dat

     Starting wfc are    5 atomic +    1 random wfc

     Band Structure Calculation
     Davidson diagonalization with overlap

     ethr =  3.33E-10,  avg # of iterations = 14.8

     total cpu time spent up to now is      123.5 secs

     End of band structure calculation

     Number of k-points >= 100: set verbosity='high' to print the bands.

     the Fermi energy is     1.7700 ev

                                                                                

     bravais-lattice index     =            2
     lattice parameter (alat)  =       7.5481  a.u.
     unit-cell volume          =     107.5096 (a.u.)^3
     number of atoms/cell      =            1
     number of atomic types    =            1
     kinetic-energy cut-off    =      60.0000  Ry
     charge density cut-off    =     480.0000  Ry
     convergence threshold     =      1.0E-16
     beta                      =       0.7000
     number of iterations used =            4
     Exchange-correlation      =  SLA  PW   PBX  PBC ( 1  4  3  4 0 0)


     celldm(1)=    7.54807  celldm(2)=    0.00000  celldm(3)=    0.00000
     celldm(4)=    0.00000  celldm(5)=    0.00000  celldm(6)=    0.00000

     crystal axes: (cart. coord. in units of alat)
               a(1) = ( -0.5000  0.0000  0.5000 )  
               a(2) = (  0.0000  0.5000  0.5000 )  
               a(3) = ( -0.5000  0.5000  0.0000 )  

     reciprocal axes: (cart. coord. in units 2 pi/alat)
               b(1) = ( -1.0000 -1.0000  1.0000 )  
               b(2) = (  1.0000  1.0000  1.0000 )  
               b(3) = ( -1.0000  1.0000 -1.0000 )  


     Atoms inside the unit cell: 

     Cartesian axes

     site n.  atom      mass           positions (alat units)
        1     Li   6.9410   tau(    1) = (    0.00000    0.00000    0.00000  )

     Computing dynamical matrix for 
                    q = (  -0.2500000   0.5000000  -0.2500000 )
 
      2 Sym.Ops. (no q -> -q+G )


     G cutoff =  692.7123  (  19195 G-vectors)     FFT grid: ( 40, 40, 40)
     G cutoff =  346.3561  (   6735 G-vectors)  smooth grid: ( 27, 27, 27)

     number of k points= 89376  Marzari-Vanderbilt smearing, width (Ry)=  0.0200

     PseudoPot. # 1 for Li read from file:
     ../Li.pbe-s-gbrv14.UPF
     MD5 check sum: 7ca33c4f951f001da2db5c8738379802
     Pseudo is Ultrasoft, Zval =  3.0
     Generated by new atomic code, or converted to UPF format
     Using radial grid of  751 points,  5 beta functions with: 
                l(1) =   0
                l(2) =   0
                l(3) =   0
                l(4) =   1
                l(5) =   1
     Q(r) pseudized with 10 coefficients,  rinner =    1.150   1.150   1.150


     Mode symmetry, C_s (m)     point group:


     Atomic displacements:
     There are   3 irreducible representations

     Representation     1      1 modes -A'  To be done

     Representation     2      1 modes -A'  To be done

     Representation     3      1 modes -A''  To be done



     Alpha used in Ewald sum =   2.8000
     PHONON       : 13m27.26s CPU    15m45.17s WALL



     Representation #  1 mode #   1

     Self-consistent Calculation

      iter #   1 total cpu time :   947.8 secs   av.it.:   6.5
      thresh= 1.000E-02 alpha_mix =  0.700 |ddv_scf|^2 =  1.016E-04

      iter #   2 total cpu time :   954.0 secs   av.it.:   8.3
      thresh= 1.008E-03 alpha_mix =  0.700 |ddv_scf|^2 =  5.697E-04

      iter #   3 total cpu time :   958.0 secs   av.it.:   6.9
      thresh= 2.387E-03 alpha_mix =  0.700 |ddv_scf|^2 =  5.706E-08

      iter #   4 total cpu time :   963.3 secs   av.it.:   9.0
      thresh= 2.389E-05 alpha_mix =  0.700 |ddv_scf|^2 =  1.375E-09

      iter #   5 total cpu time :   967.9 secs   av.it.:   9.1
      thresh= 3.708E-06 alpha_mix =  0.700 |ddv_scf|^2 =  1.895E-11

      iter #   6 total cpu time :   972.3 secs   av.it.:   8.9
      thresh= 4.353E-07 alpha_mix =  0.700 |ddv_scf|^2 =  1.822E-13

      iter #   7 total cpu time :   989.4 secs   av.it.:   9.2
      thresh= 4.269E-08 alpha_mix =  0.700 |ddv_scf|^2 =  3.758E-13

      iter #   8 total cpu time :  1000.4 secs   av.it.:   7.1
      thresh= 6.130E-08 alpha_mix =  0.700 |ddv_scf|^2 =  3.689E-15

      iter #   9 total cpu time :  1012.4 secs   av.it.:   9.1
      thresh= 6.074E-09 alpha_mix =  0.700 |ddv_scf|^2 =  2.983E-16

      iter #  10 total cpu time :  1016.5 secs   av.it.:   7.9
      thresh= 1.727E-09 alpha_mix =  0.700 |ddv_scf|^2 =  2.135E-17

     End of self-consistent calculation

     Convergence has been achieved 


     Representation #  2 mode #   2

     Self-consistent Calculation

      iter #   1 total cpu time :  1021.5 secs   av.it.:   6.4
      thresh= 1.000E-02 alpha_mix =  0.700 |ddv_scf|^2 =  2.688E-05

      iter #   2 total cpu time :  1025.0 secs   av.it.:   8.7
      thresh= 5.184E-04 alpha_mix =  0.700 |ddv_scf|^2 =  1.418E-04

      iter #   3 total cpu time :  1030.6 secs   av.it.:   7.0
      thresh= 1.191E-03 alpha_mix =  0.700 |ddv_scf|^2 =  5.898E-08

      iter #   4 total cpu time :  1034.3 secs   av.it.:   9.0
      thresh= 2.429E-05 alpha_mix =  0.700 |ddv_scf|^2 =  1.885E-09

      iter #   5 total cpu time :  1038.6 secs   av.it.:   8.9
      thresh= 4.341E-06 alpha_mix =  0.700 |ddv_scf|^2 =  1.648E-11

      iter #   6 total cpu time :  1048.3 secs   av.it.:   9.2
      thresh= 4.060E-07 alpha_mix =  0.700 |ddv_scf|^2 =  2.897E-13

      iter #   7 total cpu time :  1062.6 secs   av.it.:   9.1
      thresh= 5.382E-08 alpha_mix =  0.700 |ddv_scf|^2 =  1.292E-12

      iter #   8 total cpu time :  1070.7 secs   av.it.:   7.0
      thresh= 1.137E-07 alpha_mix =  0.700 |ddv_scf|^2 =  1.615E-14

      iter #   9 total cpu time :  1074.2 secs   av.it.:   8.8
      thresh= 1.271E-08 alpha_mix =  0.700 |ddv_scf|^2 =  1.446E-14

      iter #  10 total cpu time :  1078.1 secs   av.it.:   8.0
      thresh= 1.202E-08 alpha_mix =  0.700 |ddv_scf|^2 =  9.622E-18

     End of self-consistent calculation

     Convergence has been achieved 


     Representation #  3 mode #   3

     Self-consistent Calculation

      iter #   1 total cpu time :  1086.6 secs   av.it.:   5.7
      thresh= 1.000E-02 alpha_mix =  0.700 |ddv_scf|^2 =  1.304E-06

      iter #   2 total cpu time :  1091.9 secs   av.it.:   8.6
      thresh= 1.142E-04 alpha_mix =  0.700 |ddv_scf|^2 =  7.651E-08

      iter #   3 total cpu time :  1105.2 secs   av.it.:   8.9
      thresh= 2.766E-05 alpha_mix =  0.700 |ddv_scf|^2 =  9.127E-10

      iter #   4 total cpu time :  1119.7 secs   av.it.:   8.2
      thresh= 3.021E-06 alpha_mix =  0.700 |ddv_scf|^2 =  9.073E-13

      iter #   5 total cpu time :  1129.1 secs   av.it.:   8.4
      thresh= 9.525E-08 alpha_mix =  0.700 |ddv_scf|^2 =  1.990E-14

      iter #   6 total cpu time :  1132.5 secs   av.it.:   7.8
      thresh= 1.411E-08 alpha_mix =  0.700 |ddv_scf|^2 =  1.511E-17

     End of self-consistent calculation

     Convergence has been achieved 
 
     Number of q in the star =   24
     List of q in the star:
          1  -0.250000000   0.500000000  -0.250000000
          2  -0.250000000   0.500000000   0.250000000
          3   0.250000000   0.500000000  -0.250000000
          4   0.250000000   0.500000000   0.250000000
          5   0.250000000  -0.500000000   0.250000000
[...]
     stopping ...
     too many k points
     stopping ...

 %%%%%%%%%%%%%%%%%%%%%%%%%%%%%%%%%%%%%%%%%%%%%%%%%%%%%%%%%%%%%%%%%%%%%%%%%%%%%%
     too many k points
     too many k points
 %%%%%%%%%%%%%%%%%%%%%%%%%%%%%%%%%%%%%%%%%%%%%%%%%%%%%%%%%%%%%%%%%%%%%%%%%%%%%%
 %%%%%%%%%%%%%%%%%%%%%%%%%%%%%%%%%%%%%%%%%%%%%%%%%%%%%     Error in routine set_kplusq (87808):
 %%%%%%%%%%%%%%%%%%%%%%%%%%%%%%%%%%%%%%%%%%%%%%%%%%%%%%%%%%%%%%%%%%%%%%%%%%%%%%
 %%%%%%%%%%%%%%%%%%%%%%%%%%%%%%%%%%%%%%%%%%%%%%%%%%%%%%%%%%%%%%%%%%%%%%%%%%%%%%

     too many k points


 %%%%%%%%%%%%%%%%%%%%%%%%%%%%%%%%%%%%%%%%%%%%%%%%%%%%%%%%%%%%%%%%%%%%%%%%%%%%%%
 %%%%%%%%%%%%%%%%%%%%%%%%%%%%%%%%%%%%%%%%%%%%%%%%%%%%%%%%%%%%%%%%%%%%%%%%%%%%%%

 %%%%%%%%%%%%%%%%%%%%%%%%%%%%%%%%%%%%%%%%%%%%%%%%%%%%%%%%%%%%%%%%%%%%%%%%%%%%%%



     stopping ...
 %%%%%%%%%%%%%%%%%%%%%%%%%%%%%%%%%%%%%%%%%%%%%%%%%%%%%%%%%%%%%%%%%%%%%%%%%%%%%%
 %%%%%%%%%%%%%%%%%%%%%%%%%%%%%%%%%%%%%%%%%%%%%%%%%%%%%%%%%%%%%%%%%%%%%%%%%%%%%%
     Error in routine set_kplusq (87808):
 %%%%%%%%%%%%%%%%%%%%%%%%%%%%%%%%%%%%%%%%%%%%%%%%%%%%%%%%%%%%%%%%%%%%%%%%%%%%%%
     too many k points

 %%%%%%%%%%%%%%%%%%%%%%%%%%%%%%%%%%%%%%%%%%%%%%%%%%%%%%%%%%%%%%%%%%%%%%%%%%%%%%
     Error in routine set_kplusq (87808):
     Error in routine set_kplusq (87808):


     stopping ...
 %%%%%%%%%%%%%%%%%%%%%%%%%%%%%%%%%%%%%%%%%%%%%%%%%%%%%%%%%%%%%%%%%%%%%%%%%%%%%%
 %%%%%%%%%%%%%%%%%%%%%%%%%%%%%%%%%%%%%%%%%%%%%%%%%%%%%%%%%%%%%%%%%%%%%%%%%%%%%%
     Error in routine set_kplusq (87808):

     too many k points
     Error in routine set_kplusq (87808):
 %%%%%%%%%%%%%%%%%%%%%%%%%%%%%%%%%%%%%%%%%%%%%%%%%%%%%%%%%%%%%%%%%%%%%%%%%%%%%%
 %%%%%%%%%%%%%%%%%%%%%%%%%%%%%%%%%%%%%%%%%%%%%%%%%%%%%%%%%%%%%%%%%%%%%%%%%%%%%%
     too many k points

     Error in routine set_kplusq (87808):
     stopping ...
 %%%%%%%%%%%%%%%%%%%%%%%%%%%%%%%%%%%%%%%%%%%%%%%%%%%%%%%%%%%%%%%%%%%%%%%%%%%%%%
     too many k points


 %%%%%%%%%%%%%%%%%%%%%%%%%%%%%%%%%%%%%%%%%%%%%%%%%%%%%%%%%%%%%%%%%%%%%%%%%%%%%%
 %%%%%%%%%%%%%%%%%%%%%%%%%%%%%%%%%%%%%%%%%%%%%%%%%%%%%%%%%%%%%%%%%%%%%%%%%%%%%%
     stopping ...
     Error in routine set_kplusq (87808):

     too many k points
     stopping ...
 %%%%%%%%%%%%%%%%%%%%%%%%%%%%%%%%%%%%%%%%%%%%%%%%%%%%%%%%%%%%%%%%%%%%%%%%%%%%%%

     stopping ...
 %%%%%%%%%%%%%%%%%%%%%%%%%%%%%%%%%%%%%%%%%%%%%%%%%%%%%%%%%%%%%%%%%%%%%%%%%%%%%%
     Error
     Error in routine set_kplusq (87808):
 %%%%%%%%%%%%%%%%%%%%%%%%%%%%%%%%%%%%%%%%%%%%%%%%%%%%%%%%%%%%%%%%%%%%%%%%%%%%%%
 %%%%%%%%%%%%%%%%%%%%%%%%%%%%%%%%%%%%%%%%%%%%%%%%%%%%%%%%%%%%%%%%%%%%%%%%%%%%%%
 %%%%%%%%%%%%%%%%%%%%%%%%%%%%%%%%%%%%%%%%%%%%%%%%%%%%%%%%%%%%%%%%%%%%%%%%%%%%%%

 %%%%%%%%%%%%%%%%%%%%%%%%%%%%%%%%%%%%%%%%%%%%%%%%%%%%%%%%%%%%%%%%%%%%%%%%%%%%%%
     Error in routine set_kplusq (87808):


     Error in routine set_kplusq (87808):

     Error in routine set_kplusq (87808):

     too many k points
 %%%%%%%%%%%%%%%%%%%%%%%%%%%%%%%%%%%%%%%%%%%%%%%%%%%%%%%%%%%%%%%%%%%%%%%%%%%%%%
 %%%%%%%%%%%%%%%%%%%%%%%%%%%%%%%%%%%%%%%%%%%%%%%%%%%%%%%%%%%%%%%%%%%%%%%%%%%%%%
 %%%%%%%%%%%%%%%%%%%%%%%%%%%%%%%%%%%%%%%%%%%%%%%%%%%%%%%%%%%%%%%%%%%%%%%%%%%%%%
     too many k points

     Error in routine set_kplusq (87808):
 %%%%%%%%%%%%%%%%%%%%%%%%%%%%%%%%%%%%%%%%%%%%%%%%%%%%%%%%%%%%%%%%%%%%%%%%%%%%%%
     too many k points
     Error in routine set_kplusq (87808):
 %%%%%%%%%%%%%%%%%%%%%%%%%%%%%%%%%%%%%%%%%%%%%%%%%%%%%%%%%%%%%%%%%%%%%%%%%%%%%%
     too many k points


 %%%%%%%%%%%%%%%%%%%%%%%%%%%%%%%%%%%%%%%%%%%%%%%%%%%%%%%%%%%%%%%%%%%%%%%%%%%%%%
 %%%%%%%%%%%%%%%%%%%%%%%%%%%%%%%%%%%%%%%%%%%%%%%%%%%%%%%%%%%%%%%%%%%%%%%%%%%%%%

     stopping ...

     stopping ...
     stopping ...
     stopping ...


 %%%%%%%%%%%%%%%%%%%%%%%%%%%%%%%%%%%%%%%%%%%%%%%%%%%%%%%%%%%%%%%%%%%%%%%%%%%%%%

 %%%%%%%%%%%%%%%%%%%%%%%%%%%%%%%%%%%%%%%%%%%%%%%%%%%%%%%%%%%%%%%%%%%%%%%%%%%%%%
     Error in routine set_kplusq (87808):
 %%%%%%%%%%%%%%%%%%%%%%%%%%%%%%%%%%%%%%%%%%%%%%%%%%%%%%%%%%%%%%%%%%%%%%%%%%%%%%
 %%%%%%%%%%%%%%%%%%%%%%%%%%%%%%%%%%%%%%%%%%%%%%%%%%%%%%%%%%%%%%%%%%%%%%%%%%%%%%
     Error in routine set_kplusq (87808):
     Error in routine set_kplusq (87808):
     too many k points
     Error in routine set_kplusq (87808):
     too many k points
 %%%%%%%%%%%%%%%%%%%%%%%%%%%%%%%%%%%%%%%%%%%%%%%%%%%%%%%%%%%%%%%%%%%%%%%%%%%%%%
     too many k points
     too many k points
 %%%%%%%%%%%%%%%%%%%%%%%%%%%%%%%%%%%%%%%%%%%%%%%%%%%%%%%%%%%%%%%%%%%%%%%%%%%%%
 %%%%%%%%%%%%%%%%%%%%%%%%%%%%%%%%%%%%%%%%%%%%%%%%%%%%%%%%%%%%%%%%%%%%%%%%%%%%%%

 %%%%%%%%%%%%%%%%%%%%%%%%%%%%%%%%%%%%%%%%%%%%%%%%%%%%%%%%%%%%%%%%%%%%%%%%%%%%%%

     Error in routine set_kplusq (87808):

     Error in routine set_kplusq (87808):

     too many k points
 %%%%%%%%%%%%%%%%%%%%%%%%%%%%%%%%%%%%%%%%%%%%%%%%%%%%%%%%%%%%%%%%%%%%%%%%%%%%%%
 %%%%%%%%%%%%%%%%%%%%%%%%%%%%%%%%%%%%%%%%%%%%%%%%%%%%%%%%%%%%%%%%%%%%%%%%%%%%%%


 %%%%%%%%%%%%%%%%%%%%%%%%%%%%%%%%%%%%%%%%%%%%%%%%%%%%%%%%%%%%%%%%%%%%%%%%%%%%%%
 %%%%%%%%%%%%%%%%%%%%%%%%%%%%%%%%%%%%%%%%%%%%%%%%%%%%%%%%%%%%%%%%%%%%%%%%%%%%%%
 %%%%%%%%%%%%%%%%%%%%%%%%%%%%%%%%%%%%%%%%%%%%%%%%%%%%%%%%%%%%%%%%%%%%%%%%%%%%%%


     Error in routine set_kplusq (87808):
     Error in routine set_kplusq (87808):

     Error in routine set_kplusq (87808):

 %%%%%%%%%%%%%%%%%%%%%%%%%%%%%%%%%%%%%%%%%%%%%%%%%%%%%%%%%%%%%%%%%%%%%%%%%%%%%%
     too many k points

 %%%%%%%%%%%%%%%%%%%%%%%%%%%%%%%%%%%%%%%%%%%%%%%%%%%%%%%%%%%%%%%%%%%%%%%%%%%%%%
     Error in routine set_kplusq (87808):
     too many k points
 %%%%%%%%%%%%%%%%%%%%%%%%%%%%%%%%%%%%%%%%%%%%%%%%%%%%%%%%%%%%%%%%%%%%%%%%%%%%%%
 %%%%%%%%%%%%%%%%%%%%%%%%%%%%%%%%%%%%%%%%%%%%%%%%%%%%%%%%%%%%%%%%%%%%%%%%%%%%%%
 %%%%%%%%%%%%%%%%%%%%%%%%%%%%%%%%%%%%%%%%%%%%%%%%%%%%%%%%%%%%%%%%%%%%%%%%%%%%%%


     stopping ...
     too many k points
     Error in routine set_kplusq (87808):
     Error in routine set_kplusq (87808):
     too many k points
 %%%%%%%%%%%%%%%%%%%%%%%%%%%%%%%%%%%%%%%%%%%%%%%%%%%%%%%%%%%%%%%%%%%%%%%%%%%%%%
     stopping ...
 %%%%%%%%%%%%%%%%%%%%%%%%%%%%%%%%%%%%%%%%%%%%%%%%%%%%%%%%%%%%%%%%%%%%%%%%%%%%%%


     stopping ...
     stopping ...


     stopping ...
     too many k points
     stopping ...

 %%%%%%%%%%%%%%%%%%%%%%%%%%%%%%%%%%%%%%%%%%%%%%%%%%%%%%%%%%%%%%%%%%%%%%%%%%%%%%

     stopping ...
 %%%%%%%%%%%%%%%%%%%%%%%%%%%%%%%%%%%%%%%%%%%%%%%%%%%%%%%%%%%%%%%%%%%%%%%%%%%%%%
 %%%%%%%%%%%%%%%%%%%%%%%%%%%%%%%%%%%%%%%%%%%%%%%%%%%%%%%%%%%%%%%%%%%%%%%%%%%%%%
     Error in routine set_kplusq (87808):
     too many k points
 %%%%%%%%%%%%%%%%%%%%%%%%%%%
 %%%%%%%%%%%%%%%%%%%%%%%%%%%%%%%%%%%%%%%%%%%%%%%%%%%%%%%%%%%%%%%%%%%%%%%%%%%%%%
 %%%%%%%%%%%%%%%%%%%%%%%%%%%%%%%%%%%%%%%%%%%%%%%%%%%%%%%%%%%%%%%%%%%%%%%%%%%%%%

     Error in routine set_kplusq (87808):
     Error in routine set_kplusq (87808):
     stopping ...

     too many k points

     too many k points
 %%%%%%%%%%%%%%%%%%%%%%%%%%%%%%%%%%%%%%%%%%%%%%%%%%%%%%%%%%%%%%%%%%%%%%%%%%%%%%
     stopping ...
 %%%%%%%%%%%%%%%%%%%%%%%%%%%%%%%%%%%%%%%%%%%%%%%%%%%%%%%%%%%%%%%%%%%%%%%%%%%%%%

     stopping ...
     stopping ...

     stopping ...
 %%%%%%%%%%%%%%%%%%%%%%%%%%%%%%%%%%%%%%%%%%%%%%%%%%%%%%%%%%%%%%%%%%%%%%%%%%%%%%
     Error in routine set_kplusq (87808):
     too many k points
 %%%%%%%%%%%%%%%%%%%%%%%%%%%%%%%%%%%%%%%%%%%%%%%%%%%%%%%%%%%%%%%%%%%%%%%%%%%%%%

     stopping ...
 %%%%%%%%%%%%%%%%%%%%%%%%%%%%%%%%%%%%%%%%%%%%%%%%%%%%%%%%%%%%%%%%%%%%%%%%%%%%%%
     Error in routine set_kplusq (87808):
     too many k points
 %%%%%%%%%%%%%%%%%%%%%%%%%%%%%%%%%%%%%%%%%%%%%%%%%%%%%%%%%%%%%%%%%%%%%%%%%%%%%%

     stopping ...
 %%%%%%%%%%%%%%%%%%%%%%%%%%%%%%%%%%%%%%%%%%%%%%%%%%%%%%%%%%%%%%%%%%%%%%%%%%%%%%

     stopping ...
     Error in routine set_kplusq (87808):
     too many k points
 %%%%%%%%%%%%%%%%%%%%%%%%%%%%%%%%%%%%%%%%%%%%%%%%%%%%%%%%%%%%%%%%%%%%%%%%%%%%%%

     stopping ...



 %%%%%%%%%%%%%%%%%%%%%%%%%%%%%%%%%%%%%%%%%%%%%%%%%%%%%%%%%%%%%%%%%%%%%%%%%%%%%%
 %%%%%%%%%%%%%%%%%%%%%%%%%%%%%%%%%%%%%%%%%%%%%%%%%%%%%%%%%%%%%%%%%%%%%%%%%%%%%%
     Error in routine set_kplusq (87808):
     too many k points
     Error in routine set_kplusq (87808):
     too many k points
 %%%%%%%%%%%%%%%%%%%%%%%%%%%%%%%%%%%%%%%%%%%%%%%%%%%%%%%%%%%%%%%%%%%%%%%%%%%%%%
 %%%%%%%%%%%%%%%%%%%%%%%%%%%%%%%%%%%%%%%%%%%%%%%%%%%%%%%%%%%%%%%%%%%%%%%%%%%%%%


     stopping ...
     stopping ...
     too many k points
 %%%%%%%%%%%%%%%%%%%%%%%%%%%%%%%%%%%%%%%%%%%%%%%%%%%%%%%%%%%%%%%%%%%%%%%%%%%%%%

     stopping ...
 %%%%%%%%%%%%%%%%%%%%%%%%%%%%%%%%%%%%%%%%%%%%%%%%%%%%%%%%%%%%%%%%%%%%%%%%%%%%%%

     stopping ...
     Error in routine set_kplusq (87808):
     too many k points
     too many k points
 %%%%%%%%%%%%%%%%%%%%%%%%%%%%%%%%%%%%%%%%%%%%%%%%%%%%%%%%%%%%%%%%%%%%%%%%%%%%%%

     stopping ...
 %%%%%%%%%%%%%%%%%%%%%%%%%%%%%%%%%%%%%%%%%%%%%%%%%%%%%%%%%%%%%%%%%%%%%%%%%%%%%%

     stopping ...
     Error in routine set_kplusq (87808):
     too many k points
 %%%%%%%%%%%%%%%%%%%%%%%%%%%%%%%%%%%%%%%%%%%%%%%%%%%%%%%%%%%%%%%%%%%%%%%%%%%%%%

     stopping ...
 %%%%%%%%%%%%%%%%%%%%%%%%%%%%%%%%%%%%%%%%%%%%%%%%%%%%%%%%%%%%%%%%%%%%%%%%%%%%%%
     Error in routine set_kplusq (87808):

     too many k points
     too many k points
 %%%%%%%%%%%%%%%%%%%%%%%%%%%%%%%%%%%%%%%%%%%%%%%%%%%%%%%%%%%%%%%%%%%%%%%%%%%%%%
     stopping ...
 %%%%%%%%%%%%%%%%%%%%%%%%%%%%%%%%%%%%%%%%%%%%%%%%%%%%%%%%%%%%%%%%%%%%%%%%%%%%%%


     stopping ...
     stopping ...
     too many k points
 %%%%%%%%%%%%%%%%%%%%%%%%%%%%%%%%%%%%%%%%%%%%%%%%%%%%%%%%%%%%%%%%%%%%%%%%%%%%%%
 %%%%%%%%%%%%%%%%%%%%%%%%%%%%%%%%%%%%%%%%%%%%%%%%%%%%%%%%%%%%%%%%%%%%%%%%%%%%%%

     stopping ...
     Error in routine set_kplusq (87808):
     too many k points
 %%%%%%%%%%%%%%%%%%%%%%%%%%%%%%%%%%%%%%%%%%%%%%%%%%%%%%%%%%%%%%%%%%%%%%%%%%%%%%

     stopping ...
%%%%%%%%%%%%%%%%%%%%%%%%%%%%%%%%%%%%%%%%%%%%%%%%%%%%%%%%%%%%%%%%%%%%%%%%%%%%
     Error in routine set_kplusq (87808):
 %%%%%%%%%%%%%%%%%%%%%%%%%%%%%%%%%%%%%%%%%%%%%%%%%%%%%%%%%%%%%%%%%%%%%%%%%%%%%%
     Error in routine set_kplusq (87808):
     too many k points
     too many k points

 %%%%%%%%%%%%%%%%%%%%%%%%%%%%%%%%%%%%%%%%%%%%%%%%%%%%%%%%%%%%%%%%%%%%%%%%%%%%%%

     stopping ...
     stopping ...
 %%%%%%%%%%%%%%%%%%%%%%%%%%%%%%%%%%%%%%%%%%%%%%%%%%%%%%%%%%%%%%%%%%%%%%%%%%%%%%

     stopping ...

     too many k points
 %%%%%%%%%%%%%%%%%%%%%%%%%%%%%%%%%%%%%%%%%%%%%%%%%%%%%%%%%%%%%%%%%%%%%%%%%%%%%%
 %%%%%%%%%%%%%%%%%%%%%%%%%%%%%%%%%%%%%%%%%%%%%%%%%%%%%%%%%%%%%%%%%%%%%%%%%%%%%%


     stopping ...
     Error in routine set_kplusq (87808):
     Error in routine set_kplusq (87808):
     too many k points
 %%%%%%%%%%%%%%%%%%%%%%%%%%%%%%%%%%%%%%%%%%%%%%%%%%%%%%%%%%%%%%%%%%%%%%%%%%%%%%

     Error in routine set_kplusq (87808):
     too many k points
     too many k points
 %%%%%%%%%%%%%%%%%%%%%%%%%%%%%%%%%%%%%%%%%%%%%%%%%%%%%%%%%%%%%%%%%%%%%%%%%%%%%%

 %%%%%%%%%%%%%%%%%%%%%%%%%%%%%%%%%%%%%%%%%%%%%%%%%%%%%%%%%%%%%%%%%%%%%%%%%%%%%%
 %%%%%%%%%%%%%%%%%%%%%%%%%%%%%%%%%%%%%%%%%%%%%%%%%%%%%%%%%%%%%%%%%%%%%%%%%%%%%%
 %%%%%%%%%%%%%%%%%%%%%%%%%%%%%%%%%%%%%%%%%%%%%%%%%%%%%%%%%%%%%%%%%%%%%%%%%%%%%%

     Error in routine set_kplusq (87808):
 %%%%%%%%%%%%%%%%%%%%%%%%%%%%%%%%%%%%%%%%%%%%%%%%%%%%%%%%%%%%%%%%%%%%%%%%%%%%%%



     too many k points
     stopping ...
     stopping ...
     Error in routine set_kplusq (87808):
 %%%%%%%%%%%%%%%%%%%%%%%%%%%%%%%%%%%%%%%%%%%%%%%%%%%%%%%%%%%%%%%%%%%%%%%%%%%%%%
     too many k points
     stopping ...

 %%%%%%%%%%%%%%%%%%%%%%%%%%%%%%%%%%%%%%%%%%%%%%%%%%%%%%%%%%%%%%%%%%%%%%%%%%%%%%
 %%%%%%%%%%%%%%%%%%%%%%%%%%%%%%%%%%%%%%%%%%%%%%%%%%%%%%%%%%%%%%%%%%%%%%%%%%%%%%
     stopping ...

     stopping ...
     Error in routine set_kplusq (87808):
     too many k points
 %%%%%%%%%%%%%%%%%%%%%%%%%%%%%%%%%%%%%%%%%%%%%%%%%%%%%%%%%%%%%%%%%%%%%%%%%%%%%%

     stopping ...
 %%%%%%%%%%%%%%%%%%%%%%%%%%%%%%%%%


 %%%%%%%%%%%%%%%%%%%%%%%%%%%%%%%%%%%%%%%%%%%%%%%%%%%%%%%%%%%%%%%%%%%%%%%%%%%%%%
 %%%%%%%%%%%%%%%%%%%%%%%%%%%%%%%%%%%%%%%%%%%%%%%%%%%%%%%%%%%%%%%%%%%%%%%%%%%%%%


     stopping ...
     stopping ...
     stopping ...
     stopping ...

     too many k points
 %%%%%%%%%%%%%%%%%%%%%%%%%%%%%%%%%%%%%%%%%%%%%%%%%%%%%%%%%%%%%%%%%%%%%%%%%%%%%%
     too many k points
 %%%%%%%%%%%%%%%%%%%%%%%%%%%%%%%%%%%%%%%%%%%%%%%%%%%%%%%%%%%%%%%%%%%%%%%%%%%%%%
     Error in routine set_kplusq (87808):
 %%%%%%%%%%%%%%%%%%%%%%%%%%%%%%%%%%%%%%%%%%%%%%%%%%%%%%%%%%%%%%%%%%%%%%%%%%%%%%

     too many k points

     stopping ...
 %%%%%%%%%%%%%%%%%%%%%%%%%%%%%%%%%%%%%%%%%%%%%%%%%%%%%%%%%%%%%%%%%%%%%%%%%%%%%%
     stopping ...
 %%%%%%%%%%%%%%%%%%%%%%%%%%%%%%%%%%%%%%%%%%%%%%%%%%%%%%%%%%%%%%%%%%%%%%%%%%%%%%

     stopping ...
     Error in routine set_kplusq (87808):
     too many k points
 %%%%%%%%%%%%%%%%%%%%%%%%%%%%%%%%%%%%%%%%%%%%%%%%%%%%%%%%%%%%%%%%%%%%%%%%%%%%%%

     stopping ...
     Error in routine set_kplusq (87808):
     too many k points
 %%%%%%%%%%%%%%%%%%%%%%%%%%%%%%%%%%%%%%%%%%%%%%%%%%%%%%%%%%%%%%%%%%%%%%%%%%%%%%

     stopping ...
     too many k points

 %%%%%%%%%%%%%%%%%%%%%%%%%%%%%%%%%%%%%%%%%%%%%%%%%%%%%%%%%%%%%%%%%%%%%%%%%%%%%%

 %%%%%%%%%%%%%%%%%%%%%%%%%%%%%%%%%%%%%%%%%%%%%%%%%%%%%%%%%%%%%%%%%%%%%%%%%%%%%%
     stopping ...
     Error in routine set_kplusq (87808):
     Error in routine set_kplusq (87808):

     too many k points
     too many k points
 %%%%%%%%%%%%%%%%%%%%%%%%%%%%%%%%%%%%%%%%%%%%%%%%%%%%%%%%%%%%%%%%%%%%%%%%%%%%%%
 %%%%%%%%%%%%%%%%%%%%%%%%%%%%%%%%%%%%%%%%%%%%%%%%%%%%%%%%%%%%%%%%%%%%%%%%%%%%%%
 %%%%%%%%%%%%%%%%%%%%%%%%%%%%%%%%%%%%%%%%%%%%%%%%%%%%%%%%%%%%%%%%%%%%%%%%%%%%%%


     Error in routine set_kplusq (87808):
     stopping ...
     stopping ...
     too many k points
 %%%%%%%%%%%%%%%%%%%%%%%%%%%%%%%%%%%%%%%%%%%%%%%%%%%%%%%%%%%%%%%%%%%%%%%%%%%%%%

     stopping ...

 %%%%%%%%%%%%%%%%%%%%%%%%%%%%%%%%%%%%%%%%%%%%%%%%%%%%%%%%%%%%%%%%%%%%%%%%%%%%%%
     Error in routine set_kplusq (87808):
     too many  in routine set_kplusq (87808):
     too many k points
     Error in routine set_kplusq (87808):
 %%%%%%%%%%%%%%%%%%%%%%%%%%%%%%%%%%%%%%%%%%%%%%%%%%%%%%%%%%%%%%%%%%%%%%%%%%%%%%
     too many k points
 %%%%%%%%%%%%%%%%%%%%%%%%%%%%%%%%%%%%%%%%%%%%%%%%%%%%%%%%%%%%%%%%%%%%%%%%%%%%%%

     stopping ...

 %%%%%%%%%%%%%%%%%%%%%%%%%%%%%%%%%%%%%%%%%%%%%%%%%%%%%%%%%%%%%%%%%%%%%%%%%%%%%%
     stopping ...

     Error in routine set_kplusq (87808):
 %%%%%%%%%%%%%%%%%%%%%%%%%%%%%%%%%%%%%%%%%%%%%%%%%%%%%%%%%%%%%%%%%%%%%%%%%%%%%%
     too many k points
 %%%%%%%%%%%%%%%%%%%%%%%%%%%%%%%%%%%%%%%%%%%%%%%%%%%%%%%%%%%%%%%%%%%%%%%%%%%%%%
     Error in routine set_kplusq (87808):
 %%%%%%%%%%%%%%%%%%%%%%%%%%%%%%%%%%%%%%%%%%%%%%%%%%%%%%%%%%%%%%%%%%%%%%%%%%%%%%
     Error in routine set_kplusq (87808):
     too many k points

     Error in routine set_kplusq (87808):
 %%%%%%%%%%%%%%%%%%%%%%%%%%%%%%%%%%%%%%%%%%%%%%%%%%%%%%%%%%%%%%%%%%%%%%%%%%%%%%
     stopping ...
     too many k points
     too many k points
 %%%%%%%%%%%%%%%%%%%%%%%%%%%%%%%%%%%%%%%%%%%%%%%%%%%%%%%%%%%%%%%%%%%%%%%%%%%%%%
 %%%%%%%%%%%%%%%%%%%%%%%%%%%%%%%%%%%%%%%%%%%%%%%%%%%%%%%%%%%%%%%%%%%%%%%%%%%%%%


     stopping ...

     stopping ...

     stopping ...
 %%%%%%%%%%%%%%%%%%%%%%%%%%%%%%%%%%%%%%%%%%%%%%%%%%%%%%%%%%%%%%%%%%%%%%%%%%%%%%
     Error in routine set_kplusq (87808):
     too many k points
 %%%%%%%%%%%%%%%%%%%%%%%%%%%%%%%%%%%%%%%%%%%%%%%%%%%%%%%%%%%%%%%%%%%%%%%%%%%%%%

 %%%%%%%%%%%%%%%%%%%%%%%%%%%%%%%%%%%%%%%%%%%%%%%%%%%%%%%%%%%%%%%%%%%%%%%%%%%%%%
     stopping ...
     Error in routine set_kplusq (87808):
     Error in routine set_kplusq (87808):
     too many k points
     too many k points
 %%%%%%%%%%%%%%%%%%%%%%%%%%%%%%%%%%%%%%%%%%%%%%%%%%%%%%%%%%%%%%%%%%%%%%%%%%%%%%
 %%%%%%%%%%%%%%%%%%%%%%%%%%%%%%%%%%%%%%%%%%%%%%%%%%%%%%%%%%%%%%%%%%%%%%%%%%%%%%


     stopping ...
     stopping ...
     Error in routine set_kplusq (87808):

     too many k points
 %%%%%%%%%%%%%%%%%%%%%%%%%%%%%%%%%%%%%%%%%%%%%%%%%%%%%%%%%%%%%%%%%%%%%%%%%%%%%%
 %%%%%%%%%%%%%%%%%%%%%%%%%%%%%%%%%%%%%%%%%%%%%%%%%%%%%%%%%%%%%%%%%%%%%%%%%%%%%%
     Error in routine set_kplusq (87808):

     too many k points
     stopping ...
 %%%%%%%%%%%%%%%%%%%%%%%%%%%%%%%%%%%%%%%%%%%%%%%%%%%%%%%%%%%%%%%%%%%%%%%%%%%%%%

     stopping ...
 %%%%%%%%%%%%%%%%%%%%%%%%%%%%%%%%%%%%%%%%%%%%%%%%%%%%%%%%%%%%%%%%%%%%%%%%%%%%%%
     Error in routine set_kplusq (87808):
     too many k points
 %%%%%%%%%%%%%%%%%%%%%%%%%%%%%%%%%%%%%%%%%%%%%%%%%%%%%%%%%%%%%%%%%%%%%%%%%%%%%%

     stopping ...

 %%%%%%%%%%%%%%%%%%%%%%%%%%%%%%%%%%%%%%%%%%%%%%%%%%%%%%%%%%%%%%%%%%%%%%%%%%%%%%
     Error in routine set_kplusq (87808):
     too many k points
 %%%%%%%%%%%%%%%%%%%%%%%%%%%%%%%%%%%%%%%%%%%%%%%%%%%%%%%%%%%%%%%%%%%%%%%%%%%%%%

     stopping ...

 %%%%%%%%%%%%%%%%%%%%%%%%%%%%%%%%%%%%%%%%%%%%%%%%%%%%%%%%%%%%%%%%%%%%%%%%%%%%%%
     Error in routine set_kplusq (87808):
     too many k points
 %%%%%%%%%%%%%%%%%%%%%%%%%%%%%%%%%%%%%%%%%%%%%%%%%%%%%%%%%%%%%%%%%%%%%%%%%%%%%%

     stopping ...
     Error in routine set_kplusq (87808):
     too many k points
     too many k points
 %%%%%%%%%%%%%%%%%%%%%%%%%%%%%%%%%%%%%%%%%%%%%%%%%%%%%%%%%%%%%%%%%%%%%%%%%%%%%%

 %%%%%%%%%%%%%%%%%%%%%%%%%%%%%%%%%%%%%%%%%%%%%%%%%%%%%%%%%%%%%%%%%%%%%%%%%%%%%%
     stopping ...

     stopping ...
     too many k points
 %%%%%%%%%%%%%%%%%%%%%%%%%%%%%%%%%%%%%%%%%%%%%%%%%%%%%%%%%%%%%%%%%%%%%%%%%%%%%%

     stopping ...

 %%%%%%%%%%%%%%%%%%%%%%%%%%%%%%%%%%%%%%%%%%%%%%%%%%%%%%%%%%%%%%%%%%%%%%%%%%%%%%
     Error in routine set_kplusq (87808):
     too many k points
 %%%%%%%%%%%%%%%%%%%%%%%%%%%%%%%%%%%%%%%%%%%%%%%%%%%%%%%%%%%%%%%%%%%%%%%%%%%%%%

     stopping ...
k points
 %%%%%%%%%%%%%%%%%%%%%%%%%%%%%%%%%%%%%%%%%%%%%%%%%%%%%%%%%%%%%%%%%%%%%%%%%%%%%%

     stopping ...
     too many k points
 %%%%%%%%%%%%%%%%%%%%%%%%%%%%%%%%%%%%%%%%%%%%%%%%%%%%%%%%%%%%%%%%%%%%%%%%%%%%%%
 %%%%%%%%%%%%%%%%%%%%%%%%%%%%%%%%%%%%%%%%%%%%%%%%%%%%%%%%%%%%%%%%%%%%%%%%%%%%%%
     Error in routine set_kplusq (87808):

     too many k points
     stopping ...
 %%%%%%%%%%%%%%%%%%%%%%%%%%%%%%%%%%%%%%%%%%%%%%%%%%%%%%%%%%%%%%%%%%%%%%%%%%%%%%
 %%%%%%%%%%%%%%%%%%%%%%%%%%%%%%%%%%%%%%%%%%%%%%%%%%%%%%%%%%%%%%%%%%%%%%%%%%%%%%

     stopping ...
     Error in routine set_kplusq (87808):

     too many k points
     Error in routine set_kplusq (87808):
 %%%%%%%%%%%%%%%%%%%%%%%%%%%%%%%%%%%%%%%%%%%%%%%%%%%%%%%%%%%%%%%%%%%%%%%%%%%%%%
     too many k points
 %%%%%%%%%%%%%%%%%%%%%%%%%%%%%%%%%%%%%%%%%%%%%%%%%%%%%%%%%%%%%%%%%%%%%%%%%%%%%%
 %%%%%%%%%%%%%%%%%%%%%%%%%%%%%%%%%%%%%%%%%%%%%%%%%%%%%%%%%%%%%%%%%%%%%%%%%%%%%%


     Error in routine set_kplusq (87808):
     stopping ...
     stopping ...
     too many k points
 %%%%%%%%%%%%%%%%%%%%%%%%%%%%%%%%%%%%%%%%%%%%%%%%%%%%%%%%%%%%%%%%%%%%%%%%%%%%%%

     stopping ...

 %%%%%%%%%%%%%%%%%%%%%%%%%%%%%%%%%%%%%%%%%%%%%%%%%%%%%%%%%%%%%%%%%%%%%%%%%%%%%%
     Error in routine set_kplusq (87808):
     too many k points
 %%%%%%%%%%%%%%%%%%%%%%%%%%%%%%%%%%%%%%%%%%%%%%%%%%%%%%%%%%%%%%%%%%%%%%%%%%%%%%

     stopping ...
%%%%%%%%%%%%%%%%%%%%%%%%%%%%%%%%%%%%%%%%%%%%%%
     Error in routine set_kplusq (87808):
     too many k points
 %%%%%%%%%%%%%%%%%%%%%%%%%%%%%%%%%%%%%%%%%%%%%%%%%%%%%%%%%%%%%%%%%%%%%%%%%%%%%%

     stopping ...
     stopping ...
 %%%%%%%%%%%%%%%%%%%%%%%%%%%%%%%%%%%%%%%%%%%%%%%%%%%%%%%%%%%%%%%%%%%%%%%%%%%%%%
     Error in routine set_kplusq (87808):
     too many k points
 %%%%%%%%%%%%%%%%%%%%%%%%%%%%%%%%%%%%%%%%%%%%%%%%%%%%%%%%%%%%%%%%%%%%%%%%%%%%%%

     stopping ...
     too many k points
 %%%%%%%%%%%%%%%%%%%%%%%%%%%%%%%%%%%%%%%%%%%%%%%%%%%%%%%%%%%%%%%%%%%%%%%%%%%%%%

     stopping ...
     too many k points
 %%%%%%%%%%%%%%%%%%%%%%%%%%%%%%%%%%%%%%%%%%%%%%%%%%%%%%%%%%%%%%%%%%%%%%%%%%%%%%

     stopping ...

 %%%%%%%%%%%%%%%%%%%%%%%%%%%%%%%%%%%%%%%%%%%%%%%%%%%%%%%%%%%%%%%%%%%%%%%%%%%%%%
     Error in routine set_kplusq (87808):
     too many k points
 %%%%%%%%%%%%%%%%%%%%%%%%%%%%%%%%%%%%%%%%%%%%%%%%%%%%%%%%%%%%%%%%%%%%%%%%%%%%%%

     stopping ...
Application 21911379 exit codes: 134
Application 21911379 exit signals: Killed
Application 21911379 resources: utime ~1502s, stime ~25s, Rss ~179000, inblocks ~1187527, outblocks ~2577022
