
     Program PHONON v.6.1 (svn rev. 13369) starts on 30Jan2018 at 23:26:52 

     This program is part of the open-source Quantum ESPRESSO suite
     for quantum simulation of materials; please cite
         "P. Giannozzi et al., J. Phys.:Condens. Matter 21 395502 (2009);
          URL http://www.quantum-espresso.org", 
     in publications or presentations arising from this work. More details at
     http://www.quantum-espresso.org/quote

     Parallel version (MPI), running on    64 processors
     K-points division:     npool     =       4
     R & G space division:  proc/nbgrp/npool/nimage =      16

     Reading data from directory:
     ./na.bcc.save

   Info: using nr1, nr2, nr3 values from input

   Info: using nr1, nr2, nr3 values from input

     IMPORTANT: XC functional enforced from input :
     Exchange-correlation      = SLA  PW   PBE  PBE ( 1  4  3  4 0 0)
     Any further DFT definition will be discarded
     Please, verify this is what you really want


     Parallelization info
     --------------------
     sticks:   dense  smooth     PW     G-vecs:    dense   smooth      PW
     Min          56      28      8                 1069      377      65
     Max          57      29      9                 1071      380      68
     Sum         905     451    139                17117     6051    1061



     Dynamical matrices for ( 6, 6, 6)  uniform grid of q-points
     (  16q-points):
       N         xq(1)         xq(2)         xq(3) 
       1   0.000000000   0.000000000   0.000000000
       2   0.000000000  -0.166666667   0.166666667
       3   0.000000000  -0.333333333   0.333333333
       4   0.000000000   0.500000000  -0.500000000
       5  -0.166666667  -0.166666667   0.333333333
       6  -0.166666667   0.666666667  -0.500000000
       7  -0.333333333   0.666666667  -0.333333333
       8   0.000000000   0.000000000   0.333333333
       9   0.000000000  -0.166666667   0.500000000
      10   0.000000000   0.666666667  -0.333333333
      11  -0.166666667   0.833333333  -0.333333333
      12   0.666666667  -0.666666667   0.333333333
      13   0.500000000  -0.500000000   0.333333333
      14   0.000000000   0.000000000   0.666666667
      15   0.000000000   0.833333333  -0.166666667
      16   0.000000000   0.000000000  -1.000000000

     Calculation of q =    0.0000000   0.0000000   0.0000000

                                                                                

     bravais-lattice index     =            3
     lattice parameter (alat)  =       7.0705  a.u.
     unit-cell volume          =     176.7342 (a.u.)^3
     number of atoms/cell      =            1
     number of atomic types    =            1
     kinetic-energy cut-off    =      40.0000  Ry
     charge density cut-off    =     320.0000  Ry
     convergence threshold     =      1.0E-16
     beta                      =       0.7000
     number of iterations used =            4
     Exchange-correlation      = SLA  PW   PBE  PBE ( 1  4  3  4 0 0)


     celldm(1)=    7.07050  celldm(2)=    0.00000  celldm(3)=    0.00000
     celldm(4)=    0.00000  celldm(5)=    0.00000  celldm(6)=    0.00000

     crystal axes: (cart. coord. in units of alat)
               a(1) = (  0.5000  0.5000  0.5000 )  
               a(2) = ( -0.5000  0.5000  0.5000 )  
               a(3) = ( -0.5000 -0.5000  0.5000 )  

     reciprocal axes: (cart. coord. in units 2 pi/alat)
               b(1) = (  1.0000  0.0000  1.0000 )  
               b(2) = ( -1.0000  1.0000  0.0000 )  
               b(3) = (  0.0000 -1.0000  1.0000 )  


     Atoms inside the unit cell: 

     Cartesian axes

     site n.  atom      mass           positions (alat units)
        1     Na  22.9900   tau(    1) = (    0.00000    0.00000    0.00000  )

     Computing dynamical matrix for 
                    q = (   0.0000000   0.0000000   0.0000000 )

     49 Sym.Ops. (with q -> -q+G )


     G cutoff =  405.2198  (   1070 G-vectors)     FFT grid: ( 36, 36, 36)
     G cutoff =  202.6099  (    378 G-vectors)  smooth grid: ( 25, 25, 25)

     number of k points=   250  Marzari-Vanderbilt smearing, width (Ry)=  0.0200

     PseudoPot. # 1 for Na read from file:
     /home/s1333534/quantum_espresso/qe-6.1/pseudo/Na_pbe_v1.uspp.F.UPF
     MD5 check sum: 76a99c7e9422403d3e93cbc85ab7bccb
     Pseudo is Ultrasoft, Zval =  9.0
     Generated by new atomic code, or converted to UPF format
     Using radial grid of  819 points,  5 beta functions with: 
                l(1) =   0
                l(2) =   0
                l(3) =   1
                l(4) =   1
                l(5) =   2
     Q(r) pseudized with  8 coefficients,  rinner =    1.250   1.250   1.250
                                                       1.250   1.250

     Mode symmetry, O_h (m-3m)  point group:


     Atomic displacements:
     There are   1 irreducible representations

     Representation     1      3 modes -T_1u G_15  G_4-  To be done



     Alpha used in Ewald sum =   2.8000
     PHONON       :     2.99s CPU         3.40s WALL



     Representation #  1 modes #   1  2  3

     Self-consistent Calculation

     Pert. #  1: Fermi energy shift (Ry) =     8.6165E-27     1.4106E-37
     Pert. #  2: Fermi energy shift (Ry) =    -1.5079E-26     2.9779E-37
     Pert. #  3: Fermi energy shift (Ry) =    -7.5394E-27     0.0000E+00

      iter #   1 total cpu time :     6.3 secs   av.it.:   5.5
      thresh= 1.000E-02 alpha_mix =  0.700 |ddv_scf|^2 =  1.392E-06

     Pert. #  1: Fermi energy shift (Ry) =     1.2925E-26     1.4694E-39
     Pert. #  2: Fermi energy shift (Ry) =     2.8004E-26     3.1836E-39
     Pert. #  3: Fermi energy shift (Ry) =     3.2312E-26    -4.8979E-40

      iter #   2 total cpu time :     9.7 secs   av.it.:   8.5
      thresh= 1.180E-04 alpha_mix =  0.700 |ddv_scf|^2 =  2.725E-08

     Pert. #  1: Fermi energy shift (Ry) =     2.1541E-27    -3.0612E-40
     Pert. #  2: Fermi energy shift (Ry) =     2.4234E-26     2.1428E-40
     Pert. #  3: Fermi energy shift (Ry) =     6.1931E-27     7.9591E-40

      iter #   3 total cpu time :    13.0 secs   av.it.:   8.6
      thresh= 1.651E-05 alpha_mix =  0.700 |ddv_scf|^2 =  3.095E-10

     Pert. #  1: Fermi energy shift (Ry) =     3.6081E-26     0.0000E+00
     Pert. #  2: Fermi energy shift (Ry) =     5.5199E-27    -1.9132E-41
     Pert. #  3: Fermi energy shift (Ry) =     1.4810E-26     5.3571E-41

      iter #   4 total cpu time :    16.3 secs   av.it.:   8.2
      thresh= 1.759E-06 alpha_mix =  0.700 |ddv_scf|^2 =  1.171E-12

     Pert. #  1: Fermi energy shift (Ry) =    -3.6620E-26    -5.2614E-42
     Pert. #  2: Fermi energy shift (Ry) =     1.4271E-26     4.7831E-42
     Pert. #  3: Fermi energy shift (Ry) =     2.5311E-26    -1.3393E-41

      iter #   5 total cpu time :    19.7 secs   av.it.:   8.4
      thresh= 1.082E-07 alpha_mix =  0.700 |ddv_scf|^2 =  4.285E-15

     Pert. #  1: Fermi energy shift (Ry) =     3.2312E-27    -9.5662E-42
     Pert. #  2: Fermi energy shift (Ry) =    -1.8849E-27    -9.5662E-43
     Pert. #  3: Fermi energy shift (Ry) =     4.3082E-27    -7.1746E-42

      iter #   6 total cpu time :    23.3 secs   av.it.:   8.3
      thresh= 6.546E-09 alpha_mix =  0.700 |ddv_scf|^2 =  5.204E-17

     End of self-consistent calculation

     Convergence has been achieved 

     Number of q in the star =    1
     List of q in the star:
          1   0.000000000   0.000000000   0.000000000

     Diagonalizing the dynamical matrix

     q = (    0.000000000   0.000000000   0.000000000 ) 

 **************************************************************************
     freq (    1) =      -0.401120 [THz] =     -13.379916 [cm-1]
     freq (    2) =      -0.401120 [THz] =     -13.379916 [cm-1]
     freq (    3) =      -0.401120 [THz] =     -13.379916 [cm-1]
 **************************************************************************

     Mode symmetry, O_h (m-3m)  point group:

     freq (  1 -  3) =        -13.4  [cm-1]   --> T_1u G_15  G_4- I  

     Calculation of q =    0.0000000  -0.1666667   0.1666667

   Info: using nr1, nr2, nr3 values from input

   Info: using nr1, nr2, nr3 values from input

     Parallelization info
     --------------------
     sticks:   dense  smooth     PW     G-vecs:    dense   smooth      PW
     Min          56      28      9                 1069      377      74
     Max          57      29     10                 1071      380      77
     Sum         905     451    155                17117     6051    1205



     bravais-lattice index     =            3
     lattice parameter (alat)  =       7.0705  a.u.
     unit-cell volume          =     176.7342 (a.u.)^3
     number of atoms/cell      =            1
     number of atomic types    =            1
     number of electrons       =         9.00
     number of Kohn-Sham states=            9
     kinetic-energy cutoff     =      40.0000  Ry
     charge density cutoff     =     320.0000  Ry
     Exchange-correlation      = SLA  PW   PBE  PBE ( 1  4  3  4 0 0)

     celldm(1)=   7.070501  celldm(2)=   0.000000  celldm(3)=   0.000000
     celldm(4)=   0.000000  celldm(5)=   0.000000  celldm(6)=   0.000000

     crystal axes: (cart. coord. in units of alat)
               a(1) = (   0.500000   0.500000   0.500000 )  
               a(2) = (  -0.500000   0.500000   0.500000 )  
               a(3) = (  -0.500000  -0.500000   0.500000 )  

     reciprocal axes: (cart. coord. in units 2 pi/alat)
               b(1) = (  1.000000  0.000000  1.000000 )  
               b(2) = ( -1.000000  1.000000  0.000000 )  
               b(3) = (  0.000000 -1.000000  1.000000 )  


     PseudoPot. # 1 for Na read from file:
     /home/s1333534/quantum_espresso/qe-6.1/pseudo/Na_pbe_v1.uspp.F.UPF
     MD5 check sum: 76a99c7e9422403d3e93cbc85ab7bccb
     Pseudo is Ultrasoft, Zval =  9.0
     Generated by new atomic code, or converted to UPF format
     Using radial grid of  819 points,  5 beta functions with: 
                l(1) =   0
                l(2) =   0
                l(3) =   1
                l(4) =   1
                l(5) =   2
     Q(r) pseudized with  8 coefficients,  rinner =    1.250   1.250   1.250
                                                       1.250   1.250

     atomic species   valence    mass     pseudopotential
        Na             9.00    22.99000     Na( 1.00)

     48 Sym. Ops., with inversion, found



   Cartesian axes

     site n.     atom                  positions (alat units)
         1           Na  tau(   1) = (   0.0000000   0.0000000   0.0000000  )

     number of k points=  4400  Marzari-Vanderbilt smearing, width (Ry)=  0.0200

     Number of k-points >= 100: set verbosity='high' to print them.

     Dense  grid:    17117 G-vectors     FFT dimensions: (  36,  36,  36)

     Smooth grid:     6051 G-vectors     FFT dimensions: (  25,  25,  25)

     Estimated max dynamical RAM per process >       0.59MB

     Estimated total allocated dynamical RAM >      37.61MB

     The potential is recalculated from file :
     ./_ph0/na.bcc.save/charge-density.dat

     Starting wfc are    5 atomic +    4 random wfc

     Band Structure Calculation
     Davidson diagonalization with overlap

     ethr =  1.11E-10,  avg # of iterations = 18.6

     total cpu time spent up to now is       55.8 secs

     End of band structure calculation

     Number of k-points >= 100: set verbosity='high' to print the bands.

     the Fermi energy is     3.3598 ev

     Writing output data file na.bcc.save

                                                                                

     bravais-lattice index     =            3
     lattice parameter (alat)  =       7.0705  a.u.
     unit-cell volume          =     176.7342 (a.u.)^3
     number of atoms/cell      =            1
     number of atomic types    =            1
     kinetic-energy cut-off    =      40.0000  Ry
     charge density cut-off    =     320.0000  Ry
     convergence threshold     =      1.0E-16
     beta                      =       0.7000
     number of iterations used =            4
     Exchange-correlation      = SLA  PW   PBE  PBE ( 1  4  3  4 0 0)


     celldm(1)=    7.07050  celldm(2)=    0.00000  celldm(3)=    0.00000
     celldm(4)=    0.00000  celldm(5)=    0.00000  celldm(6)=    0.00000

     crystal axes: (cart. coord. in units of alat)
               a(1) = (  0.5000  0.5000  0.5000 )  
               a(2) = ( -0.5000  0.5000  0.5000 )  
               a(3) = ( -0.5000 -0.5000  0.5000 )  

     reciprocal axes: (cart. coord. in units 2 pi/alat)
               b(1) = (  1.0000  0.0000  1.0000 )  
               b(2) = ( -1.0000  1.0000  0.0000 )  
               b(3) = (  0.0000 -1.0000  1.0000 )  


     Atoms inside the unit cell: 

     Cartesian axes

     site n.  atom      mass           positions (alat units)
        1     Na  22.9900   tau(    1) = (    0.00000    0.00000    0.00000  )

     Computing dynamical matrix for 
                    q = (   0.0000000  -0.1666667   0.1666667 )

      4 Sym.Ops. (no q -> -q+G )


     G cutoff =  405.2198  (   1070 G-vectors)     FFT grid: ( 36, 36, 36)
     G cutoff =  202.6099  (    378 G-vectors)  smooth grid: ( 25, 25, 25)

     number of k points=  4400  Marzari-Vanderbilt smearing, width (Ry)=  0.0200

     PseudoPot. # 1 for Na read from file:
     /home/s1333534/quantum_espresso/qe-6.1/pseudo/Na_pbe_v1.uspp.F.UPF
     MD5 check sum: 76a99c7e9422403d3e93cbc85ab7bccb
     Pseudo is Ultrasoft, Zval =  9.0
     Generated by new atomic code, or converted to UPF format
     Using radial grid of  819 points,  5 beta functions with: 
                l(1) =   0
                l(2) =   0
                l(3) =   1
                l(4) =   1
                l(5) =   2
     Q(r) pseudized with  8 coefficients,  rinner =    1.250   1.250   1.250
                                                       1.250   1.250

     Mode symmetry, C_2v (mm2)  point group:


     Atomic displacements:
     There are   3 irreducible representations

     Representation     1      1 modes -A_1  D_1  S_1  To be done

     Representation     2      1 modes -B_1  D_3  S_3  To be done

     Representation     3      1 modes -B_2  D_4  S_4  To be done



     Alpha used in Ewald sum =   2.8000
     PHONON       :  1m28.71s CPU     1m34.91s WALL



     Representation #  1 mode #   1

     Self-consistent Calculation

      iter #   1 total cpu time :   101.4 secs   av.it.:   5.7
      thresh= 1.000E-02 alpha_mix =  0.700 |ddv_scf|^2 =  3.502E-02

      iter #   2 total cpu time :   107.7 secs   av.it.:   6.7
      thresh= 1.000E-02 alpha_mix =  0.700 |ddv_scf|^2 =  4.527E+00

      iter #   3 total cpu time :   114.1 secs   av.it.:   6.7
      thresh= 1.000E-02 alpha_mix =  0.700 |ddv_scf|^2 =  1.008E-06

      iter #   4 total cpu time :   121.0 secs   av.it.:   7.6
      thresh= 1.004E-04 alpha_mix =  0.700 |ddv_scf|^2 =  1.084E-07

      iter #   5 total cpu time :   128.0 secs   av.it.:   7.4
      thresh= 3.293E-05 alpha_mix =  0.700 |ddv_scf|^2 =  3.986E-09

      iter #   6 total cpu time :   134.8 secs   av.it.:   7.5
      thresh= 6.313E-06 alpha_mix =  0.700 |ddv_scf|^2 =  4.786E-11

      iter #   7 total cpu time :   141.9 secs   av.it.:   7.9
      thresh= 6.918E-07 alpha_mix =  0.700 |ddv_scf|^2 =  1.379E-09

      iter #   8 total cpu time :   148.1 secs   av.it.:   6.1
      thresh= 3.714E-06 alpha_mix =  0.700 |ddv_scf|^2 =  8.693E-11

      iter #   9 total cpu time :   155.3 secs   av.it.:   6.9
      thresh= 9.324E-07 alpha_mix =  0.700 |ddv_scf|^2 =  1.266E-12

      iter #  10 total cpu time :   162.0 secs   av.it.:   7.1
      thresh= 1.125E-07 alpha_mix =  0.700 |ddv_scf|^2 =  8.536E-14

      iter #  11 total cpu time :   168.7 secs   av.it.:   7.2
      thresh= 2.922E-08 alpha_mix =  0.700 |ddv_scf|^2 =  5.840E-16

      iter #  12 total cpu time :   176.1 secs   av.it.:   7.9
      thresh= 2.417E-09 alpha_mix =  0.700 |ddv_scf|^2 =  2.873E-16

      iter #  13 total cpu time :   183.0 secs   av.it.:   7.5
      thresh= 1.695E-09 alpha_mix =  0.700 |ddv_scf|^2 =  1.508E-16

      iter #  14 total cpu time :   188.8 secs   av.it.:   5.8
      thresh= 1.228E-09 alpha_mix =  0.700 |ddv_scf|^2 =  7.644E-17

     End of self-consistent calculation

     Convergence has been achieved 


     Representation #  2 mode #   2

     Self-consistent Calculation

      iter #   1 total cpu time :   195.4 secs   av.it.:   5.4
      thresh= 1.000E-02 alpha_mix =  0.700 |ddv_scf|^2 =  1.268E-05

      iter #   2 total cpu time :   202.6 secs   av.it.:   7.7
      thresh= 3.561E-04 alpha_mix =  0.700 |ddv_scf|^2 =  2.419E-07

      iter #   3 total cpu time :   211.5 secs   av.it.:   7.9
      thresh= 4.919E-05 alpha_mix =  0.700 |ddv_scf|^2 =  3.108E-09

      iter #   4 total cpu time :   218.4 secs   av.it.:   7.4
      thresh= 5.575E-06 alpha_mix =  0.700 |ddv_scf|^2 =  1.143E-11

      iter #   5 total cpu time :   225.5 secs   av.it.:   7.6
      thresh= 3.380E-07 alpha_mix =  0.700 |ddv_scf|^2 =  3.603E-14

      iter #   6 total cpu time :   232.5 secs   av.it.:   7.5
      thresh= 1.898E-08 alpha_mix =  0.700 |ddv_scf|^2 =  5.270E-16

      iter #   7 total cpu time :   239.6 secs   av.it.:   7.6
      thresh= 2.296E-09 alpha_mix =  0.700 |ddv_scf|^2 =  3.617E-19

     End of self-consistent calculation

     Convergence has been achieved 


     Representation #  3 mode #   3

     Self-consistent Calculation

      iter #   1 total cpu time :   246.1 secs   av.it.:   5.4
      thresh= 1.000E-02 alpha_mix =  0.700 |ddv_scf|^2 =  1.314E-05

      iter #   2 total cpu time :   253.4 secs   av.it.:   7.7
      thresh= 3.625E-04 alpha_mix =  0.700 |ddv_scf|^2 =  2.396E-07

      iter #   3 total cpu time :   260.6 secs   av.it.:   7.9
      thresh= 4.895E-05 alpha_mix =  0.700 |ddv_scf|^2 =  4.085E-09

      iter #   4 total cpu time :   267.8 secs   av.it.:   7.5
      thresh= 6.391E-06 alpha_mix =  0.700 |ddv_scf|^2 =  1.501E-11

      iter #   5 total cpu time :   275.8 secs   av.it.:   7.7
      thresh= 3.874E-07 alpha_mix =  0.700 |ddv_scf|^2 =  3.671E-14

      iter #   6 total cpu time :   282.6 secs   av.it.:   7.4
      thresh= 1.916E-08 alpha_mix =  0.700 |ddv_scf|^2 =  1.083E-15

      iter #   7 total cpu time :   289.8 secs   av.it.:   7.7
      thresh= 3.291E-09 alpha_mix =  0.700 |ddv_scf|^2 =  1.159E-18

     End of self-consistent calculation

     Convergence has been achieved 

     Number of q in the star =   12
     List of q in the star:
          1   0.000000000  -0.166666667   0.166666667
          2  -0.166666667   0.000000000   0.166666667
          3   0.166666667   0.000000000   0.166666667
          4   0.000000000   0.166666667   0.166666667
          5   0.166666667   0.166666667   0.000000000
          6  -0.166666667   0.166666667   0.000000000
          7   0.166666667  -0.166666667   0.000000000
          8  -0.166666667  -0.166666667   0.000000000
          9  -0.166666667   0.000000000  -0.166666667
         10   0.000000000  -0.166666667  -0.166666667
         11   0.000000000   0.166666667  -0.166666667
         12   0.166666667   0.000000000  -0.166666667

     Diagonalizing the dynamical matrix

     q = (    0.000000000  -0.166666667   0.166666667 ) 

 **************************************************************************
     freq (    1) =       0.741533 [THz] =      24.734875 [cm-1]
     freq (    2) =       1.687770 [THz] =      56.297952 [cm-1]
     freq (    3) =       3.035983 [THz] =     101.269486 [cm-1]
 **************************************************************************

     Mode symmetry, C_2v (mm2)  point group:

     freq (  1 -  1) =         24.7  [cm-1]   --> B_1  D_3  S_3      
     freq (  2 -  2) =         56.3  [cm-1]   --> B_2  D_4  S_4      
     freq (  3 -  3) =        101.3  [cm-1]   --> A_1  D_1  S_1      

     Calculation of q =    0.0000000  -0.3333333   0.3333333

   Info: using nr1, nr2, nr3 values from input

   Info: using nr1, nr2, nr3 values from input

     Parallelization info
     --------------------
     sticks:   dense  smooth     PW     G-vecs:    dense   smooth      PW
     Min          56      28     10                 1069      377      80
     Max          57      29     11                 1071      380      81
     Sum         905     451    165                17117     6051    1289



     bravais-lattice index     =            3
     lattice parameter (alat)  =       7.0705  a.u.
     unit-cell volume          =     176.7342 (a.u.)^3
     number of atoms/cell      =            1
     number of atomic types    =            1
     number of electrons       =         9.00
     number of Kohn-Sham states=            9
     kinetic-energy cutoff     =      40.0000  Ry
     charge density cutoff     =     320.0000  Ry
     Exchange-correlation      = SLA  PW   PBE  PBE ( 1  4  3  4 0 0)

     celldm(1)=   7.070501  celldm(2)=   0.000000  celldm(3)=   0.000000
     celldm(4)=   0.000000  celldm(5)=   0.000000  celldm(6)=   0.000000

     crystal axes: (cart. coord. in units of alat)
               a(1) = (   0.500000   0.500000   0.500000 )  
               a(2) = (  -0.500000   0.500000   0.500000 )  
               a(3) = (  -0.500000  -0.500000   0.500000 )  

     reciprocal axes: (cart. coord. in units 2 pi/alat)
               b(1) = (  1.000000  0.000000  1.000000 )  
               b(2) = ( -1.000000  1.000000  0.000000 )  
               b(3) = (  0.000000 -1.000000  1.000000 )  


     PseudoPot. # 1 for Na read from file:
     /home/s1333534/quantum_espresso/qe-6.1/pseudo/Na_pbe_v1.uspp.F.UPF
     MD5 check sum: 76a99c7e9422403d3e93cbc85ab7bccb
     Pseudo is Ultrasoft, Zval =  9.0
     Generated by new atomic code, or converted to UPF format
     Using radial grid of  819 points,  5 beta functions with: 
                l(1) =   0
                l(2) =   0
                l(3) =   1
                l(4) =   1
                l(5) =   2
     Q(r) pseudized with  8 coefficients,  rinner =    1.250   1.250   1.250
                                                       1.250   1.250

     atomic species   valence    mass     pseudopotential
        Na             9.00    22.99000     Na( 1.00)

     48 Sym. Ops., with inversion, found



   Cartesian axes

     site n.     atom                  positions (alat units)
         1           Na  tau(   1) = (   0.0000000   0.0000000   0.0000000  )

     number of k points=  4400  Marzari-Vanderbilt smearing, width (Ry)=  0.0200

     Number of k-points >= 100: set verbosity='high' to print them.

     Dense  grid:    17117 G-vectors     FFT dimensions: (  36,  36,  36)

     Smooth grid:     6051 G-vectors     FFT dimensions: (  25,  25,  25)

     Estimated max dynamical RAM per process >       0.59MB

     Estimated total allocated dynamical RAM >      37.61MB

     The potential is recalculated from file :
     ./_ph0/na.bcc.save/charge-density.dat

     Starting wfc are    5 atomic +    4 random wfc

     Band Structure Calculation
     Davidson diagonalization with overlap

     ethr =  1.11E-10,  avg # of iterations = 18.6

     total cpu time spent up to now is      124.2 secs

     End of band structure calculation

     Number of k-points >= 100: set verbosity='high' to print the bands.

     the Fermi energy is     3.3598 ev

     Writing output data file na.bcc.save

                                                                                

     bravais-lattice index     =            3
     lattice parameter (alat)  =       7.0705  a.u.
     unit-cell volume          =     176.7342 (a.u.)^3
     number of atoms/cell      =            1
     number of atomic types    =            1
     kinetic-energy cut-off    =      40.0000  Ry
     charge density cut-off    =     320.0000  Ry
     convergence threshold     =      1.0E-16
     beta                      =       0.7000
     number of iterations used =            4
     Exchange-correlation      = SLA  PW   PBE  PBE ( 1  4  3  4 0 0)


     celldm(1)=    7.07050  celldm(2)=    0.00000  celldm(3)=    0.00000
     celldm(4)=    0.00000  celldm(5)=    0.00000  celldm(6)=    0.00000

     crystal axes: (cart. coord. in units of alat)
               a(1) = (  0.5000  0.5000  0.5000 )  
               a(2) = ( -0.5000  0.5000  0.5000 )  
               a(3) = ( -0.5000 -0.5000  0.5000 )  

     reciprocal axes: (cart. coord. in units 2 pi/alat)
               b(1) = (  1.0000  0.0000  1.0000 )  
               b(2) = ( -1.0000  1.0000  0.0000 )  
               b(3) = (  0.0000 -1.0000  1.0000 )  


     Atoms inside the unit cell: 

     Cartesian axes

     site n.  atom      mass           positions (alat units)
        1     Na  22.9900   tau(    1) = (    0.00000    0.00000    0.00000  )

     Computing dynamical matrix for 
                    q = (   0.0000000  -0.3333333   0.3333333 )

      4 Sym.Ops. (no q -> -q+G )


     G cutoff =  405.2198  (   1070 G-vectors)     FFT grid: ( 36, 36, 36)
     G cutoff =  202.6099  (    378 G-vectors)  smooth grid: ( 25, 25, 25)

     number of k points=  4400  Marzari-Vanderbilt smearing, width (Ry)=  0.0200

     PseudoPot. # 1 for Na read from file:
     /home/s1333534/quantum_espresso/qe-6.1/pseudo/Na_pbe_v1.uspp.F.UPF
     MD5 check sum: 76a99c7e9422403d3e93cbc85ab7bccb
     Pseudo is Ultrasoft, Zval =  9.0
     Generated by new atomic code, or converted to UPF format
     Using radial grid of  819 points,  5 beta functions with: 
                l(1) =   0
                l(2) =   0
                l(3) =   1
                l(4) =   1
                l(5) =   2
     Q(r) pseudized with  8 coefficients,  rinner =    1.250   1.250   1.250
                                                       1.250   1.250

     Mode symmetry, C_2v (mm2)  point group:


     Atomic displacements:
     There are   3 irreducible representations

     Representation     1      1 modes -A_1  D_1  S_1  To be done

     Representation     2      1 modes -B_1  D_3  S_3  To be done

     Representation     3      1 modes -B_2  D_4  S_4  To be done



     Alpha used in Ewald sum =   2.8000
     PHONON       :  5m28.13s CPU     6m 1.89s WALL



     Representation #  1 mode #   1

     Self-consistent Calculation

      iter #   1 total cpu time :   368.7 secs   av.it.:   5.7
      thresh= 1.000E-02 alpha_mix =  0.700 |ddv_scf|^2 =  5.973E-04

      iter #   2 total cpu time :   375.4 secs   av.it.:   6.7
      thresh= 2.444E-03 alpha_mix =  0.700 |ddv_scf|^2 =  2.990E-03

      iter #   3 total cpu time :   382.2 secs   av.it.:   6.0
      thresh= 5.468E-03 alpha_mix =  0.700 |ddv_scf|^2 =  6.218E-07

      iter #   4 total cpu time :   390.0 secs   av.it.:   7.7
      thresh= 7.885E-05 alpha_mix =  0.700 |ddv_scf|^2 =  8.925E-09

      iter #   5 total cpu time :   397.9 secs   av.it.:   8.3
      thresh= 9.447E-06 alpha_mix =  0.700 |ddv_scf|^2 =  7.141E-10

      iter #   6 total cpu time :   405.6 secs   av.it.:   8.0
      thresh= 2.672E-06 alpha_mix =  0.700 |ddv_scf|^2 =  1.478E-11

      iter #   7 total cpu time :   413.1 secs   av.it.:   7.6
      thresh= 3.845E-07 alpha_mix =  0.700 |ddv_scf|^2 =  6.522E-14

      iter #   8 total cpu time :   420.7 secs   av.it.:   7.6
      thresh= 2.554E-08 alpha_mix =  0.700 |ddv_scf|^2 =  1.665E-15

      iter #   9 total cpu time :   428.3 secs   av.it.:   7.6
      thresh= 4.080E-09 alpha_mix =  0.700 |ddv_scf|^2 =  6.042E-16

      iter #  10 total cpu time :   435.3 secs   av.it.:   6.8
      thresh= 2.458E-09 alpha_mix =  0.700 |ddv_scf|^2 =  5.911E-17

     End of self-consistent calculation

     Convergence has been achieved 


     Representation #  2 mode #   2

     Self-consistent Calculation

      iter #   1 total cpu time :   442.6 secs   av.it.:   5.5
      thresh= 1.000E-02 alpha_mix =  0.700 |ddv_scf|^2 =  1.306E-05

      iter #   2 total cpu time :   450.8 secs   av.it.:   7.7
      thresh= 3.613E-04 alpha_mix =  0.700 |ddv_scf|^2 =  2.323E-07

      iter #   3 total cpu time :   458.6 secs   av.it.:   7.9
      thresh= 4.820E-05 alpha_mix =  0.700 |ddv_scf|^2 =  4.154E-09

      iter #   4 total cpu time :   465.8 secs   av.it.:   7.4
      thresh= 6.445E-06 alpha_mix =  0.700 |ddv_scf|^2 =  1.396E-11

      iter #   5 total cpu time :   473.4 secs   av.it.:   7.7
      thresh= 3.736E-07 alpha_mix =  0.700 |ddv_scf|^2 =  2.921E-14

      iter #   6 total cpu time :   480.7 secs   av.it.:   7.5
      thresh= 1.709E-08 alpha_mix =  0.700 |ddv_scf|^2 =  6.172E-16

      iter #   7 total cpu time :   488.4 secs   av.it.:   7.7
      thresh= 2.484E-09 alpha_mix =  0.700 |ddv_scf|^2 =  4.306E-19

     End of self-consistent calculation

     Convergence has been achieved 


     Representation #  3 mode #   3

     Self-consistent Calculation

      iter #   1 total cpu time :   495.2 secs   av.it.:   5.5
      thresh= 1.000E-02 alpha_mix =  0.700 |ddv_scf|^2 =  1.449E-05

      iter #   2 total cpu time :   502.8 secs   av.it.:   7.7
      thresh= 3.807E-04 alpha_mix =  0.700 |ddv_scf|^2 =  2.265E-07

      iter #   3 total cpu time :   510.8 secs   av.it.:   7.9
      thresh= 4.759E-05 alpha_mix =  0.700 |ddv_scf|^2 =  7.508E-09

      iter #   4 total cpu time :   518.2 secs   av.it.:   7.5
      thresh= 8.665E-06 alpha_mix =  0.700 |ddv_scf|^2 =  2.723E-11

      iter #   5 total cpu time :   525.7 secs   av.it.:   7.7
      thresh= 5.218E-07 alpha_mix =  0.700 |ddv_scf|^2 =  3.585E-14

      iter #   6 total cpu time :   532.7 secs   av.it.:   6.8
      thresh= 1.893E-08 alpha_mix =  0.700 |ddv_scf|^2 =  1.938E-15

      iter #   7 total cpu time :   540.1 secs   av.it.:   7.6
      thresh= 4.403E-09 alpha_mix =  0.700 |ddv_scf|^2 =  1.785E-18

     End of self-consistent calculation

     Convergence has been achieved 

     Number of q in the star =   12
     List of q in the star:
          1   0.000000000  -0.333333333   0.333333333
          2  -0.333333333   0.000000000   0.333333333
          3   0.333333333   0.000000000   0.333333333
          4   0.000000000   0.333333333   0.333333333
          5   0.333333333   0.333333333   0.000000000
          6  -0.333333333   0.333333333   0.000000000
          7   0.333333333  -0.333333333   0.000000000
          8  -0.333333333  -0.333333333   0.000000000
          9  -0.333333333   0.000000000  -0.333333333
         10   0.000000000  -0.333333333  -0.333333333
         11   0.000000000   0.333333333  -0.333333333
         12   0.333333333   0.000000000  -0.333333333

     Diagonalizing the dynamical matrix

     q = (    0.000000000  -0.333333333   0.333333333 ) 

 **************************************************************************
     freq (    1) =       1.183198 [THz] =      39.467226 [cm-1]
     freq (    2) =       2.894547 [THz] =      96.551683 [cm-1]
     freq (    3) =       5.347938 [THz] =     178.387997 [cm-1]
 **************************************************************************

     Mode symmetry, C_2v (mm2)  point group:

     freq (  1 -  1) =         39.5  [cm-1]   --> B_1  D_3  S_3      
     freq (  2 -  2) =         96.6  [cm-1]   --> B_2  D_4  S_4      
     freq (  3 -  3) =        178.4  [cm-1]   --> A_1  D_1  S_1      

     Calculation of q =    0.0000000   0.5000000  -0.5000000

   Info: using nr1, nr2, nr3 values from input

   Info: using nr1, nr2, nr3 values from input

     Parallelization info
     --------------------
     sticks:   dense  smooth     PW     G-vecs:    dense   smooth      PW
     Min          56      28     10                 1069      377      88
     Max          57      29     11                 1071      380      91
     Sum         905     451    173                17117     6051    1433



     bravais-lattice index     =            3
     lattice parameter (alat)  =       7.0705  a.u.
     unit-cell volume          =     176.7342 (a.u.)^3
     number of atoms/cell      =            1
     number of atomic types    =            1
     number of electrons       =         9.00
     number of Kohn-Sham states=            9
     kinetic-energy cutoff     =      40.0000  Ry
     charge density cutoff     =     320.0000  Ry
     Exchange-correlation      = SLA  PW   PBE  PBE ( 1  4  3  4 0 0)

     celldm(1)=   7.070501  celldm(2)=   0.000000  celldm(3)=   0.000000
     celldm(4)=   0.000000  celldm(5)=   0.000000  celldm(6)=   0.000000

     crystal axes: (cart. coord. in units of alat)
               a(1) = (   0.500000   0.500000   0.500000 )  
               a(2) = (  -0.500000   0.500000   0.500000 )  
               a(3) = (  -0.500000  -0.500000   0.500000 )  

     reciprocal axes: (cart. coord. in units 2 pi/alat)
               b(1) = (  1.000000  0.000000  1.000000 )  
               b(2) = ( -1.000000  1.000000  0.000000 )  
               b(3) = (  0.000000 -1.000000  1.000000 )  


     PseudoPot. # 1 for Na read from file:
     /home/s1333534/quantum_espresso/qe-6.1/pseudo/Na_pbe_v1.uspp.F.UPF
     MD5 check sum: 76a99c7e9422403d3e93cbc85ab7bccb
     Pseudo is Ultrasoft, Zval =  9.0
     Generated by new atomic code, or converted to UPF format
     Using radial grid of  819 points,  5 beta functions with: 
                l(1) =   0
                l(2) =   0
                l(3) =   1
                l(4) =   1
                l(5) =   2
     Q(r) pseudized with  8 coefficients,  rinner =    1.250   1.250   1.250
                                                       1.250   1.250

     atomic species   valence    mass     pseudopotential
        Na             9.00    22.99000     Na( 1.00)

     48 Sym. Ops., with inversion, found



   Cartesian axes

     site n.     atom                  positions (alat units)
         1           Na  tau(   1) = (   0.0000000   0.0000000   0.0000000  )

     number of k points=  2310  Marzari-Vanderbilt smearing, width (Ry)=  0.0200

     Number of k-points >= 100: set verbosity='high' to print them.

     Dense  grid:    17117 G-vectors     FFT dimensions: (  36,  36,  36)

     Smooth grid:     6051 G-vectors     FFT dimensions: (  25,  25,  25)

     Estimated max dynamical RAM per process >       0.59MB

     Estimated total allocated dynamical RAM >      37.61MB

     The potential is recalculated from file :
     ./_ph0/na.bcc.save/charge-density.dat

     Starting wfc are    5 atomic +    4 random wfc

     Band Structure Calculation
     Davidson diagonalization with overlap

     ethr =  1.11E-10,  avg # of iterations = 18.6

     total cpu time spent up to now is      166.4 secs

     End of band structure calculation

     Number of k-points >= 100: set verbosity='high' to print the bands.

     the Fermi energy is     3.3598 ev

     Writing output data file na.bcc.save

                                                                                

     bravais-lattice index     =            3
     lattice parameter (alat)  =       7.0705  a.u.
     unit-cell volume          =     176.7342 (a.u.)^3
     number of atoms/cell      =            1
     number of atomic types    =            1
     kinetic-energy cut-off    =      40.0000  Ry
     charge density cut-off    =     320.0000  Ry
     convergence threshold     =      1.0E-16
     beta                      =       0.7000
     number of iterations used =            4
     Exchange-correlation      = SLA  PW   PBE  PBE ( 1  4  3  4 0 0)


     celldm(1)=    7.07050  celldm(2)=    0.00000  celldm(3)=    0.00000
     celldm(4)=    0.00000  celldm(5)=    0.00000  celldm(6)=    0.00000

     crystal axes: (cart. coord. in units of alat)
               a(1) = (  0.5000  0.5000  0.5000 )  
               a(2) = ( -0.5000  0.5000  0.5000 )  
               a(3) = ( -0.5000 -0.5000  0.5000 )  

     reciprocal axes: (cart. coord. in units 2 pi/alat)
               b(1) = (  1.0000  0.0000  1.0000 )  
               b(2) = ( -1.0000  1.0000  0.0000 )  
               b(3) = (  0.0000 -1.0000  1.0000 )  


     Atoms inside the unit cell: 

     Cartesian axes

     site n.  atom      mass           positions (alat units)
        1     Na  22.9900   tau(    1) = (    0.00000    0.00000    0.00000  )

     Computing dynamical matrix for 
                    q = (   0.0000000   0.5000000  -0.5000000 )

      9 Sym.Ops. (with q -> -q+G )


     G cutoff =  405.2198  (   1070 G-vectors)     FFT grid: ( 36, 36, 36)
     G cutoff =  202.6099  (    378 G-vectors)  smooth grid: ( 25, 25, 25)

     number of k points=  2310  Marzari-Vanderbilt smearing, width (Ry)=  0.0200

     PseudoPot. # 1 for Na read from file:
     /home/s1333534/quantum_espresso/qe-6.1/pseudo/Na_pbe_v1.uspp.F.UPF
     MD5 check sum: 76a99c7e9422403d3e93cbc85ab7bccb
     Pseudo is Ultrasoft, Zval =  9.0
     Generated by new atomic code, or converted to UPF format
     Using radial grid of  819 points,  5 beta functions with: 
                l(1) =   0
                l(2) =   0
                l(3) =   1
                l(4) =   1
                l(5) =   2
     Q(r) pseudized with  8 coefficients,  rinner =    1.250   1.250   1.250
                                                       1.250   1.250

     Mode symmetry, D_2h (mmm)  point group:


     Atomic displacements:
     There are   3 irreducible representations

     Representation     1      1 modes -B_1u  To be done

     Representation     2      1 modes -B_2u  To be done

     Representation     3      1 modes -B_3u  To be done



     Alpha used in Ewald sum =   2.8000
     PHONON       :  8m42.92s CPU     9m38.34s WALL



     Representation #  1 mode #   1

     Self-consistent Calculation

      iter #   1 total cpu time :   582.0 secs   av.it.:   5.5
      thresh= 1.000E-02 alpha_mix =  0.700 |ddv_scf|^2 =  1.524E-05

      iter #   2 total cpu time :   586.0 secs   av.it.:   7.6
      thresh= 3.903E-04 alpha_mix =  0.700 |ddv_scf|^2 =  2.203E-07

      iter #   3 total cpu time :   590.2 secs   av.it.:   7.8
      thresh= 4.693E-05 alpha_mix =  0.700 |ddv_scf|^2 =  9.685E-09

      iter #   4 total cpu time :   594.1 secs   av.it.:   7.3
      thresh= 9.841E-06 alpha_mix =  0.700 |ddv_scf|^2 =  3.518E-11

      iter #   5 total cpu time :   598.5 secs   av.it.:   7.6
      thresh= 5.932E-07 alpha_mix =  0.700 |ddv_scf|^2 =  3.711E-14

      iter #   6 total cpu time :   602.1 secs   av.it.:   6.5
      thresh= 1.926E-08 alpha_mix =  0.700 |ddv_scf|^2 =  2.275E-15

      iter #   7 total cpu time :   606.1 secs   av.it.:   7.4
      thresh= 4.769E-09 alpha_mix =  0.700 |ddv_scf|^2 =  1.695E-18

     End of self-consistent calculation

     Convergence has been achieved 


     Representation #  2 mode #   2

     Self-consistent Calculation

      iter #   1 total cpu time :   610.1 secs   av.it.:   5.5
      thresh= 1.000E-02 alpha_mix =  0.700 |ddv_scf|^2 =  1.329E-05

      iter #   2 total cpu time :   614.2 secs   av.it.:   7.7
      thresh= 3.645E-04 alpha_mix =  0.700 |ddv_scf|^2 =  2.267E-07

      iter #   3 total cpu time :   618.3 secs   av.it.:   7.9
      thresh= 4.762E-05 alpha_mix =  0.700 |ddv_scf|^2 =  4.912E-09

      iter #   4 total cpu time :   622.2 secs   av.it.:   7.2
      thresh= 7.008E-06 alpha_mix =  0.700 |ddv_scf|^2 =  1.538E-11

      iter #   5 total cpu time :   626.3 secs   av.it.:   7.6
      thresh= 3.922E-07 alpha_mix =  0.700 |ddv_scf|^2 =  2.515E-14

      iter #   6 total cpu time :   630.6 secs   av.it.:   7.3
      thresh= 1.586E-08 alpha_mix =  0.700 |ddv_scf|^2 =  5.925E-16

      iter #   7 total cpu time :   634.7 secs   av.it.:   7.6
      thresh= 2.434E-09 alpha_mix =  0.700 |ddv_scf|^2 =  1.908E-19

     End of self-consistent calculation

     Convergence has been achieved 


     Representation #  3 mode #   3

     Self-consistent Calculation

      iter #   1 total cpu time :   638.5 secs   av.it.:   5.7
      thresh= 1.000E-02 alpha_mix =  0.700 |ddv_scf|^2 =  1.223E-04

      iter #   2 total cpu time :   642.5 secs   av.it.:   6.8
      thresh= 1.106E-03 alpha_mix =  0.700 |ddv_scf|^2 =  5.737E-05

      iter #   3 total cpu time :   646.2 secs   av.it.:   6.8
      thresh= 7.574E-04 alpha_mix =  0.700 |ddv_scf|^2 =  7.976E-08

      iter #   4 total cpu time :   650.4 secs   av.it.:   7.8
      thresh= 2.824E-05 alpha_mix =  0.700 |ddv_scf|^2 =  2.546E-10

      iter #   5 total cpu time :   654.1 secs   av.it.:   6.6
      thresh= 1.596E-06 alpha_mix =  0.700 |ddv_scf|^2 =  5.621E-12

      iter #   6 total cpu time :   658.1 secs   av.it.:   6.9
      thresh= 2.371E-07 alpha_mix =  0.700 |ddv_scf|^2 =  1.576E-14

      iter #   7 total cpu time :   662.1 secs   av.it.:   7.1
      thresh= 1.256E-08 alpha_mix =  0.700 |ddv_scf|^2 =  2.669E-17

     End of self-consistent calculation

     Convergence has been achieved 

     Number of q in the star =    6
     List of q in the star:
          1   0.000000000   0.500000000  -0.500000000
          2  -0.500000000  -0.500000000   0.000000000
          3   0.500000000  -0.500000000   0.000000000
          4   0.500000000   0.000000000   0.500000000
          5   0.000000000  -0.500000000  -0.500000000
          6   0.500000000   0.000000000  -0.500000000

     Diagonalizing the dynamical matrix

     q = (    0.000000000   0.500000000  -0.500000000 ) 

 **************************************************************************
     freq (    1) =       1.333695 [THz] =      44.487291 [cm-1]
     freq (    2) =       3.339997 [THz] =     111.410324 [cm-1]
     freq (    3) =       6.204366 [THz] =     206.955382 [cm-1]
 **************************************************************************

     Mode symmetry, D_2h (mmm)  point group:

     freq (  1 -  1) =         44.5  [cm-1]   --> B_2u               
     freq (  2 -  2) =        111.4  [cm-1]   --> B_1u               
     freq (  3 -  3) =        207.0  [cm-1]   --> B_3u               

     Calculation of q =   -0.1666667  -0.1666667   0.3333333

   Info: using nr1, nr2, nr3 values from input

   Info: using nr1, nr2, nr3 values from input

     Parallelization info
     --------------------
     sticks:   dense  smooth     PW     G-vecs:    dense   smooth      PW
     Min          56      28     10                 1069      377      80
     Max          57      29     11                 1071      380      81
     Sum         905     451    165                17117     6051    1289



     bravais-lattice index     =            3
     lattice parameter (alat)  =       7.0705  a.u.
     unit-cell volume          =     176.7342 (a.u.)^3
     number of atoms/cell      =            1
     number of atomic types    =            1
     number of electrons       =         9.00
     number of Kohn-Sham states=            9
     kinetic-energy cutoff     =      40.0000  Ry
     charge density cutoff     =     320.0000  Ry
     Exchange-correlation      = SLA  PW   PBE  PBE ( 1  4  3  4 0 0)

     celldm(1)=   7.070501  celldm(2)=   0.000000  celldm(3)=   0.000000
     celldm(4)=   0.000000  celldm(5)=   0.000000  celldm(6)=   0.000000

     crystal axes: (cart. coord. in units of alat)
               a(1) = (   0.500000   0.500000   0.500000 )  
               a(2) = (  -0.500000   0.500000   0.500000 )  
               a(3) = (  -0.500000  -0.500000   0.500000 )  

     reciprocal axes: (cart. coord. in units 2 pi/alat)
               b(1) = (  1.000000  0.000000  1.000000 )  
               b(2) = ( -1.000000  1.000000  0.000000 )  
               b(3) = (  0.000000 -1.000000  1.000000 )  


     PseudoPot. # 1 for Na read from file:
     /home/s1333534/quantum_espresso/qe-6.1/pseudo/Na_pbe_v1.uspp.F.UPF
     MD5 check sum: 76a99c7e9422403d3e93cbc85ab7bccb
     Pseudo is Ultrasoft, Zval =  9.0
     Generated by new atomic code, or converted to UPF format
     Using radial grid of  819 points,  5 beta functions with: 
                l(1) =   0
                l(2) =   0
                l(3) =   1
                l(4) =   1
                l(5) =   2
     Q(r) pseudized with  8 coefficients,  rinner =    1.250   1.250   1.250
                                                       1.250   1.250

     atomic species   valence    mass     pseudopotential
        Na             9.00    22.99000     Na( 1.00)

     48 Sym. Ops., with inversion, found



   Cartesian axes

     site n.     atom                  positions (alat units)
         1           Na  tau(   1) = (   0.0000000   0.0000000   0.0000000  )

     number of k points=  8400  Marzari-Vanderbilt smearing, width (Ry)=  0.0200

     Number of k-points >= 100: set verbosity='high' to print them.

     Dense  grid:    17117 G-vectors     FFT dimensions: (  36,  36,  36)

     Smooth grid:     6051 G-vectors     FFT dimensions: (  25,  25,  25)

     Estimated max dynamical RAM per process >       0.59MB

     Estimated total allocated dynamical RAM >      37.61MB

     The potential is recalculated from file :
     ./_ph0/na.bcc.save/charge-density.dat

     Starting wfc are    5 atomic +    4 random wfc

     Band Structure Calculation
     Davidson diagonalization with overlap

     ethr =  1.11E-10,  avg # of iterations = 18.6

     total cpu time spent up to now is      279.8 secs

     End of band structure calculation

     Number of k-points >= 100: set verbosity='high' to print the bands.

     the Fermi energy is     3.3598 ev

     Writing output data file na.bcc.save

                                                                                

     bravais-lattice index     =            3
     lattice parameter (alat)  =       7.0705  a.u.
     unit-cell volume          =     176.7342 (a.u.)^3
     number of atoms/cell      =            1
     number of atomic types    =            1
     kinetic-energy cut-off    =      40.0000  Ry
     charge density cut-off    =     320.0000  Ry
     convergence threshold     =      1.0E-16
     beta                      =       0.7000
     number of iterations used =            4
     Exchange-correlation      = SLA  PW   PBE  PBE ( 1  4  3  4 0 0)


     celldm(1)=    7.07050  celldm(2)=    0.00000  celldm(3)=    0.00000
     celldm(4)=    0.00000  celldm(5)=    0.00000  celldm(6)=    0.00000

     crystal axes: (cart. coord. in units of alat)
               a(1) = (  0.5000  0.5000  0.5000 )  
               a(2) = ( -0.5000  0.5000  0.5000 )  
               a(3) = ( -0.5000 -0.5000  0.5000 )  

     reciprocal axes: (cart. coord. in units 2 pi/alat)
               b(1) = (  1.0000  0.0000  1.0000 )  
               b(2) = ( -1.0000  1.0000  0.0000 )  
               b(3) = (  0.0000 -1.0000  1.0000 )  


     Atoms inside the unit cell: 

     Cartesian axes

     site n.  atom      mass           positions (alat units)
        1     Na  22.9900   tau(    1) = (    0.00000    0.00000    0.00000  )

     Computing dynamical matrix for 
                    q = (  -0.1666667  -0.1666667   0.3333333 )

      2 Sym.Ops. (no q -> -q+G )


     G cutoff =  405.2198  (   1070 G-vectors)     FFT grid: ( 36, 36, 36)
     G cutoff =  202.6099  (    378 G-vectors)  smooth grid: ( 25, 25, 25)

     number of k points=  8400  Marzari-Vanderbilt smearing, width (Ry)=  0.0200

     PseudoPot. # 1 for Na read from file:
     /home/s1333534/quantum_espresso/qe-6.1/pseudo/Na_pbe_v1.uspp.F.UPF
     MD5 check sum: 76a99c7e9422403d3e93cbc85ab7bccb
     Pseudo is Ultrasoft, Zval =  9.0
     Generated by new atomic code, or converted to UPF format
     Using radial grid of  819 points,  5 beta functions with: 
                l(1) =   0
                l(2) =   0
                l(3) =   1
                l(4) =   1
                l(5) =   2
     Q(r) pseudized with  8 coefficients,  rinner =    1.250   1.250   1.250
                                                       1.250   1.250

     Mode symmetry, C_s (m)     point group:


     Atomic displacements:
     There are   3 irreducible representations

     Representation     1      1 modes -A'  To be done

     Representation     2      1 modes -A'  To be done

     Representation     3      1 modes -A''  To be done



     Alpha used in Ewald sum =   2.8000
     PHONON       : 12m 8.46s CPU    13m19.64s WALL



     Representation #  1 mode #   1

     Self-consistent Calculation

      iter #   1 total cpu time :   813.2 secs   av.it.:   5.6
      thresh= 1.000E-02 alpha_mix =  0.700 |ddv_scf|^2 =  1.481E-04

      iter #   2 total cpu time :   827.4 secs   av.it.:   7.3
      thresh= 1.217E-03 alpha_mix =  0.700 |ddv_scf|^2 =  1.422E-03

      iter #   3 total cpu time :   839.0 secs   av.it.:   5.5
      thresh= 3.771E-03 alpha_mix =  0.700 |ddv_scf|^2 =  1.627E-07

      iter #   4 total cpu time :   854.5 secs   av.it.:   8.3
      thresh= 4.034E-05 alpha_mix =  0.700 |ddv_scf|^2 =  5.033E-09

      iter #   5 total cpu time :   869.4 secs   av.it.:   7.9
      thresh= 7.095E-06 alpha_mix =  0.700 |ddv_scf|^2 =  2.399E-10

      iter #   6 total cpu time :   884.4 secs   av.it.:   8.2
      thresh= 1.549E-06 alpha_mix =  0.700 |ddv_scf|^2 =  2.477E-11

      iter #   7 total cpu time :   898.8 secs   av.it.:   7.7
      thresh= 4.977E-07 alpha_mix =  0.700 |ddv_scf|^2 =  6.435E-11

      iter #   8 total cpu time :   912.7 secs   av.it.:   6.9
      thresh= 8.022E-07 alpha_mix =  0.700 |ddv_scf|^2 =  3.574E-11

      iter #   9 total cpu time :   925.2 secs   av.it.:   6.2
      thresh= 5.979E-07 alpha_mix =  0.700 |ddv_scf|^2 =  9.491E-13

      iter #  10 total cpu time :   939.0 secs   av.it.:   7.3
      thresh= 9.742E-08 alpha_mix =  0.700 |ddv_scf|^2 =  6.874E-15

      iter #  11 total cpu time :   954.0 secs   av.it.:   8.1
      thresh= 8.291E-09 alpha_mix =  0.700 |ddv_scf|^2 =  2.352E-16

      iter #  12 total cpu time :   968.9 secs   av.it.:   7.7
      thresh= 1.534E-09 alpha_mix =  0.700 |ddv_scf|^2 =  2.179E-17

     End of self-consistent calculation

     Convergence has been achieved 


     Representation #  2 mode #   2

     Self-consistent Calculation

      iter #   1 total cpu time :   982.6 secs   av.it.:   5.8
      thresh= 1.000E-02 alpha_mix =  0.700 |ddv_scf|^2 =  1.210E-03

      iter #   2 total cpu time :   996.0 secs   av.it.:   6.7
      thresh= 3.479E-03 alpha_mix =  0.700 |ddv_scf|^2 =  1.259E-02

      iter #   3 total cpu time :  1009.0 secs   av.it.:   5.6
      thresh= 1.000E-02 alpha_mix =  0.700 |ddv_scf|^2 =  1.299E-06

      iter #   4 total cpu time :  1023.4 secs   av.it.:   7.6
      thresh= 1.140E-04 alpha_mix =  0.700 |ddv_scf|^2 =  5.968E-09

      iter #   5 total cpu time :  1038.5 secs   av.it.:   8.4
      thresh= 7.725E-06 alpha_mix =  0.700 |ddv_scf|^2 =  1.126E-09

      iter #   6 total cpu time :  1053.4 secs   av.it.:   8.0
      thresh= 3.355E-06 alpha_mix =  0.700 |ddv_scf|^2 =  1.232E-11

      iter #   7 total cpu time :  1068.3 secs   av.it.:   8.1
      thresh= 3.510E-07 alpha_mix =  0.700 |ddv_scf|^2 =  4.467E-12

      iter #   8 total cpu time :  1082.0 secs   av.it.:   7.1
      thresh= 2.113E-07 alpha_mix =  0.700 |ddv_scf|^2 =  8.640E-12

      iter #   9 total cpu time :  1095.0 secs   av.it.:   6.8
      thresh= 2.939E-07 alpha_mix =  0.700 |ddv_scf|^2 =  8.649E-13

      iter #  10 total cpu time :  1108.6 secs   av.it.:   7.1
      thresh= 9.300E-08 alpha_mix =  0.700 |ddv_scf|^2 =  4.661E-14

      iter #  11 total cpu time :  1122.5 secs   av.it.:   7.7
      thresh= 2.159E-08 alpha_mix =  0.700 |ddv_scf|^2 =  1.713E-16

      iter #  12 total cpu time :  1137.1 secs   av.it.:   8.2
      thresh= 1.309E-09 alpha_mix =  0.700 |ddv_scf|^2 =  3.370E-17

     End of self-consistent calculation

     Convergence has been achieved 


     Representation #  3 mode #   3

     Self-consistent Calculation

      iter #   1 total cpu time :  1150.0 secs   av.it.:   5.5
      thresh= 1.000E-02 alpha_mix =  0.700 |ddv_scf|^2 =  1.534E-05

      iter #   2 total cpu time :  1164.5 secs   av.it.:   7.8
      thresh= 3.917E-04 alpha_mix =  0.700 |ddv_scf|^2 =  2.107E-07

      iter #   3 total cpu time :  1180.1 secs   av.it.:   8.0
      thresh= 4.590E-05 alpha_mix =  0.700 |ddv_scf|^2 =  8.852E-09

      iter #   4 total cpu time :  1194.4 secs   av.it.:   7.7
      thresh= 9.408E-06 alpha_mix =  0.700 |ddv_scf|^2 =  7.015E-11

      iter #   5 total cpu time :  1208.8 secs   av.it.:   7.5
      thresh= 8.376E-07 alpha_mix =  0.700 |ddv_scf|^2 =  7.052E-14

      iter #   6 total cpu time :  1222.5 secs   av.it.:   7.4
      thresh= 2.656E-08 alpha_mix =  0.700 |ddv_scf|^2 =  3.298E-15

      iter #   7 total cpu time :  1236.8 secs   av.it.:   7.5
      thresh= 5.743E-09 alpha_mix =  0.700 |ddv_scf|^2 =  1.121E-17

     End of self-consistent calculation

     Convergence has been achieved 

     Number of q in the star =   24
     List of q in the star:
          1  -0.166666667  -0.166666667   0.333333333
          2  -0.166666667  -0.333333333   0.166666667
          3   0.166666667  -0.333333333   0.166666667
          4  -0.166666667   0.333333333  -0.166666667
          5   0.166666667   0.333333333  -0.166666667
          6   0.166666667   0.166666667  -0.333333333
          7  -0.166666667   0.166666667  -0.333333333
          8   0.333333333   0.166666667  -0.166666667
          9  -0.333333333   0.166666667   0.166666667
         10   0.333333333  -0.166666667   0.166666667
         11  -0.333333333  -0.166666667  -0.166666667
         12  -0.166666667  -0.166666667  -0.333333333
         13  -0.166666667   0.333333333   0.166666667
         14  -0.166666667  -0.333333333  -0.166666667
         15  -0.166666667   0.166666667   0.333333333
         16   0.166666667  -0.166666667   0.333333333
         17   0.166666667  -0.333333333  -0.166666667
         18  -0.333333333   0.166666667  -0.166666667
         19   0.333333333   0.166666667   0.166666667
         20  -0.333333333  -0.166666667   0.166666667
         21   0.333333333  -0.166666667  -0.166666667
         22   0.166666667  -0.166666667  -0.333333333
         23   0.166666667   0.166666667   0.333333333
         24   0.166666667   0.333333333   0.166666667

     Diagonalizing the dynamical matrix

     q = (   -0.166666667  -0.166666667   0.333333333 ) 

 **************************************************************************
     freq (    1) =       1.715601 [THz] =      57.226294 [cm-1]
     freq (    2) =       2.761089 [THz] =      92.100028 [cm-1]
     freq (    3) =       4.684507 [THz] =     156.258325 [cm-1]
 **************************************************************************

     Mode symmetry, C_s (m)     point group:

     freq (  1 -  1) =         57.2  [cm-1]   --> A'                 
     freq (  2 -  2) =         92.1  [cm-1]   --> A''                
     freq (  3 -  3) =        156.3  [cm-1]   --> A'                 

     Calculation of q =   -0.1666667   0.6666667  -0.5000000

   Info: using nr1, nr2, nr3 values from input

   Info: using nr1, nr2, nr3 values from input

     Parallelization info
     --------------------
     sticks:   dense  smooth     PW     G-vecs:    dense   smooth      PW
     Min          56      28     10                 1069      377      90
     Max          57      29     11                 1071      380      94
     Sum         905     451    173                17117     6051    1481



     bravais-lattice index     =            3
     lattice parameter (alat)  =       7.0705  a.u.
     unit-cell volume          =     176.7342 (a.u.)^3
     number of atoms/cell      =            1
     number of atomic types    =            1
     number of electrons       =         9.00
     number of Kohn-Sham states=            9
     kinetic-energy cutoff     =      40.0000  Ry
     charge density cutoff     =     320.0000  Ry
     Exchange-correlation      = SLA  PW   PBE  PBE ( 1  4  3  4 0 0)

     celldm(1)=   7.070501  celldm(2)=   0.000000  celldm(3)=   0.000000
     celldm(4)=   0.000000  celldm(5)=   0.000000  celldm(6)=   0.000000

     crystal axes: (cart. coord. in units of alat)
               a(1) = (   0.500000   0.500000   0.500000 )  
               a(2) = (  -0.500000   0.500000   0.500000 )  
               a(3) = (  -0.500000  -0.500000   0.500000 )  

     reciprocal axes: (cart. coord. in units 2 pi/alat)
               b(1) = (  1.000000  0.000000  1.000000 )  
               b(2) = ( -1.000000  1.000000  0.000000 )  
               b(3) = (  0.000000 -1.000000  1.000000 )  


     PseudoPot. # 1 for Na read from file:
     /home/s1333534/quantum_espresso/qe-6.1/pseudo/Na_pbe_v1.uspp.F.UPF
     MD5 check sum: 76a99c7e9422403d3e93cbc85ab7bccb
     Pseudo is Ultrasoft, Zval =  9.0
     Generated by new atomic code, or converted to UPF format
     Using radial grid of  819 points,  5 beta functions with: 
                l(1) =   0
                l(2) =   0
                l(3) =   1
                l(4) =   1
                l(5) =   2
     Q(r) pseudized with  8 coefficients,  rinner =    1.250   1.250   1.250
                                                       1.250   1.250

     atomic species   valence    mass     pseudopotential
        Na             9.00    22.99000     Na( 1.00)

     48 Sym. Ops., with inversion, found



   Cartesian axes

     site n.     atom                  positions (alat units)
         1           Na  tau(   1) = (   0.0000000   0.0000000   0.0000000  )

     number of k points= 16000  Marzari-Vanderbilt smearing, width (Ry)=  0.0200

     Number of k-points >= 100: set verbosity='high' to print them.

     Dense  grid:    17117 G-vectors     FFT dimensions: (  36,  36,  36)

     Smooth grid:     6051 G-vectors     FFT dimensions: (  25,  25,  25)

     Estimated max dynamical RAM per process >       0.59MB

     Estimated total allocated dynamical RAM >      37.61MB

     The potential is recalculated from file :
     ./_ph0/na.bcc.save/charge-density.dat

     Starting wfc are    5 atomic +    4 random wfc

     Band Structure Calculation
     Davidson diagonalization with overlap

     ethr =  1.11E-10,  avg # of iterations = 18.5

     total cpu time spent up to now is      504.5 secs

     End of band structure calculation

     Number of k-points >= 100: set verbosity='high' to print the bands.

     the Fermi energy is     3.3598 ev

     Writing output data file na.bcc.save

                                                                                

     bravais-lattice index     =            3
     lattice parameter (alat)  =       7.0705  a.u.
     unit-cell volume          =     176.7342 (a.u.)^3
     number of atoms/cell      =            1
     number of atomic types    =            1
     kinetic-energy cut-off    =      40.0000  Ry
     charge density cut-off    =     320.0000  Ry
     convergence threshold     =      1.0E-16
     beta                      =       0.7000
     number of iterations used =            4
     Exchange-correlation      = SLA  PW   PBE  PBE ( 1  4  3  4 0 0)


     celldm(1)=    7.07050  celldm(2)=    0.00000  celldm(3)=    0.00000
     celldm(4)=    0.00000  celldm(5)=    0.00000  celldm(6)=    0.00000

     crystal axes: (cart. coord. in units of alat)
               a(1) = (  0.5000  0.5000  0.5000 )  
               a(2) = ( -0.5000  0.5000  0.5000 )  
               a(3) = ( -0.5000 -0.5000  0.5000 )  

     reciprocal axes: (cart. coord. in units 2 pi/alat)
               b(1) = (  1.0000  0.0000  1.0000 )  
               b(2) = ( -1.0000  1.0000  0.0000 )  
               b(3) = (  0.0000 -1.0000  1.0000 )  


     Atoms inside the unit cell: 

     Cartesian axes

     site n.  atom      mass           positions (alat units)
        1     Na  22.9900   tau(    1) = (    0.00000    0.00000    0.00000  )

     Computing dynamical matrix for 
                    q = (  -0.1666667   0.6666667  -0.5000000 )

     No symmetry!

     G cutoff =  405.2198  (   1070 G-vectors)     FFT grid: ( 36, 36, 36)
     G cutoff =  202.6099  (    378 G-vectors)  smooth grid: ( 25, 25, 25)

     number of k points= 16000  Marzari-Vanderbilt smearing, width (Ry)=  0.0200

     PseudoPot. # 1 for Na read from file:
     /home/s1333534/quantum_espresso/qe-6.1/pseudo/Na_pbe_v1.uspp.F.UPF
     MD5 check sum: 76a99c7e9422403d3e93cbc85ab7bccb
     Pseudo is Ultrasoft, Zval =  9.0
     Generated by new atomic code, or converted to UPF format
     Using radial grid of  819 points,  5 beta functions with: 
                l(1) =   0
                l(2) =   0
                l(3) =   1
                l(4) =   1
                l(5) =   2
     Q(r) pseudized with  8 coefficients,  rinner =    1.250   1.250   1.250
                                                       1.250   1.250

     Mode symmetry, C_1 (1)     point group:


     Atomic displacements:
     There are   3 irreducible representations

     Representation     1      1 modes -A  To be done

     Representation     2      1 modes -A  To be done

     Representation     3      1 modes -A  To be done



     Alpha used in Ewald sum =   2.8000
     PHONON       : 22m39.66s CPU    24m56.14s WALL



     Representation #  1 mode #   1

     Self-consistent Calculation

      iter #   1 total cpu time :  1521.2 secs   av.it.:   5.7
      thresh= 1.000E-02 alpha_mix =  0.700 |ddv_scf|^2 =  1.691E-05

      iter #   2 total cpu time :  1550.3 secs   av.it.:   8.0
      thresh= 4.112E-04 alpha_mix =  0.700 |ddv_scf|^2 =  2.008E-06

      iter #   3 total cpu time :  1578.5 secs   av.it.:   7.5
      thresh= 1.417E-04 alpha_mix =  0.700 |ddv_scf|^2 =  8.108E-07

      iter #   4 total cpu time :  1605.1 secs   av.it.:   7.4
      thresh= 9.004E-05 alpha_mix =  0.700 |ddv_scf|^2 =  4.524E-09

      iter #   5 total cpu time :  1633.7 secs   av.it.:   7.8
      thresh= 6.726E-06 alpha_mix =  0.700 |ddv_scf|^2 =  3.592E-10

      iter #   6 total cpu time :  1662.2 secs   av.it.:   7.9
      thresh= 1.895E-06 alpha_mix =  0.700 |ddv_scf|^2 =  4.970E-12

      iter #   7 total cpu time :  1692.2 secs   av.it.:   8.3
      thresh= 2.229E-07 alpha_mix =  0.700 |ddv_scf|^2 =  3.010E-13

      iter #   8 total cpu time :  1722.8 secs   av.it.:   8.4
      thresh= 5.486E-08 alpha_mix =  0.700 |ddv_scf|^2 =  1.399E-14

      iter #   9 total cpu time :  1752.2 secs   av.it.:   8.3
      thresh= 1.183E-08 alpha_mix =  0.700 |ddv_scf|^2 =  3.543E-16

      iter #  10 total cpu time :  1780.1 secs   av.it.:   7.5
      thresh= 1.882E-09 alpha_mix =  0.700 |ddv_scf|^2 =  1.278E-16

      iter #  11 total cpu time :  1807.1 secs   av.it.:   7.4
      thresh= 1.131E-09 alpha_mix =  0.700 |ddv_scf|^2 =  2.117E-18

     End of self-consistent calculation

     Convergence has been achieved 


     Representation #  2 mode #   2

     Self-consistent Calculation

      iter #   1 total cpu time :  1833.5 secs   av.it.:   5.8
      thresh= 1.000E-02 alpha_mix =  0.700 |ddv_scf|^2 =  7.366E-05

      iter #   2 total cpu time :  1862.1 secs   av.it.:   7.5
      thresh= 8.583E-04 alpha_mix =  0.700 |ddv_scf|^2 =  5.842E-05

      iter #   3 total cpu time :  1888.8 secs   av.it.:   7.0
      thresh= 7.643E-04 alpha_mix =  0.700 |ddv_scf|^2 =  1.018E-07

      iter #   4 total cpu time :  1918.7 secs   av.it.:   8.3
      thresh= 3.190E-05 alpha_mix =  0.700 |ddv_scf|^2 =  3.918E-09

      iter #   5 total cpu time :  1947.5 secs   av.it.:   8.4
      thresh= 6.259E-06 alpha_mix =  0.700 |ddv_scf|^2 =  4.144E-10

      iter #   6 total cpu time :  1976.3 secs   av.it.:   8.2
      thresh= 2.036E-06 alpha_mix =  0.700 |ddv_scf|^2 =  9.220E-12

      iter #   7 total cpu time :  2004.6 secs   av.it.:   7.7
      thresh= 3.036E-07 alpha_mix =  0.700 |ddv_scf|^2 =  6.998E-13

      iter #   8 total cpu time :  2032.8 secs   av.it.:   7.8
      thresh= 8.365E-08 alpha_mix =  0.700 |ddv_scf|^2 =  2.980E-14

      iter #   9 total cpu time :  2060.8 secs   av.it.:   7.5
      thresh= 1.726E-08 alpha_mix =  0.700 |ddv_scf|^2 =  1.558E-15

      iter #  10 total cpu time :  2089.5 secs   av.it.:   7.6
      thresh= 3.947E-09 alpha_mix =  0.700 |ddv_scf|^2 =  3.074E-17

     End of self-consistent calculation

     Convergence has been achieved 


     Representation #  3 mode #   3

     Self-consistent Calculation

      iter #   1 total cpu time :  2115.5 secs   av.it.:   5.8
      thresh= 1.000E-02 alpha_mix =  0.700 |ddv_scf|^2 =  8.263E-05

      iter #   2 total cpu time :  2144.4 secs   av.it.:   7.4
      thresh= 9.090E-04 alpha_mix =  0.700 |ddv_scf|^2 =  5.899E-05

      iter #   3 total cpu time :  2170.4 secs   av.it.:   7.0
      thresh= 7.680E-04 alpha_mix =  0.700 |ddv_scf|^2 =  3.618E-07

      iter #   4 total cpu time :  2198.3 secs   av.it.:   7.8
      thresh= 6.015E-05 alpha_mix =  0.700 |ddv_scf|^2 =  8.668E-09

      iter #   5 total cpu time :  2227.5 secs   av.it.:   8.3
      thresh= 9.310E-06 alpha_mix =  0.700 |ddv_scf|^2 =  2.387E-10

      iter #   6 total cpu time :  2256.9 secs   av.it.:   8.3
      thresh= 1.545E-06 alpha_mix =  0.700 |ddv_scf|^2 =  1.939E-11

      iter #   7 total cpu time :  2285.5 secs   av.it.:   8.2
      thresh= 4.403E-07 alpha_mix =  0.700 |ddv_scf|^2 =  9.315E-13

      iter #   8 total cpu time :  2315.2 secs   av.it.:   8.3
      thresh= 9.652E-08 alpha_mix =  0.700 |ddv_scf|^2 =  5.783E-14

      iter #   9 total cpu time :  2342.3 secs   av.it.:   7.4
      thresh= 2.405E-08 alpha_mix =  0.700 |ddv_scf|^2 =  3.485E-15

      iter #  10 total cpu time :  2370.2 secs   av.it.:   7.8
      thresh= 5.904E-09 alpha_mix =  0.700 |ddv_scf|^2 =  5.297E-17

     End of self-consistent calculation

     Convergence has been achieved 

     Number of q in the star =   48
     List of q in the star:
          1  -0.166666667   0.666666667  -0.500000000
          2   0.666666667  -0.166666667  -0.500000000
          3  -0.166666667   0.500000000  -0.666666667
          4   0.166666667   0.500000000  -0.666666667
          5  -0.166666667  -0.500000000   0.666666667
          6   0.166666667  -0.500000000   0.666666667
          7   0.166666667  -0.666666667   0.500000000
          8  -0.166666667  -0.666666667   0.500000000
          9  -0.500000000  -0.666666667  -0.166666667
         10   0.500000000  -0.666666667   0.166666667
         11  -0.500000000   0.666666667   0.166666667
         12   0.500000000   0.666666667  -0.166666667
         13   0.666666667  -0.166666667   0.500000000
         14   0.666666667  -0.500000000  -0.166666667
         15  -0.166666667  -0.500000000  -0.666666667
         16  -0.166666667   0.500000000   0.666666667
         17   0.666666667   0.166666667  -0.500000000
         18   0.166666667   0.666666667  -0.500000000
         19   0.666666667   0.500000000   0.166666667
         20  -0.666666667   0.500000000  -0.166666667
         21   0.500000000   0.166666667   0.666666667
         22  -0.500000000   0.166666667  -0.666666667
         23   0.500000000   0.666666667   0.166666667
         24   0.500000000  -0.166666667  -0.666666667
         25  -0.666666667   0.166666667   0.500000000
         26  -0.166666667   0.666666667   0.500000000
         27  -0.500000000  -0.166666667   0.666666667
         28   0.166666667   0.666666667   0.500000000
         29  -0.500000000   0.666666667  -0.166666667
         30  -0.666666667  -0.166666667  -0.500000000
         31  -0.666666667  -0.166666667   0.500000000
         32   0.666666667   0.166666667   0.500000000
         33   0.166666667  -0.666666667  -0.500000000
         34  -0.666666667   0.166666667  -0.500000000
         35   0.500000000  -0.666666667  -0.166666667
         36  -0.500000000  -0.666666667   0.166666667
         37  -0.166666667  -0.666666667  -0.500000000
         38  -0.666666667  -0.500000000   0.166666667
         39   0.166666667   0.500000000   0.666666667
         40   0.166666667  -0.500000000  -0.666666667
         41  -0.666666667   0.500000000   0.166666667
         42   0.666666667   0.500000000  -0.166666667
         43  -0.666666667  -0.500000000  -0.166666667
         44   0.666666667  -0.500000000   0.166666667
         45   0.500000000   0.166666667  -0.666666667
         46   0.500000000  -0.166666667   0.666666667
         47  -0.500000000  -0.166666667  -0.666666667
         48  -0.500000000   0.166666667   0.666666667

     Diagonalizing the dynamical matrix

     q = (   -0.166666667   0.666666667  -0.500000000 ) 

 **************************************************************************
     freq (    1) =       2.092270 [THz] =      69.790630 [cm-1]
     freq (    2) =       3.871647 [THz] =     129.144237 [cm-1]
     freq (    3) =       5.824941 [THz] =     194.299125 [cm-1]
 **************************************************************************

     Mode symmetry, C_1 (1)     point group:

     freq (  1 -  1) =         69.8  [cm-1]   --> A                  
     freq (  2 -  2) =        129.1  [cm-1]   --> A                  
     freq (  3 -  3) =        194.3  [cm-1]   --> A                  

     Calculation of q =   -0.3333333   0.6666667  -0.3333333

   Info: using nr1, nr2, nr3 values from input

   Info: using nr1, nr2, nr3 values from input

     Parallelization info
     --------------------
     sticks:   dense  smooth     PW     G-vecs:    dense   smooth      PW
     Min          56      28     10                 1069      377      90
     Max          57      29     11                 1071      380      94
     Sum         905     451    173                17117     6051    1481



     bravais-lattice index     =            3
     lattice parameter (alat)  =       7.0705  a.u.
     unit-cell volume          =     176.7342 (a.u.)^3
     number of atoms/cell      =            1
     number of atomic types    =            1
     number of electrons       =         9.00
     number of Kohn-Sham states=            9
     kinetic-energy cutoff     =      40.0000  Ry
     charge density cutoff     =     320.0000  Ry
     Exchange-correlation      = SLA  PW   PBE  PBE ( 1  4  3  4 0 0)

     celldm(1)=   7.070501  celldm(2)=   0.000000  celldm(3)=   0.000000
     celldm(4)=   0.000000  celldm(5)=   0.000000  celldm(6)=   0.000000

     crystal axes: (cart. coord. in units of alat)
               a(1) = (   0.500000   0.500000   0.500000 )  
               a(2) = (  -0.500000   0.500000   0.500000 )  
               a(3) = (  -0.500000  -0.500000   0.500000 )  

     reciprocal axes: (cart. coord. in units 2 pi/alat)
               b(1) = (  1.000000  0.000000  1.000000 )  
               b(2) = ( -1.000000  1.000000  0.000000 )  
               b(3) = (  0.000000 -1.000000  1.000000 )  


     PseudoPot. # 1 for Na read from file:
     /home/s1333534/quantum_espresso/qe-6.1/pseudo/Na_pbe_v1.uspp.F.UPF
     MD5 check sum: 76a99c7e9422403d3e93cbc85ab7bccb
     Pseudo is Ultrasoft, Zval =  9.0
     Generated by new atomic code, or converted to UPF format
     Using radial grid of  819 points,  5 beta functions with: 
                l(1) =   0
                l(2) =   0
                l(3) =   1
                l(4) =   1
                l(5) =   2
     Q(r) pseudized with  8 coefficients,  rinner =    1.250   1.250   1.250
                                                       1.250   1.250

     atomic species   valence    mass     pseudopotential
        Na             9.00    22.99000     Na( 1.00)

     48 Sym. Ops., with inversion, found



   Cartesian axes

     site n.     atom                  positions (alat units)
         1           Na  tau(   1) = (   0.0000000   0.0000000   0.0000000  )

     number of k points=  3080  Marzari-Vanderbilt smearing, width (Ry)=  0.0200

     Number of k-points >= 100: set verbosity='high' to print them.

     Dense  grid:    17117 G-vectors     FFT dimensions: (  36,  36,  36)

     Smooth grid:     6051 G-vectors     FFT dimensions: (  25,  25,  25)

     Estimated max dynamical RAM per process >       0.59MB

     Estimated total allocated dynamical RAM >      37.61MB

     The potential is recalculated from file :
     ./_ph0/na.bcc.save/charge-density.dat

     Starting wfc are    5 atomic +    4 random wfc

     Band Structure Calculation
     Davidson diagonalization with overlap

     ethr =  1.11E-10,  avg # of iterations = 18.8

     total cpu time spent up to now is      592.7 secs

     End of band structure calculation

     Number of k-points >= 100: set verbosity='high' to print the bands.

     the Fermi energy is     3.3598 ev

     Writing output data file na.bcc.save

                                                                                

     bravais-lattice index     =            3
     lattice parameter (alat)  =       7.0705  a.u.
     unit-cell volume          =     176.7342 (a.u.)^3
     number of atoms/cell      =            1
     number of atomic types    =            1
     kinetic-energy cut-off    =      40.0000  Ry
     charge density cut-off    =     320.0000  Ry
     convergence threshold     =      1.0E-16
     beta                      =       0.7000
     number of iterations used =            4
     Exchange-correlation      = SLA  PW   PBE  PBE ( 1  4  3  4 0 0)


     celldm(1)=    7.07050  celldm(2)=    0.00000  celldm(3)=    0.00000
     celldm(4)=    0.00000  celldm(5)=    0.00000  celldm(6)=    0.00000

     crystal axes: (cart. coord. in units of alat)
               a(1) = (  0.5000  0.5000  0.5000 )  
               a(2) = ( -0.5000  0.5000  0.5000 )  
               a(3) = ( -0.5000 -0.5000  0.5000 )  

     reciprocal axes: (cart. coord. in units 2 pi/alat)
               b(1) = (  1.0000  0.0000  1.0000 )  
               b(2) = ( -1.0000  1.0000  0.0000 )  
               b(3) = (  0.0000 -1.0000  1.0000 )  


     Atoms inside the unit cell: 

     Cartesian axes

     site n.  atom      mass           positions (alat units)
        1     Na  22.9900   tau(    1) = (    0.00000    0.00000    0.00000  )

     Computing dynamical matrix for 
                    q = (  -0.3333333   0.6666667  -0.3333333 )

      6 Sym.Ops. (no q -> -q+G )


     G cutoff =  405.2198  (   1070 G-vectors)     FFT grid: ( 36, 36, 36)
     G cutoff =  202.6099  (    378 G-vectors)  smooth grid: ( 25, 25, 25)

     number of k points=  3080  Marzari-Vanderbilt smearing, width (Ry)=  0.0200

     PseudoPot. # 1 for Na read from file:
     /home/s1333534/quantum_espresso/qe-6.1/pseudo/Na_pbe_v1.uspp.F.UPF
     MD5 check sum: 76a99c7e9422403d3e93cbc85ab7bccb
     Pseudo is Ultrasoft, Zval =  9.0
     Generated by new atomic code, or converted to UPF format
     Using radial grid of  819 points,  5 beta functions with: 
                l(1) =   0
                l(2) =   0
                l(3) =   1
                l(4) =   1
                l(5) =   2
     Q(r) pseudized with  8 coefficients,  rinner =    1.250   1.250   1.250
                                                       1.250   1.250

     Mode symmetry, C_3v (3m)   point group:


     Atomic displacements:
     There are   2 irreducible representations

     Representation     1      1 modes -A_1  L_1  To be done

     Representation     2      2 modes -E    L_3  To be done



     Alpha used in Ewald sum =   2.8000
     PHONON       : 36m23.15s CPU    40m22.16s WALL



     Representation #  1 mode #   1

     Self-consistent Calculation

      iter #   1 total cpu time :  2427.1 secs   av.it.:   5.4
      thresh= 1.000E-02 alpha_mix =  0.700 |ddv_scf|^2 =  1.427E-05

      iter #   2 total cpu time :  2432.8 secs   av.it.:   7.7
      thresh= 3.778E-04 alpha_mix =  0.700 |ddv_scf|^2 =  2.263E-07

      iter #   3 total cpu time :  2438.8 secs   av.it.:   8.0
      thresh= 4.757E-05 alpha_mix =  0.700 |ddv_scf|^2 =  7.543E-09

      iter #   4 total cpu time :  2444.0 secs   av.it.:   7.5
      thresh= 8.685E-06 alpha_mix =  0.700 |ddv_scf|^2 =  1.969E-10

      iter #   5 total cpu time :  2449.2 secs   av.it.:   7.6
      thresh= 1.403E-06 alpha_mix =  0.700 |ddv_scf|^2 =  4.433E-12

      iter #   6 total cpu time :  2454.7 secs   av.it.:   8.1
      thresh= 2.106E-07 alpha_mix =  0.700 |ddv_scf|^2 =  4.409E-13

      iter #   7 total cpu time :  2460.2 secs   av.it.:   8.1
      thresh= 6.640E-08 alpha_mix =  0.700 |ddv_scf|^2 =  5.057E-15

      iter #   8 total cpu time :  2465.5 secs   av.it.:   7.9
      thresh= 7.112E-09 alpha_mix =  0.700 |ddv_scf|^2 =  5.600E-17

     End of self-consistent calculation

     Convergence has been achieved 


     Representation #  2 modes #   2  3

     Self-consistent Calculation

      iter #   1 total cpu time :  2475.3 secs   av.it.:   5.7
      thresh= 1.000E-02 alpha_mix =  0.700 |ddv_scf|^2 =  1.162E-05

      iter #   2 total cpu time :  2486.3 secs   av.it.:   8.2
      thresh= 3.409E-04 alpha_mix =  0.700 |ddv_scf|^2 =  1.280E-06

      iter #   3 total cpu time :  2498.1 secs   av.it.:   7.7
      thresh= 1.132E-04 alpha_mix =  0.700 |ddv_scf|^2 =  9.984E-09

      iter #   4 total cpu time :  2509.4 secs   av.it.:   8.6
      thresh= 9.992E-06 alpha_mix =  0.700 |ddv_scf|^2 =  6.679E-11

      iter #   5 total cpu time :  2519.9 secs   av.it.:   7.8
      thresh= 8.173E-07 alpha_mix =  0.700 |ddv_scf|^2 =  8.197E-14

      iter #   6 total cpu time :  2530.9 secs   av.it.:   8.1
      thresh= 2.863E-08 alpha_mix =  0.700 |ddv_scf|^2 =  4.585E-15

      iter #   7 total cpu time :  2541.7 secs   av.it.:   8.1
      thresh= 6.771E-09 alpha_mix =  0.700 |ddv_scf|^2 =  1.048E-17

     End of self-consistent calculation

     Convergence has been achieved 

     Number of q in the star =    8
     List of q in the star:
          1  -0.333333333   0.666666667  -0.333333333
          2   0.333333333  -0.666666667   0.333333333
          3  -0.333333333  -0.666666667   0.333333333
          4  -0.333333333  -0.666666667  -0.333333333
          5  -0.333333333   0.666666667   0.333333333
          6   0.333333333   0.666666667  -0.333333333
          7  -0.666666667   0.333333333  -0.333333333
          8   0.333333333   0.666666667   0.333333333

     Diagonalizing the dynamical matrix

     q = (   -0.333333333   0.666666667  -0.333333333 ) 

 **************************************************************************
     freq (    1) =       2.421095 [THz] =      80.759028 [cm-1]
     freq (    2) =       5.255443 [THz] =     175.302707 [cm-1]
     freq (    3) =       5.255443 [THz] =     175.302707 [cm-1]
 **************************************************************************

     Mode symmetry, C_3v (3m)   point group:

     freq (  1 -  1) =         80.8  [cm-1]   --> A_1  L_1           
     freq (  2 -  3) =        175.3  [cm-1]   --> E    L_3           

     Calculation of q =    0.0000000   0.0000000   0.3333333

   Info: using nr1, nr2, nr3 values from input

   Info: using nr1, nr2, nr3 values from input

     Parallelization info
     --------------------
     sticks:   dense  smooth     PW     G-vecs:    dense   smooth      PW
     Min          56      28      9                 1069      377      76
     Max          57      29     10                 1071      380      79
     Sum         905     451    159                17117     6051    1253



     bravais-lattice index     =            3
     lattice parameter (alat)  =       7.0705  a.u.
     unit-cell volume          =     176.7342 (a.u.)^3
     number of atoms/cell      =            1
     number of atomic types    =            1
     number of electrons       =         9.00
     number of Kohn-Sham states=            9
     kinetic-energy cutoff     =      40.0000  Ry
     charge density cutoff     =     320.0000  Ry
     Exchange-correlation      = SLA  PW   PBE  PBE ( 1  4  3  4 0 0)

     celldm(1)=   7.070501  celldm(2)=   0.000000  celldm(3)=   0.000000
     celldm(4)=   0.000000  celldm(5)=   0.000000  celldm(6)=   0.000000

     crystal axes: (cart. coord. in units of alat)
               a(1) = (   0.500000   0.500000   0.500000 )  
               a(2) = (  -0.500000   0.500000   0.500000 )  
               a(3) = (  -0.500000  -0.500000   0.500000 )  

     reciprocal axes: (cart. coord. in units 2 pi/alat)
[...]

     PseudoPot. # 1 for Na read from file:
     /home/s1333534/quantum_espresso/qe-6.1/pseudo/Na_pbe_v1.uspp.F.UPF
     MD5 check sum: 76a99c7e9422403d3e93cbc85ab7bccb
     Pseudo is Ultrasoft, Zval =  9.0
     Generated by new atomic code, or converted to UPF format
     Using radial grid of  819 points,  5 beta functions with: 
                l(1) =   0
                l(2) =   0
                l(3) =   1
                l(4) =   1
                l(5) =   2
     Q(r) pseudized with  8 coefficients,  rinner =    1.250   1.250   1.250
                                                       1.250   1.250

     Mode symmetry, C_2v (mm2)  point group:


     Atomic displacements:
     There are   3 irreducible representations

     Representation     1      1 modes -A_1  D_1  S_1  To be done

     Representation     2      1 modes -B_1  D_3  S_3  To be done

     Representation     3      1 modes -B_2  D_4  S_4  To be done



     Alpha used in Ewald sum =   2.8000
     PHONON       :     1h10m CPU        1h17m WALL



     Representation #  1 mode #   1

     Self-consistent Calculation

      iter #   1 total cpu time :  4676.2 secs   av.it.:   5.7
      thresh= 1.000E-02 alpha_mix =  0.700 |ddv_scf|^2 =  2.568E-05

      iter #   2 total cpu time :  4684.2 secs   av.it.:   7.8
      thresh= 5.068E-04 alpha_mix =  0.700 |ddv_scf|^2 =  1.031E-06

      iter #   3 total cpu time :  4692.4 secs   av.it.:   7.7
      thresh= 1.015E-04 alpha_mix =  0.700 |ddv_scf|^2 =  2.341E-08

      iter #   4 total cpu time :  4700.7 secs   av.it.:   8.1
      thresh= 1.530E-05 alpha_mix =  0.700 |ddv_scf|^2 =  1.517E-09

      iter #   5 total cpu time :  4709.1 secs   av.it.:   8.1
      thresh= 3.895E-06 alpha_mix =  0.700 |ddv_scf|^2 =  1.327E-10

      iter #   6 total cpu time :  4716.9 secs   av.it.:   7.9
      thresh= 1.152E-06 alpha_mix =  0.700 |ddv_scf|^2 =  4.679E-13

      iter #   7 total cpu time :  4724.8 secs   av.it.:   7.7
      thresh= 6.840E-08 alpha_mix =  0.700 |ddv_scf|^2 =  3.615E-14

      iter #   8 total cpu time :  4732.5 secs   av.it.:   7.8
      thresh= 1.901E-08 alpha_mix =  0.700 |ddv_scf|^2 =  1.737E-16

      iter #   9 total cpu time :  4740.4 secs   av.it.:   8.0
      thresh= 1.318E-09 alpha_mix =  0.700 |ddv_scf|^2 =  5.659E-18

     End of self-consistent calculation

     Convergence has been achieved 


     Representation #  2 mode #   2

     Self-consistent Calculation

      iter #   1 total cpu time :  4747.4 secs   av.it.:   5.5
      thresh= 1.000E-02 alpha_mix =  0.700 |ddv_scf|^2 =  2.199E-05

      iter #   2 total cpu time :  4755.0 secs   av.it.:   7.6
      thresh= 4.689E-04 alpha_mix =  0.700 |ddv_scf|^2 =  2.278E-07

      iter #   3 total cpu time :  4762.7 secs   av.it.:   7.7
      thresh= 4.773E-05 alpha_mix =  0.700 |ddv_scf|^2 =  2.126E-08

      iter #   4 total cpu time :  4770.5 secs   av.it.:   7.7
      thresh= 1.458E-05 alpha_mix =  0.700 |ddv_scf|^2 =  9.713E-11

      iter #   5 total cpu time :  4778.0 secs   av.it.:   7.5
      thresh= 9.855E-07 alpha_mix =  0.700 |ddv_scf|^2 =  4.134E-14

      iter #   6 total cpu time :  4785.0 secs   av.it.:   7.0
      thresh= 2.033E-08 alpha_mix =  0.700 |ddv_scf|^2 =  2.746E-15

      iter #   7 total cpu time :  4792.4 secs   av.it.:   7.4
      thresh= 5.240E-09 alpha_mix =  0.700 |ddv_scf|^2 =  3.673E-18

     End of self-consistent calculation

     Convergence has been achieved 


     Representation #  3 mode #   3

     Self-consistent Calculation

      iter #   1 total cpu time :  4799.6 secs   av.it.:   5.7
      thresh= 1.000E-02 alpha_mix =  0.700 |ddv_scf|^2 =  3.820E-05

      iter #   2 total cpu time :  4807.1 secs   av.it.:   7.5
      thresh= 6.180E-04 alpha_mix =  0.700 |ddv_scf|^2 =  2.534E-06

      iter #   3 total cpu time :  4814.6 secs   av.it.:   7.4
      thresh= 1.592E-04 alpha_mix =  0.700 |ddv_scf|^2 =  3.327E-08

      iter #   4 total cpu time :  4823.5 secs   av.it.:   7.8
      thresh= 1.824E-05 alpha_mix =  0.700 |ddv_scf|^2 =  9.693E-10

      iter #   5 total cpu time :  4830.9 secs   av.it.:   7.4
      thresh= 3.113E-06 alpha_mix =  0.700 |ddv_scf|^2 =  1.897E-12

      iter #   6 total cpu time :  4838.6 secs   av.it.:   7.9
      thresh= 1.377E-07 alpha_mix =  0.700 |ddv_scf|^2 =  1.190E-14

      iter #   7 total cpu time :  4846.2 secs   av.it.:   7.7
      thresh= 1.091E-08 alpha_mix =  0.700 |ddv_scf|^2 =  2.044E-16

      iter #   8 total cpu time :  4853.5 secs   av.it.:   7.5
      thresh= 1.430E-09 alpha_mix =  0.700 |ddv_scf|^2 =  4.872E-19

     End of self-consistent calculation

     Convergence has been achieved 

     Number of q in the star =   12
     List of q in the star:
          1   0.000000000   0.833333333  -0.166666667
          2   0.000000000  -0.833333333  -0.166666667
          3   0.833333333   0.000000000  -0.166666667
          4  -0.833333333   0.000000000  -0.166666667
          5  -0.166666667  -0.833333333   0.000000000
          6   0.166666667  -0.833333333   0.000000000
          7  -0.166666667   0.833333333   0.000000000
          8   0.166666667   0.833333333   0.000000000
          9   0.833333333   0.000000000   0.166666667
         10   0.000000000   0.166666667  -0.833333333
         11   0.000000000  -0.166666667  -0.833333333
         12   0.166666667   0.000000000  -0.833333333

     Diagonalizing the dynamical matrix

     q = (    0.000000000   0.833333333  -0.166666667 ) 

 **************************************************************************
     freq (    1) =       4.533391 [THz] =     151.217639 [cm-1]
     freq (    2) =       4.872566 [THz] =     162.531305 [cm-1]
     freq (    3) =       5.503916 [THz] =     183.590863 [cm-1]
 **************************************************************************

     Mode symmetry, C_2v (mm2)  point group:

     freq (  1 -  1) =        151.2  [cm-1]   --> A_1  D_1  S_1      
     freq (  2 -  2) =        162.5  [cm-1]   --> B_1  D_3  S_3      
     freq (  3 -  3) =        183.6  [cm-1]   --> B_2  D_4  S_4      

     Calculation of q =    0.0000000   0.0000000  -1.0000000

   Info: using nr1, nr2, nr3 values from input

   Info: using nr1, nr2, nr3 values from input

     Parallelization info
     --------------------
     sticks:   dense  smooth     PW     G-vecs:    dense   smooth      PW
     Min          56      28     10                 1069      377      88
     Max          57      29     11                 1071      380      91
     Sum         905     451    173                17117     6051    1433



     bravais-lattice index     =            3
     lattice parameter (alat)  =       7.0705  a.u.
     unit-cell volume          =     176.7342 (a.u.)^3
     number of atoms/cell      =            1
     number of atomic types    =            1
     number of electrons       =         9.00
     number of Kohn-Sham states=            9
     kinetic-energy cutoff     =      40.0000  Ry
     charge density cutoff     =     320.0000  Ry
     Exchange-correlation      = SLA  PW   PBE  PBE ( 1  4  3  4 0 0)

     celldm(1)=   7.070501  celldm(2)=   0.000000  celldm(3)=   0.000000
     celldm(4)=   0.000000  celldm(5)=   0.000000  celldm(6)=   0.000000

     crystal axes: (cart. coord. in units of alat)
               a(1) = (   0.500000   0.500000   0.500000 )  
               a(2) = (  -0.500000   0.500000   0.500000 )  
               a(3) = (  -0.500000  -0.500000   0.500000 )  

     reciprocal axes: (cart. coord. in units 2 pi/alat)
               b(1) = (  1.000000  0.000000  1.000000 )  
               b(2) = ( -1.000000  1.000000  0.000000 )  
               b(3) = (  0.000000 -1.000000  1.000000 )  


     PseudoPot. # 1 for Na read from file:
     /home/s1333534/quantum_espresso/qe-6.1/pseudo/Na_pbe_v1.uspp.F.UPF
     MD5 check sum: 76a99c7e9422403d3e93cbc85ab7bccb
     Pseudo is Ultrasoft, Zval =  9.0
     Generated by new atomic code, or converted to UPF format
     Using radial grid of  819 points,  5 beta functions with: 
                l(1) =   0
                l(2) =   0
                l(3) =   1
                l(4) =   1
                l(5) =   2
     Q(r) pseudized with  8 coefficients,  rinner =    1.250   1.250   1.250
                                                       1.250   1.250

     atomic species   valence    mass     pseudopotential
        Na             9.00    22.99000     Na( 1.00)

     48 Sym. Ops., with inversion, found



   Cartesian axes

     site n.     atom                  positions (alat units)
         1           Na  tau(   1) = (   0.0000000   0.0000000   0.0000000  )

     number of k points=   500  Marzari-Vanderbilt smearing, width (Ry)=  0.0200

     Number of k-points >= 100: set verbosity='high' to print them.

     Dense  grid:    17117 G-vectors     FFT dimensions: (  36,  36,  36)

     Smooth grid:     6051 G-vectors     FFT dimensions: (  25,  25,  25)

     Estimated max dynamical RAM per process >       0.59MB

     Estimated total allocated dynamical RAM >      37.61MB

     The potential is recalculated from file :
     ./_ph0/na.bcc.save/charge-density.dat

     Starting wfc are    5 atomic +    4 random wfc

     Band Structure Calculation
     Davidson diagonalization with overlap

     ethr =  1.11E-10,  avg # of iterations = 18.9

     total cpu time spent up to now is     1201.9 secs

     End of band structure calculation

     Number of k-points >= 100: set verbosity='high' to print the bands.

     the Fermi energy is     3.3598 ev

     Writing output data file na.bcc.save

                                                                                

     bravais-lattice index     =            3
     lattice parameter (alat)  =       7.0705  a.u.
     unit-cell volume          =     176.7342 (a.u.)^3
     number of atoms/cell      =            1
     number of atomic types    =            1
     kinetic-energy cut-off    =      40.0000  Ry
     charge density cut-off    =     320.0000  Ry
     convergence threshold     =      1.0E-16
     beta                      =       0.7000
     number of iterations used =            4
     Exchange-correlation      = SLA  PW   PBE  PBE ( 1  4  3  4 0 0)


     celldm(1)=    7.07050  celldm(2)=    0.00000  celldm(3)=    0.00000
     celldm(4)=    0.00000  celldm(5)=    0.00000  celldm(6)=    0.00000

     crystal axes: (cart. coord. in units of alat)
               a(1) = (  0.5000  0.5000  0.5000 )  
               a(2) = ( -0.5000  0.5000  0.5000 )  
               a(3) = ( -0.5000 -0.5000  0.5000 )  

     reciprocal axes: (cart. coord. in units 2 pi/alat)
               b(1) = (  1.0000  0.0000  1.0000 )  
               b(2) = ( -1.0000  1.0000  0.0000 )  
               b(3) = (  0.0000 -1.0000  1.0000 )  


     Atoms inside the unit cell: 

     Cartesian axes

     site n.  atom      mass           positions (alat units)
        1     Na  22.9900   tau(    1) = (    0.00000    0.00000    0.00000  )

     Computing dynamical matrix for 
                    q = (   0.0000000   0.0000000  -1.0000000 )

     49 Sym.Ops. (with q -> -q+G )


     G cutoff =  405.2198  (   1070 G-vectors)     FFT grid: ( 36, 36, 36)
     G cutoff =  202.6099  (    378 G-vectors)  smooth grid: ( 25, 25, 25)

     number of k points=   500  Marzari-Vanderbilt smearing, width (Ry)=  0.0200

     PseudoPot. # 1 for Na read from file:
     /home/s1333534/quantum_espresso/qe-6.1/pseudo/Na_pbe_v1.uspp.F.UPF
     MD5 check sum: 76a99c7e9422403d3e93cbc85ab7bccb
     Pseudo is Ultrasoft, Zval =  9.0
     Generated by new atomic code, or converted to UPF format
     Using radial grid of  819 points,  5 beta functions with: 
                l(1) =   0
                l(2) =   0
                l(3) =   1
                l(4) =   1
                l(5) =   2
     Q(r) pseudized with  8 coefficients,  rinner =    1.250   1.250   1.250
                                                       1.250   1.250

     Mode symmetry, O_h (m-3m)  point group:


     Atomic displacements:
     There are   1 irreducible representations

     Representation     1      3 modes -T_1u G_15  G_4-  To be done



     Alpha used in Ewald sum =   2.8000
     PHONON       :     1h13m CPU        1h21m WALL



     Representation #  1 modes #   1  2  3

     Self-consistent Calculation

      iter #   1 total cpu time :  4865.5 secs   av.it.:   5.7
      thresh= 1.000E-02 alpha_mix =  0.700 |ddv_scf|^2 =  2.737E-06

      iter #   2 total cpu time :  4869.0 secs   av.it.:   8.5
      thresh= 1.654E-04 alpha_mix =  0.700 |ddv_scf|^2 =  3.189E-08

      iter #   3 total cpu time :  4872.5 secs   av.it.:   8.4
      thresh= 1.786E-05 alpha_mix =  0.700 |ddv_scf|^2 =  2.746E-09

      iter #   4 total cpu time :  4876.1 secs   av.it.:   8.6
      thresh= 5.240E-06 alpha_mix =  0.700 |ddv_scf|^2 =  1.185E-11

      iter #   5 total cpu time :  4879.7 secs   av.it.:   8.4
      thresh= 3.442E-07 alpha_mix =  0.700 |ddv_scf|^2 =  3.846E-15

      iter #   6 total cpu time :  4883.0 secs   av.it.:   7.4
      thresh= 6.202E-09 alpha_mix =  0.700 |ddv_scf|^2 =  2.672E-16

      iter #   7 total cpu time :  4886.4 secs   av.it.:   7.9
      thresh= 1.635E-09 alpha_mix =  0.700 |ddv_scf|^2 =  1.388E-19

     End of self-consistent calculation

     Convergence has been achieved 

     Number of q in the star =    1
     List of q in the star:
          1   0.000000000   0.000000000  -1.000000000

     Diagonalizing the dynamical matrix

     q = (    0.000000000   0.000000000  -1.000000000 ) 

 **************************************************************************
     freq (    1) =       5.269598 [THz] =     175.774877 [cm-1]
     freq (    2) =       5.269598 [THz] =     175.774877 [cm-1]
     freq (    3) =       5.269598 [THz] =     175.774877 [cm-1]
 **************************************************************************

     Mode symmetry, O_h (m-3m)  point group:

     freq (  1 -  3) =        175.8  [cm-1]   --> T_1u G_15  G_4-    

     init_run     :      2.00s CPU      2.12s WALL (      15 calls)
     electrons    :    904.24s CPU    967.17s WALL (      15 calls)

     Called by init_run:
     wfcinit      :      0.00s CPU      0.01s WALL (      15 calls)
     potinit      :      0.30s CPU      0.31s WALL (      15 calls)

     Called by electrons:
     c_bands      :    903.88s CPU    966.79s WALL (      15 calls)
     v_of_rho     :      0.14s CPU      0.14s WALL (      16 calls)
     newd         :      0.12s CPU      0.13s WALL (      16 calls)

     Called by c_bands:
     init_us_2    :     19.77s CPU     21.93s WALL (  336489 calls)
     cegterg      :    700.69s CPU    756.38s WALL (   23289 calls)

     Called by sum_band:

     Called by *egterg:
     h_psi        :   2351.75s CPU   2600.46s WALL ( 3086217 calls)
     s_psi        :     82.50s CPU     93.14s WALL ( 6035222 calls)
     g_psi        :      2.36s CPU      2.57s WALL (  356928 calls)
     cdiaghg      :    233.20s CPU    249.97s WALL (  376190 calls)

     Called by h_psi:
     h_psi:pot    :   2330.56s CPU   2576.45s WALL ( 3086217 calls)
     h_psi:calbec :    173.42s CPU    190.62s WALL ( 3086217 calls)
     vloc_psi     :   2079.49s CPU   2299.68s WALL ( 3086217 calls)
     add_vuspsi   :     44.61s CPU     50.18s WALL ( 3086217 calls)

     General routines
     calbec       :    321.28s CPU    354.35s WALL ( 6578426 calls)
     fft          :      3.42s CPU      3.91s WALL (    6346 calls)
     ffts         :      3.08s CPU      3.40s WALL (   30429 calls)
     fftw         :   2251.36s CPU   2504.38s WALL (29746696 calls)
     interpolate  :      0.56s CPU      0.78s WALL (     870 calls)
     davcio       :     29.79s CPU     67.40s WALL ( 1369453 calls)

     Parallel routines
     fft_scatter  :   1229.92s CPU   1365.69s WALL (29783471 calls)

     PHONON       :     1h13m CPU        1h21m WALL

     INITIALIZATION: 
     phq_setup    :      0.53s CPU      0.56s WALL (      16 calls)
     phq_init     :     50.18s CPU     53.92s WALL (      16 calls)

     phq_init     :     50.18s CPU     53.92s WALL (      16 calls)
     init_vloc    :      0.09s CPU      0.09s WALL (      16 calls)
     init_us_1    :      1.08s CPU      1.17s WALL (      16 calls)
     newd         :      0.12s CPU      0.13s WALL (      16 calls)
     dvanqq       :      0.48s CPU      0.48s WALL (      16 calls)
     drho         :     37.44s CPU     40.30s WALL (      16 calls)

     DYNAMICAL MATRIX:
     dynmat0      :      8.09s CPU      8.59s WALL (      16 calls)
     phqscf       :   3222.91s CPU   3624.81s WALL (      16 calls)
     dynmatrix    :      0.09s CPU      0.10s WALL (      16 calls)

     phqscf       :   3222.91s CPU   3624.81s WALL (      16 calls)
     solve_linter :   3210.32s CPU   3610.81s WALL (      40 calls)
     drhodv       :     12.36s CPU     13.31s WALL (      40 calls)

     dynmat0      :      8.09s CPU      8.59s WALL (      16 calls)
     dynmat_us    :      8.04s CPU      8.53s WALL (      16 calls)
     d2ionq       :      0.01s CPU      0.01s WALL (      16 calls)

     dynmat_us    :      8.04s CPU      8.53s WALL (      16 calls)
     addusdynmat  :      0.00s CPU      0.00s WALL (      16 calls)

     phqscf       :   3222.91s CPU   3624.81s WALL (      16 calls)
     solve_linter :   3210.32s CPU   3610.81s WALL (      40 calls)

     solve_linter :   3210.32s CPU   3610.81s WALL (      40 calls)
     dvqpsi_us    :     59.75s CPU     65.30s WALL (   29082 calls)
     ortho        :     48.36s CPU     52.71s WALL (  262267 calls)
     cgsolve      :   2525.06s CPU   2808.67s WALL (  262267 calls)
     incdrhoscf   :    233.70s CPU    274.79s WALL (  262267 calls)
     addusddens   :      3.57s CPU      3.66s WALL (     381 calls)
     vpsifft      :    184.66s CPU    205.53s WALL (  233185 calls)
     dv_of_drho   :      2.52s CPU      2.79s WALL (     395 calls)
     mix_pot      :      0.64s CPU      2.44s WALL (     341 calls)
     ef_shift     :      0.02s CPU      0.05s WALL (       7 calls)
     localdos     :      0.06s CPU      0.06s WALL (       1 calls)
     psymdvscf    :     20.75s CPU     21.21s WALL (     310 calls)
     newdq        :      3.59s CPU      3.63s WALL (     341 calls)
     adddvscf     :     13.22s CPU     14.62s WALL (  233185 calls)
     drhodvus     :      0.04s CPU      0.04s WALL (      40 calls)

     dvqpsi_us    :     59.75s CPU     65.30s WALL (   29082 calls)
     dvqpsi_us_on :     13.19s CPU     14.12s WALL (   29082 calls)

     cgsolve      :   2525.06s CPU   2808.67s WALL (  262267 calls)
     ch_psi       :   2348.11s CPU   2611.22s WALL ( 2686738 calls)

     ch_psi       :   2348.11s CPU   2611.22s WALL ( 2686738 calls)
     h_psi        :   2351.75s CPU   2600.46s WALL ( 3086217 calls)
     last         :    301.13s CPU    335.16s WALL ( 2686738 calls)

     h_psi        :   2351.75s CPU   2600.46s WALL ( 3086217 calls)
     add_vuspsi   :     44.61s CPU     50.18s WALL ( 3086217 calls)

     incdrhoscf   :    233.70s CPU    274.79s WALL (  262267 calls)
     addusdbec    :     22.19s CPU     24.54s WALL (  291349 calls)

     drhodvus     :      0.04s CPU      0.04s WALL (      40 calls)

      General routines
     calbec       :    321.28s CPU    354.35s WALL ( 6578426 calls)
     fft          :      3.42s CPU      3.91s WALL (    6346 calls)
     ffts         :      3.08s CPU      3.40s WALL (   30429 calls)
     fftw         :   2251.36s CPU   2504.38s WALL (29746696 calls)
     davcio       :     29.79s CPU     67.40s WALL ( 1369453 calls)
     write_rec    :      1.40s CPU      5.29s WALL (     381 calls)


     PHONON       :     1h13m CPU        1h21m WALL


   This run was terminated on:   0:48:18  31Jan2018            

=------------------------------------------------------------------------------=
   JOB DONE.
=------------------------------------------------------------------------------=
