
     Program PHONON v.6.1 (svn rev. 13369) starts on 21Dec2017 at 15:36:11 

     This program is part of the open-source Quantum ESPRESSO suite
     for quantum simulation of materials; please cite
         "P. Giannozzi et al., J. Phys.:Condens. Matter 21 395502 (2009);
          URL http://www.quantum-espresso.org", 
     in publications or presentations arising from this work. More details at
     http://www.quantum-espresso.org/quote

     Parallel version (MPI), running on     4 processors
     R & G space division:  proc/nbgrp/npool/nimage =       4

     Reading data from directory:
     ./na.bcc.save

   Info: using nr1, nr2, nr3 values from input

   Info: using nr1, nr2, nr3 values from input

     IMPORTANT: XC functional enforced from input :
     Exchange-correlation      = SLA  PW   PBE  PBE ( 1  4  3  4 0 0)
     Any further DFT definition will be discarded
     Please, verify this is what you really want


     Parallelization info
     --------------------
     sticks:   dense  smooth     PW     G-vecs:    dense   smooth      PW
     Min         287     142     43                 6207     2171     375
     Max         288     144     44                 6210     2172     378
     Sum        1151     571    173                24835     8685    1505



     Dynamical matrices for ( 8, 8, 8)  uniform grid of q-points
     (  29q-points):
       N         xq(1)         xq(2)         xq(3) 
       1   0.000000000   0.000000000   0.000000000
       2   0.000000000  -0.125000000   0.125000000
       3   0.000000000  -0.250000000   0.250000000
       4   0.000000000  -0.375000000   0.375000000
       5   0.000000000   0.500000000  -0.500000000
       6  -0.125000000  -0.125000000   0.250000000
       7  -0.125000000  -0.250000000   0.375000000
       8  -0.125000000   0.625000000  -0.500000000
       9  -0.250000000   0.750000000  -0.500000000
      10  -0.250000000   0.625000000  -0.375000000
      11   0.000000000   0.000000000   0.250000000
      12   0.000000000  -0.125000000   0.375000000
      13   0.000000000  -0.250000000   0.500000000
      14   0.000000000   0.625000000  -0.375000000
      15  -0.125000000  -0.125000000   0.500000000
      16  -0.125000000   0.750000000  -0.375000000
      17  -0.250000000   0.250000000   0.250000000
      18  -0.250000000   0.750000000  -0.250000000
      19   0.625000000  -0.625000000   0.250000000
      20   0.500000000  -0.500000000   0.250000000
      21   0.500000000  -0.625000000   0.375000000
      22   0.000000000   0.000000000   0.500000000
      23   0.000000000  -0.125000000   0.625000000
      24   0.000000000   0.750000000  -0.250000000
      25  -0.125000000   0.875000000  -0.250000000
      26   0.500000000  -0.500000000   0.500000000
      27   0.000000000   0.000000000   0.750000000
      28   0.000000000   0.875000000  -0.125000000
      29   0.000000000   0.000000000  -1.000000000

     Calculation of q =    0.0000000   0.0000000   0.0000000

                                                                                

     bravais-lattice index     =            3
     lattice parameter (alat)  =       8.0017  a.u.
     unit-cell volume          =     256.1633 (a.u.)^3
     number of atoms/cell      =            1
     number of atomic types    =            1
     kinetic-energy cut-off    =      40.0000  Ry
     charge density cut-off    =     320.0000  Ry
     convergence threshold     =      1.0E-12
     beta                      =       0.7000
     number of iterations used =            4
     Exchange-correlation      = SLA  PW   PBE  PBE ( 1  4  3  4 0 0)


     celldm(1)=    8.00170  celldm(2)=    0.00000  celldm(3)=    0.00000
     celldm(4)=    0.00000  celldm(5)=    0.00000  celldm(6)=    0.00000

     crystal axes: (cart. coord. in units of alat)
               a(1) = (  0.5000  0.5000  0.5000 )  
               a(2) = ( -0.5000  0.5000  0.5000 )  
               a(3) = ( -0.5000 -0.5000  0.5000 )  

     reciprocal axes: (cart. coord. in units 2 pi/alat)
               b(1) = (  1.0000  0.0000  1.0000 )  
               b(2) = ( -1.0000  1.0000  0.0000 )  
               b(3) = (  0.0000 -1.0000  1.0000 )  


     Atoms inside the unit cell: 

     Cartesian axes

     site n.  atom      mass           positions (alat units)
        1     Na  22.9900   tau(    1) = (    0.00000    0.00000    0.00000  )

     Computing dynamical matrix for 
                    q = (   0.0000000   0.0000000   0.0000000 )

     49 Sym.Ops. (with q -> -q+G )


     G cutoff =  518.9850  (   6210 G-vectors)     FFT grid: ( 40, 40, 40)
     G cutoff =  259.4925  (   2172 G-vectors)  smooth grid: ( 27, 27, 27)

     number of k points=   100  Marzari-Vanderbilt smearing, width (Ry)=  0.0200

     PseudoPot. # 1 for Na read from file:
     /home/s1333534/quantum_espresso/qe-6.1/pseudo/Na_pbe_v1.uspp.F.UPF
     MD5 check sum: 76a99c7e9422403d3e93cbc85ab7bccb
     Pseudo is Ultrasoft, Zval =  9.0
     Generated by new atomic code, or converted to UPF format
     Using radial grid of  819 points,  5 beta functions with: 
                l(1) =   0
                l(2) =   0
                l(3) =   1
                l(4) =   1
                l(5) =   2
     Q(r) pseudized with  8 coefficients,  rinner =    1.250   1.250   1.250
                                                       1.250   1.250

     Mode symmetry, O_h (m-3m)  point group:


     Atomic displacements:
     There are   1 irreducible representations

     Representation     1      3 modes -T_1u G_15  G_4-  To be done



     Alpha used in Ewald sum =   2.8000
     PHONON       :     1.12s CPU         1.16s WALL



     Representation #  1 modes #   1  2  3

     Self-consistent Calculation

     Pert. #  1: Fermi energy shift (Ry) =    -1.7922E-24    -1.2539E-37
     Pert. #  2: Fermi energy shift (Ry) =    -2.7573E-25     2.9779E-37
     Pert. #  3: Fermi energy shift (Ry) =     0.0000E+00    -4.7020E-38

      iter #   1 total cpu time :     4.3 secs   av.it.:   5.4
      thresh= 1.000E-02 alpha_mix =  0.700 |ddv_scf|^2 =  1.394E-06

     Pert. #  1: Fermi energy shift (Ry) =    -1.3786E-25    -4.8979E-40
     Pert. #  2: Fermi energy shift (Ry) =     2.2403E-25    -3.5510E-39
     Pert. #  3: Fermi energy shift (Ry) =    -3.4466E-26    -4.8979E-40

      iter #   2 total cpu time :     7.9 secs   av.it.:   8.4
      thresh= 1.181E-04 alpha_mix =  0.700 |ddv_scf|^2 =  2.622E-08

     Pert. #  1: Fermi energy shift (Ry) =     0.0000E+00     1.8367E-40
     Pert. #  2: Fermi energy shift (Ry) =     1.9818E-25    -6.1224E-41
     Pert. #  3: Fermi energy shift (Ry) =    -1.2925E-25     0.0000E+00

      iter #   3 total cpu time :    11.5 secs   av.it.:   8.5
      thresh= 1.619E-05 alpha_mix =  0.700 |ddv_scf|^2 =  5.778E-10

     Pert. #  1: Fermi energy shift (Ry) =    -2.5849E-26    -2.0663E-40
     Pert. #  2: Fermi energy shift (Ry) =    -8.6165E-27     6.1224E-41
     Pert. #  3: Fermi energy shift (Ry) =    -1.0771E-25     8.0356E-41

      iter #   4 total cpu time :    14.9 secs   av.it.:   7.9
      thresh= 2.404E-06 alpha_mix =  0.700 |ddv_scf|^2 =  1.946E-12

     Pert. #  1: Fermi energy shift (Ry) =    -9.9089E-26    -1.7219E-41
     Pert. #  2: Fermi energy shift (Ry) =    -5.8161E-26     6.3137E-41
     Pert. #  3: Fermi energy shift (Ry) =     1.7233E-25     4.0178E-41

      iter #   5 total cpu time :    18.5 secs   av.it.:   8.3
      thresh= 1.395E-07 alpha_mix =  0.700 |ddv_scf|^2 =  4.145E-15

     End of self-consistent calculation

     Convergence has been achieved 

     Number of q in the star =    1
     List of q in the star:
          1   0.000000000   0.000000000   0.000000000

     Diagonalizing the dynamical matrix

     q = (    0.000000000   0.000000000   0.000000000 ) 

 **************************************************************************
     freq (    1) =       0.441198 [THz] =      14.716797 [cm-1]
     freq (    2) =       0.441198 [THz] =      14.716797 [cm-1]
     freq (    3) =       0.441198 [THz] =      14.716797 [cm-1]
 **************************************************************************

     Mode symmetry, O_h (m-3m)  point group:

     freq (  1 -  3) =         14.7  [cm-1]   --> T_1u G_15  G_4- I  

     Calculation of q =    0.0000000  -0.1250000   0.1250000

   Info: using nr1, nr2, nr3 values from input

   Info: using nr1, nr2, nr3 values from input

     Parallelization info
     --------------------
     sticks:   dense  smooth     PW     G-vecs:    dense   smooth      PW
     Min         287     142     45                 6207     2171     400
     Max         288     143     46                 6210     2172     401
     Sum        1151     571    181                24835     8685    1601



     bravais-lattice index     =            3
     lattice parameter (alat)  =       8.0017  a.u.
     unit-cell volume          =     256.1633 (a.u.)^3
     number of atoms/cell      =            1
     number of atomic types    =            1
     number of electrons       =         9.00
     number of Kohn-Sham states=            9
     kinetic-energy cutoff     =      40.0000  Ry
     charge density cutoff     =     320.0000  Ry
     Exchange-correlation      = SLA  PW   PBE  PBE ( 1  4  3  4 0 0)

     celldm(1)=   8.001701  celldm(2)=   0.000000  celldm(3)=   0.000000
     celldm(4)=   0.000000  celldm(5)=   0.000000  celldm(6)=   0.000000

     crystal axes: (cart. coord. in units of alat)
               a(1) = (   0.500000   0.500000   0.500000 )  
               a(2) = (  -0.500000   0.500000   0.500000 )  
               a(3) = (  -0.500000  -0.500000   0.500000 )  

     reciprocal axes: (cart. coord. in units 2 pi/alat)
               b(1) = (  1.000000  0.000000  1.000000 )  
               b(2) = ( -1.000000  1.000000  0.000000 )  
               b(3) = (  0.000000 -1.000000  1.000000 )  


     PseudoPot. # 1 for Na read from file:
     /home/s1333534/quantum_espresso/qe-6.1/pseudo/Na_pbe_v1.uspp.F.UPF
     MD5 check sum: 76a99c7e9422403d3e93cbc85ab7bccb
     Pseudo is Ultrasoft, Zval =  9.0
     Generated by new atomic code, or converted to UPF format
     Using radial grid of  819 points,  5 beta functions with: 
                l(1) =   0
                l(2) =   0
                l(3) =   1
                l(4) =   1
                l(5) =   2
     Q(r) pseudized with  8 coefficients,  rinner =    1.250   1.250   1.250
                                                       1.250   1.250

     atomic species   valence    mass     pseudopotential
        Na             9.00    22.99000     Na( 1.00)

     48 Sym. Ops., with inversion, found



   Cartesian axes

     site n.     atom                  positions (alat units)
         1           Na  tau(   1) = (   0.0000000   0.0000000   0.0000000  )

     number of k points=  1568  Marzari-Vanderbilt smearing, width (Ry)=  0.0200

     Number of k-points >= 100: set verbosity='high' to print them.

     Dense  grid:    24835 G-vectors     FFT dimensions: (  40,  40,  40)

     Smooth grid:     8685 G-vectors     FFT dimensions: (  27,  27,  27)

     Estimated max dynamical RAM per process >       2.26MB

     Estimated total allocated dynamical RAM >       9.02MB

     The potential is recalculated from file :
     ./_ph0/na.bcc.save/charge-density.dat

     Starting wfc are    5 atomic +    4 random wfc

     Band Structure Calculation
     Davidson diagonalization with overlap

     ethr =  1.11E-10,  avg # of iterations = 21.7

     total cpu time spent up to now is       47.2 secs

     End of band structure calculation

     Number of k-points >= 100: set verbosity='high' to print the bands.

     the Fermi energy is     1.5165 ev

     Writing output data file na.bcc.save

                                                                                

     bravais-lattice index     =            3
     lattice parameter (alat)  =       8.0017  a.u.
     unit-cell volume          =     256.1633 (a.u.)^3
     number of atoms/cell      =            1
     number of atomic types    =            1
     kinetic-energy cut-off    =      40.0000  Ry
     charge density cut-off    =     320.0000  Ry
     convergence threshold     =      1.0E-12
     beta                      =       0.7000
     number of iterations used =            4
     Exchange-correlation      = SLA  PW   PBE  PBE ( 1  4  3  4 0 0)


     celldm(1)=    8.00170  celldm(2)=    0.00000  celldm(3)=    0.00000
     celldm(4)=    0.00000  celldm(5)=    0.00000  celldm(6)=    0.00000

     crystal axes: (cart. coord. in units of alat)
               a(1) = (  0.5000  0.5000  0.5000 )  
               a(2) = ( -0.5000  0.5000  0.5000 )  
               a(3) = ( -0.5000 -0.5000  0.5000 )  

     reciprocal axes: (cart. coord. in units 2 pi/alat)
               b(1) = (  1.0000  0.0000  1.0000 )  
               b(2) = ( -1.0000  1.0000  0.0000 )  
               b(3) = (  0.0000 -1.0000  1.0000 )  


     Atoms inside the unit cell: 

     Cartesian axes

     site n.  atom      mass           positions (alat units)
        1     Na  22.9900   tau(    1) = (    0.00000    0.00000    0.00000  )

     Computing dynamical matrix for 
                    q = (   0.0000000  -0.1250000   0.1250000 )

      4 Sym.Ops. (no q -> -q+G )


     G cutoff =  518.9850  (   6210 G-vectors)     FFT grid: ( 40, 40, 40)
     G cutoff =  259.4925  (   2171 G-vectors)  smooth grid: ( 27, 27, 27)

     number of k points=  1568  Marzari-Vanderbilt smearing, width (Ry)=  0.0200

     PseudoPot. # 1 for Na read from file:
     /home/s1333534/quantum_espresso/qe-6.1/pseudo/Na_pbe_v1.uspp.F.UPF
     MD5 check sum: 76a99c7e9422403d3e93cbc85ab7bccb
     Pseudo is Ultrasoft, Zval =  9.0
     Generated by new atomic code, or converted to UPF format
     Using radial grid of  819 points,  5 beta functions with: 
                l(1) =   0
                l(2) =   0
                l(3) =   1
                l(4) =   1
                l(5) =   2
     Q(r) pseudized with  8 coefficients,  rinner =    1.250   1.250   1.250
                                                       1.250   1.250

     Mode symmetry, C_2v (mm2)  point group:


     Atomic displacements:
     There are   3 irreducible representations

     Representation     1      1 modes -A_1  D_1  S_1  To be done

     Representation     2      1 modes -B_1  D_3  S_3  To be done

     Representation     3      1 modes -B_2  D_4  S_4  To be done



     Alpha used in Ewald sum =   2.8000
     PHONON       :  1m 6.87s CPU     1m10.30s WALL



     Representation #  1 mode #   1

     Self-consistent Calculation

      iter #   1 total cpu time :    77.7 secs   av.it.:   5.6
      thresh= 1.000E-02 alpha_mix =  0.700 |ddv_scf|^2 =  1.674E-01

      iter #   2 total cpu time :    85.1 secs   av.it.:   6.9
      thresh= 1.000E-02 alpha_mix =  0.700 |ddv_scf|^2 =  7.925E+01

      iter #   3 total cpu time :    92.5 secs   av.it.:   6.8
      thresh= 1.000E-02 alpha_mix =  0.700 |ddv_scf|^2 =  2.295E-04

      iter #   4 total cpu time :    98.6 secs   av.it.:   5.3
      thresh= 1.515E-03 alpha_mix =  0.700 |ddv_scf|^2 =  1.614E-07

      iter #   5 total cpu time :   106.6 secs   av.it.:   7.2
      thresh= 4.018E-05 alpha_mix =  0.700 |ddv_scf|^2 =  6.643E-08

      iter #   6 total cpu time :   111.9 secs   av.it.:   4.3
      thresh= 2.577E-05 alpha_mix =  0.700 |ddv_scf|^2 =  1.615E-07

      iter #   7 total cpu time :   118.4 secs   av.it.:   5.7
      thresh= 4.019E-05 alpha_mix =  0.700 |ddv_scf|^2 =  2.431E-11

      iter #   8 total cpu time :   126.8 secs   av.it.:   8.2
      thresh= 4.931E-07 alpha_mix =  0.700 |ddv_scf|^2 =  1.266E-12

      iter #   9 total cpu time :   135.2 secs   av.it.:   8.2
      thresh= 1.125E-07 alpha_mix =  0.700 |ddv_scf|^2 =  7.053E-14

     End of self-consistent calculation

     Convergence has been achieved 


     Representation #  2 mode #   2

     Self-consistent Calculation

      iter #   1 total cpu time :   142.5 secs   av.it.:   5.4
      thresh= 1.000E-02 alpha_mix =  0.700 |ddv_scf|^2 =  1.262E-05

      iter #   2 total cpu time :   150.4 secs   av.it.:   7.6
      thresh= 3.553E-04 alpha_mix =  0.700 |ddv_scf|^2 =  2.347E-07

      iter #   3 total cpu time :   158.5 secs   av.it.:   7.7
      thresh= 4.845E-05 alpha_mix =  0.700 |ddv_scf|^2 =  5.427E-09

      iter #   4 total cpu time :   166.4 secs   av.it.:   7.2
      thresh= 7.367E-06 alpha_mix =  0.700 |ddv_scf|^2 =  1.816E-11

      iter #   5 total cpu time :   174.7 secs   av.it.:   7.5
      thresh= 4.261E-07 alpha_mix =  0.700 |ddv_scf|^2 =  3.641E-14

     End of self-consistent calculation

     Convergence has been achieved 


     Representation #  3 mode #   3

     Self-consistent Calculation

      iter #   1 total cpu time :   181.9 secs   av.it.:   5.4
      thresh= 1.000E-02 alpha_mix =  0.700 |ddv_scf|^2 =  1.286E-05

      iter #   2 total cpu time :   189.8 secs   av.it.:   7.5
      thresh= 3.587E-04 alpha_mix =  0.700 |ddv_scf|^2 =  2.339E-07

      iter #   3 total cpu time :   197.9 secs   av.it.:   7.7
      thresh= 4.837E-05 alpha_mix =  0.700 |ddv_scf|^2 =  6.253E-09

      iter #   4 total cpu time :   205.6 secs   av.it.:   7.3
      thresh= 7.907E-06 alpha_mix =  0.700 |ddv_scf|^2 =  2.079E-11

      iter #   5 total cpu time :   213.6 secs   av.it.:   7.6
      thresh= 4.560E-07 alpha_mix =  0.700 |ddv_scf|^2 =  3.701E-14

     End of self-consistent calculation

     Convergence has been achieved 

     Number of q in the star =   12
     List of q in the star:
          1   0.000000000  -0.125000000   0.125000000
          2   0.125000000   0.000000000   0.125000000
          3  -0.125000000   0.000000000   0.125000000
          4   0.000000000   0.125000000   0.125000000
          5   0.125000000  -0.125000000   0.000000000
          6  -0.125000000   0.000000000  -0.125000000
          7   0.125000000   0.000000000  -0.125000000
          8   0.000000000  -0.125000000  -0.125000000
          9  -0.125000000  -0.125000000   0.000000000
         10  -0.125000000   0.125000000   0.000000000
         11   0.125000000   0.125000000   0.000000000
         12   0.000000000   0.125000000  -0.125000000

     Diagonalizing the dynamical matrix

     q = (    0.000000000  -0.125000000   0.125000000 ) 

 **************************************************************************
     freq (    1) =       0.237691 [THz] =       7.928519 [cm-1]
     freq (    2) =       0.827648 [THz] =      27.607355 [cm-1]
     freq (    3) =       1.896005 [THz] =      63.243932 [cm-1]
 **************************************************************************

     Mode symmetry, C_2v (mm2)  point group:

     freq (  1 -  1) =          7.9  [cm-1]   --> B_1  D_3  S_3      
     freq (  2 -  2) =         27.6  [cm-1]   --> B_2  D_4  S_4      
     freq (  3 -  3) =         63.2  [cm-1]   --> A_1  D_1  S_1      

     Calculation of q =    0.0000000  -0.2500000   0.2500000

   Info: using nr1, nr2, nr3 values from input

   Info: using nr1, nr2, nr3 values from input

     Parallelization info
     --------------------
     sticks:   dense  smooth     PW     G-vecs:    dense   smooth      PW
     Min         287     142     49                 6207     2171     430
     Max         288     144     50                 6210     2172     431
     Sum        1151     571    197                24835     8685    1721



     bravais-lattice index     =            3
     lattice parameter (alat)  =       8.0017  a.u.
     unit-cell volume          =     256.1633 (a.u.)^3
     number of atoms/cell      =            1
     number of atomic types    =            1
     number of electrons       =         9.00
     number of Kohn-Sham states=            9
     kinetic-energy cutoff     =      40.0000  Ry
     charge density cutoff     =     320.0000  Ry
     Exchange-correlation      = SLA  PW   PBE  PBE ( 1  4  3  4 0 0)

     celldm(1)=   8.001701  celldm(2)=   0.000000  celldm(3)=   0.000000
     celldm(4)=   0.000000  celldm(5)=   0.000000  celldm(6)=   0.000000

     crystal axes: (cart. coord. in units of alat)
               a(1) = (   0.500000   0.500000   0.500000 )  
               a(2) = (  -0.500000   0.500000   0.500000 )  
               a(3) = (  -0.500000  -0.500000   0.500000 )  

     reciprocal axes: (cart. coord. in units 2 pi/alat)
               b(1) = (  1.000000  0.000000  1.000000 )  
               b(2) = ( -1.000000  1.000000  0.000000 )  
               b(3) = (  0.000000 -1.000000  1.000000 )  


     PseudoPot. # 1 for Na read from file:
     /home/s1333534/quantum_espresso/qe-6.1/pseudo/Na_pbe_v1.uspp.F.UPF
     MD5 check sum: 76a99c7e9422403d3e93cbc85ab7bccb
     Pseudo is Ultrasoft, Zval =  9.0
     Generated by new atomic code, or converted to UPF format
     Using radial grid of  819 points,  5 beta functions with: 
                l(1) =   0
                l(2) =   0
                l(3) =   1
                l(4) =   1
                l(5) =   2
     Q(r) pseudized with  8 coefficients,  rinner =    1.250   1.250   1.250
                                                       1.250   1.250

     atomic species   valence    mass     pseudopotential
        Na             9.00    22.99000     Na( 1.00)

     48 Sym. Ops., with inversion, found



   Cartesian axes

     site n.     atom                  positions (alat units)
         1           Na  tau(   1) = (   0.0000000   0.0000000   0.0000000  )

     number of k points=  1568  Marzari-Vanderbilt smearing, width (Ry)=  0.0200

     Number of k-points >= 100: set verbosity='high' to print them.

     Dense  grid:    24835 G-vectors     FFT dimensions: (  40,  40,  40)

     Smooth grid:     8685 G-vectors     FFT dimensions: (  27,  27,  27)

     Estimated max dynamical RAM per process >       2.26MB

     Estimated total allocated dynamical RAM >       9.02MB

     The potential is recalculated from file :
     ./_ph0/na.bcc.save/charge-density.dat

     Starting wfc are    5 atomic +    4 random wfc

     Band Structure Calculation
     Davidson diagonalization with overlap

     ethr =  1.11E-10,  avg # of iterations = 21.6

     total cpu time spent up to now is       95.7 secs

     End of band structure calculation

     Number of k-points >= 100: set verbosity='high' to print the bands.

     the Fermi energy is     1.5165 ev

     Writing output data file na.bcc.save

                                                                                

     bravais-lattice index     =            3
     lattice parameter (alat)  =       8.0017  a.u.
     unit-cell volume          =     256.1633 (a.u.)^3
     number of atoms/cell      =            1
     number of atomic types    =            1
     kinetic-energy cut-off    =      40.0000  Ry
     charge density cut-off    =     320.0000  Ry
     convergence threshold     =      1.0E-12
     beta                      =       0.7000
     number of iterations used =            4
     Exchange-correlation      = SLA  PW   PBE  PBE ( 1  4  3  4 0 0)


     celldm(1)=    8.00170  celldm(2)=    0.00000  celldm(3)=    0.00000
     celldm(4)=    0.00000  celldm(5)=    0.00000  celldm(6)=    0.00000

     crystal axes: (cart. coord. in units of alat)
               a(1) = (  0.5000  0.5000  0.5000 )  
               a(2) = ( -0.5000  0.5000  0.5000 )  
               a(3) = ( -0.5000 -0.5000  0.5000 )  

     reciprocal axes: (cart. coord. in units 2 pi/alat)
               b(1) = (  1.0000  0.0000  1.0000 )  
               b(2) = ( -1.0000  1.0000  0.0000 )  
               b(3) = (  0.0000 -1.0000  1.0000 )  


     Atoms inside the unit cell: 

     Cartesian axes

     site n.  atom      mass           positions (alat units)
        1     Na  22.9900   tau(    1) = (    0.00000    0.00000    0.00000  )

     Computing dynamical matrix for 
                    q = (   0.0000000  -0.2500000   0.2500000 )

      4 Sym.Ops. (no q -> -q+G )


     G cutoff =  518.9850  (   6210 G-vectors)     FFT grid: ( 40, 40, 40)
     G cutoff =  259.4925  (   2172 G-vectors)  smooth grid: ( 27, 27, 27)

     number of k points=  1568  Marzari-Vanderbilt smearing, width (Ry)=  0.0200

     PseudoPot. # 1 for Na read from file:
     /home/s1333534/quantum_espresso/qe-6.1/pseudo/Na_pbe_v1.uspp.F.UPF
     MD5 check sum: 76a99c7e9422403d3e93cbc85ab7bccb
     Pseudo is Ultrasoft, Zval =  9.0
     Generated by new atomic code, or converted to UPF format
     Using radial grid of  819 points,  5 beta functions with: 
                l(1) =   0
                l(2) =   0
                l(3) =   1
                l(4) =   1
                l(5) =   2
     Q(r) pseudized with  8 coefficients,  rinner =    1.250   1.250   1.250
                                                       1.250   1.250

     Mode symmetry, C_2v (mm2)  point group:


     Atomic displacements:
     There are   3 irreducible representations

     Representation     1      1 modes -A_1  D_1  S_1  To be done

     Representation     2      1 modes -B_1  D_3  S_3  To be done

     Representation     3      1 modes -B_2  D_4  S_4  To be done



     Alpha used in Ewald sum =   2.8000
     PHONON       :  4m 9.66s CPU     4m25.81s WALL



     Representation #  1 mode #   1

     Self-consistent Calculation

      iter #   1 total cpu time :   273.3 secs   av.it.:   5.7
      thresh= 1.000E-02 alpha_mix =  0.700 |ddv_scf|^2 =  2.716E-03

      iter #   2 total cpu time :   280.1 secs   av.it.:   6.1
      thresh= 5.211E-03 alpha_mix =  0.700 |ddv_scf|^2 =  6.263E-02

      iter #   3 total cpu time :   286.6 secs   av.it.:   5.6
      thresh= 1.000E-02 alpha_mix =  0.700 |ddv_scf|^2 =  2.153E-06

      iter #   4 total cpu time :   294.5 secs   av.it.:   7.4
      thresh= 1.467E-04 alpha_mix =  0.700 |ddv_scf|^2 =  1.179E-08

      iter #   5 total cpu time :   302.9 secs   av.it.:   8.1
      thresh= 1.086E-05 alpha_mix =  0.700 |ddv_scf|^2 =  1.164E-09

      iter #   6 total cpu time :   311.2 secs   av.it.:   7.9
      thresh= 3.412E-06 alpha_mix =  0.700 |ddv_scf|^2 =  8.036E-11

      iter #   7 total cpu time :   319.4 secs   av.it.:   7.8
      thresh= 8.964E-07 alpha_mix =  0.700 |ddv_scf|^2 =  6.785E-10

      iter #   8 total cpu time :   326.0 secs   av.it.:   5.9
      thresh= 2.605E-06 alpha_mix =  0.700 |ddv_scf|^2 =  1.692E-12

      iter #   9 total cpu time :   334.2 secs   av.it.:   7.7
      thresh= 1.301E-07 alpha_mix =  0.700 |ddv_scf|^2 =  6.281E-13

     End of self-consistent calculation

     Convergence has been achieved 


     Representation #  2 mode #   2

     Self-consistent Calculation

      iter #   1 total cpu time :   341.6 secs   av.it.:   5.5
      thresh= 1.000E-02 alpha_mix =  0.700 |ddv_scf|^2 =  1.283E-05

      iter #   2 total cpu time :   349.6 secs   av.it.:   7.6
      thresh= 3.582E-04 alpha_mix =  0.700 |ddv_scf|^2 =  2.307E-07

      iter #   3 total cpu time :   357.8 secs   av.it.:   7.7
      thresh= 4.803E-05 alpha_mix =  0.700 |ddv_scf|^2 =  6.174E-09

      iter #   4 total cpu time :   365.6 secs   av.it.:   7.3
      thresh= 7.858E-06 alpha_mix =  0.700 |ddv_scf|^2 =  2.016E-11

      iter #   5 total cpu time :   373.7 secs   av.it.:   7.6
      thresh= 4.490E-07 alpha_mix =  0.700 |ddv_scf|^2 =  3.353E-14

     End of self-consistent calculation

     Convergence has been achieved 


     Representation #  3 mode #   3

     Self-consistent Calculation

      iter #   1 total cpu time :   381.1 secs   av.it.:   5.5
      thresh= 1.000E-02 alpha_mix =  0.700 |ddv_scf|^2 =  1.369E-05

      iter #   2 total cpu time :   389.1 secs   av.it.:   7.6
      thresh= 3.700E-04 alpha_mix =  0.700 |ddv_scf|^2 =  2.290E-07

      iter #   3 total cpu time :   397.6 secs   av.it.:   7.7
      thresh= 4.786E-05 alpha_mix =  0.700 |ddv_scf|^2 =  9.288E-09

      iter #   4 total cpu time :   405.5 secs   av.it.:   7.4
      thresh= 9.637E-06 alpha_mix =  0.700 |ddv_scf|^2 =  3.031E-11

      iter #   5 total cpu time :   413.9 secs   av.it.:   7.7
      thresh= 5.505E-07 alpha_mix =  0.700 |ddv_scf|^2 =  3.837E-14

     End of self-consistent calculation

     Convergence has been achieved 

     Number of q in the star =   12
     List of q in the star:
          1   0.000000000  -0.250000000   0.250000000
          2   0.250000000   0.000000000   0.250000000
          3  -0.250000000   0.000000000   0.250000000
          4   0.000000000   0.250000000   0.250000000
          5   0.250000000  -0.250000000   0.000000000
          6  -0.250000000   0.000000000  -0.250000000
          7   0.250000000   0.000000000  -0.250000000
          8   0.000000000  -0.250000000  -0.250000000
          9  -0.250000000  -0.250000000   0.000000000
         10  -0.250000000   0.250000000   0.000000000
         11   0.250000000   0.250000000   0.000000000
         12   0.000000000   0.250000000  -0.250000000

     Diagonalizing the dynamical matrix

     q = (    0.000000000  -0.250000000   0.250000000 ) 

 **************************************************************************
     freq (    1) =       0.717034 [THz] =      23.917691 [cm-1]
     freq (    2) =       1.709392 [THz] =      57.019192 [cm-1]
     freq (    3) =       2.758290 [THz] =      92.006641 [cm-1]
 **************************************************************************

     Mode symmetry, C_2v (mm2)  point group:

     freq (  1 -  1) =         23.9  [cm-1]   --> B_1  D_3  S_3      
     freq (  2 -  2) =         57.0  [cm-1]   --> B_2  D_4  S_4      
     freq (  3 -  3) =         92.0  [cm-1]   --> A_1  D_1  S_1      

     Calculation of q =    0.0000000  -0.3750000   0.3750000

   Info: using nr1, nr2, nr3 values from input

   Info: using nr1, nr2, nr3 values from input

     Parallelization info
     --------------------
     sticks:   dense  smooth     PW     G-vecs:    dense   smooth      PW
     Min         287     142     51                 6208     2171     466
     Max         288     144     52                 6209     2172     467
     Sum        1151     571    205                24835     8685    1865



     bravais-lattice index     =            3
     lattice parameter (alat)  =       8.0017  a.u.
     unit-cell volume          =     256.1633 (a.u.)^3
     number of atoms/cell      =            1
     number of atomic types    =            1
     number of electrons       =         9.00
     number of Kohn-Sham states=            9
     kinetic-energy cutoff     =      40.0000  Ry
     charge density cutoff     =     320.0000  Ry
     Exchange-correlation      = SLA  PW   PBE  PBE ( 1  4  3  4 0 0)

     celldm(1)=   8.001701  celldm(2)=   0.000000  celldm(3)=   0.000000
     celldm(4)=   0.000000  celldm(5)=   0.000000  celldm(6)=   0.000000

     crystal axes: (cart. coord. in units of alat)
               a(1) = (   0.500000   0.500000   0.500000 )  
               a(2) = (  -0.500000   0.500000   0.500000 )  
               a(3) = (  -0.500000  -0.500000   0.500000 )  

     reciprocal axes: (cart. coord. in units 2 pi/alat)
               b(1) = (  1.000000  0.000000  1.000000 )  
               b(2) = ( -1.000000  1.000000  0.000000 )  
               b(3) = (  0.000000 -1.000000  1.000000 )  


     PseudoPot. # 1 for Na read from file:
     /home/s1333534/quantum_espresso/qe-6.1/pseudo/Na_pbe_v1.uspp.F.UPF
     MD5 check sum: 76a99c7e9422403d3e93cbc85ab7bccb
     Pseudo is Ultrasoft, Zval =  9.0
     Generated by new atomic code, or converted to UPF format
     Using radial grid of  819 points,  5 beta functions with: 
                l(1) =   0
                l(2) =   0
                l(3) =   1
                l(4) =   1
                l(5) =   2
     Q(r) pseudized with  8 coefficients,  rinner =    1.250   1.250   1.250
                                                       1.250   1.250

     atomic species   valence    mass     pseudopotential
        Na             9.00    22.99000     Na( 1.00)

     48 Sym. Ops., with inversion, found



   Cartesian axes

     site n.     atom                  positions (alat units)
         1           Na  tau(   1) = (   0.0000000   0.0000000   0.0000000  )

     number of k points=  1568  Marzari-Vanderbilt smearing, width (Ry)=  0.0200

     Number of k-points >= 100: set verbosity='high' to print them.

     Dense  grid:    24835 G-vectors     FFT dimensions: (  40,  40,  40)

     Smooth grid:     8685 G-vectors     FFT dimensions: (  27,  27,  27)

     Estimated max dynamical RAM per process >       2.26MB

     Estimated total allocated dynamical RAM >       9.02MB

     The potential is recalculated from file :
     ./_ph0/na.bcc.save/charge-density.dat

     Starting wfc are    5 atomic +    4 random wfc

     Band Structure Calculation
     Davidson diagonalization with overlap

     ethr =  1.11E-10,  avg # of iterations = 21.7

     total cpu time spent up to now is      144.6 secs

     End of band structure calculation

     Number of k-points >= 100: set verbosity='high' to print the bands.

     the Fermi energy is     1.5165 ev

     Writing output data file na.bcc.save

                                                                                

     bravais-lattice index     =            3
     lattice parameter (alat)  =       8.0017  a.u.
     unit-cell volume          =     256.1633 (a.u.)^3
     number of atoms/cell      =            1
     number of atomic types    =            1
     kinetic-energy cut-off    =      40.0000  Ry
     charge density cut-off    =     320.0000  Ry
     convergence threshold     =      1.0E-12
     beta                      =       0.7000
     number of iterations used =            4
     Exchange-correlation      = SLA  PW   PBE  PBE ( 1  4  3  4 0 0)


     celldm(1)=    8.00170  celldm(2)=    0.00000  celldm(3)=    0.00000
     celldm(4)=    0.00000  celldm(5)=    0.00000  celldm(6)=    0.00000

     crystal axes: (cart. coord. in units of alat)
               a(1) = (  0.5000  0.5000  0.5000 )  
               a(2) = ( -0.5000  0.5000  0.5000 )  
               a(3) = ( -0.5000 -0.5000  0.5000 )  

     reciprocal axes: (cart. coord. in units 2 pi/alat)
               b(1) = (  1.0000  0.0000  1.0000 )  
               b(2) = ( -1.0000  1.0000  0.0000 )  
               b(3) = (  0.0000 -1.0000  1.0000 )  


     Atoms inside the unit cell: 

     Cartesian axes

     site n.  atom      mass           positions (alat units)
        1     Na  22.9900   tau(    1) = (    0.00000    0.00000    0.00000  )

     Computing dynamical matrix for 
                    q = (   0.0000000  -0.3750000   0.3750000 )

      4 Sym.Ops. (no q -> -q+G )


     G cutoff =  518.9850  (   6209 G-vectors)     FFT grid: ( 40, 40, 40)
     G cutoff =  259.4925  (   2172 G-vectors)  smooth grid: ( 27, 27, 27)

     number of k points=  1568  Marzari-Vanderbilt smearing, width (Ry)=  0.0200

     PseudoPot. # 1 for Na read from file:
     /home/s1333534/quantum_espresso/qe-6.1/pseudo/Na_pbe_v1.uspp.F.UPF
     MD5 check sum: 76a99c7e9422403d3e93cbc85ab7bccb
     Pseudo is Ultrasoft, Zval =  9.0
     Generated by new atomic code, or converted to UPF format
     Using radial grid of  819 points,  5 beta functions with: 
                l(1) =   0
                l(2) =   0
                l(3) =   1
                l(4) =   1
                l(5) =   2
     Q(r) pseudized with  8 coefficients,  rinner =    1.250   1.250   1.250
                                                       1.250   1.250

     Mode symmetry, C_2v (mm2)  point group:


     Atomic displacements:
     There are   3 irreducible representations

     Representation     1      1 modes -A_1  D_1  S_1  To be done

     Representation     2      1 modes -B_1  D_3  S_3  To be done

     Representation     3      1 modes -B_2  D_4  S_4  To be done



     Alpha used in Ewald sum =   2.8000
     PHONON       :  7m16.59s CPU     7m46.56s WALL



     Representation #  1 mode #   1

     Self-consistent Calculation

      iter #   1 total cpu time :   474.0 secs   av.it.:   5.7
      thresh= 1.000E-02 alpha_mix =  0.700 |ddv_scf|^2 =  2.888E-04

      iter #   2 total cpu time :   481.4 secs   av.it.:   6.7
      thresh= 1.700E-03 alpha_mix =  0.700 |ddv_scf|^2 =  8.753E-04

      iter #   3 total cpu time :   488.3 secs   av.it.:   6.0
      thresh= 2.959E-03 alpha_mix =  0.700 |ddv_scf|^2 =  3.906E-07

      iter #   4 total cpu time :   496.5 secs   av.it.:   7.8
      thresh= 6.250E-05 alpha_mix =  0.700 |ddv_scf|^2 =  1.211E-08

      iter #   5 total cpu time :   505.1 secs   av.it.:   8.1
      thresh= 1.101E-05 alpha_mix =  0.700 |ddv_scf|^2 =  3.600E-10

      iter #   6 total cpu time :   513.6 secs   av.it.:   8.1
      thresh= 1.897E-06 alpha_mix =  0.700 |ddv_scf|^2 =  1.991E-11

      iter #   7 total cpu time :   521.8 secs   av.it.:   7.8
      thresh= 4.462E-07 alpha_mix =  0.700 |ddv_scf|^2 =  1.139E-12

      iter #   8 total cpu time :   530.4 secs   av.it.:   8.1
      thresh= 1.067E-07 alpha_mix =  0.700 |ddv_scf|^2 =  9.308E-14

     End of self-consistent calculation

     Convergence has been achieved 


     Representation #  2 mode #   2

     Self-consistent Calculation

      iter #   1 total cpu time :   537.8 secs   av.it.:   5.5
      thresh= 1.000E-02 alpha_mix =  0.700 |ddv_scf|^2 =  1.309E-05

      iter #   2 total cpu time :   545.9 secs   av.it.:   7.6
      thresh= 3.619E-04 alpha_mix =  0.700 |ddv_scf|^2 =  2.257E-07

      iter #   3 total cpu time :   554.2 secs   av.it.:   7.8
      thresh= 4.751E-05 alpha_mix =  0.700 |ddv_scf|^2 =  7.237E-09

      iter #   4 total cpu time :   562.1 secs   av.it.:   7.3
      thresh= 8.507E-06 alpha_mix =  0.700 |ddv_scf|^2 =  2.271E-11

      iter #   5 total cpu time :   570.4 secs   av.it.:   7.7
      thresh= 4.766E-07 alpha_mix =  0.700 |ddv_scf|^2 =  2.934E-14

     End of self-consistent calculation

     Convergence has been achieved 


     Representation #  3 mode #   3

     Self-consistent Calculation

      iter #   1 total cpu time :   577.8 secs   av.it.:   5.5
      thresh= 1.000E-02 alpha_mix =  0.700 |ddv_scf|^2 =  1.461E-05

      iter #   2 total cpu time :   585.9 secs   av.it.:   7.6
      thresh= 3.823E-04 alpha_mix =  0.700 |ddv_scf|^2 =  2.252E-07

      iter #   3 total cpu time :   594.3 secs   av.it.:   7.7
      thresh= 4.746E-05 alpha_mix =  0.700 |ddv_scf|^2 =  1.315E-08

      iter #   4 total cpu time :   602.4 secs   av.it.:   7.3
      thresh= 1.147E-05 alpha_mix =  0.700 |ddv_scf|^2 =  4.271E-11

      iter #   5 total cpu time :   610.5 secs   av.it.:   7.7
      thresh= 6.535E-07 alpha_mix =  0.700 |ddv_scf|^2 =  4.230E-14

     End of self-consistent calculation

     Convergence has been achieved 

     Number of q in the star =   12
     List of q in the star:
          1   0.000000000  -0.375000000   0.375000000
          2   0.375000000   0.000000000   0.375000000
          3  -0.375000000   0.000000000   0.375000000
          4   0.000000000   0.375000000   0.375000000
          5   0.375000000  -0.375000000   0.000000000
          6  -0.375000000   0.000000000  -0.375000000
          7   0.375000000   0.000000000  -0.375000000
          8   0.000000000  -0.375000000  -0.375000000
          9  -0.375000000  -0.375000000   0.000000000
         10  -0.375000000   0.375000000   0.000000000
         11   0.375000000   0.375000000   0.000000000
         12   0.000000000   0.375000000  -0.375000000

     Diagonalizing the dynamical matrix

     q = (    0.000000000  -0.375000000   0.375000000 ) 

 **************************************************************************
     freq (    1) =       0.670625 [THz] =      22.369642 [cm-1]
     freq (    2) =       2.207707 [THz] =      73.641165 [cm-1]
     freq (    3) =       3.528674 [THz] =     117.703883 [cm-1]
 **************************************************************************

     Mode symmetry, C_2v (mm2)  point group:

     freq (  1 -  1) =         22.4  [cm-1]   --> B_1  D_3  S_3      
     freq (  2 -  2) =         73.6  [cm-1]   --> B_2  D_4  S_4      
     freq (  3 -  3) =        117.7  [cm-1]   --> A_1  D_1  S_1      

     Calculation of q =    0.0000000   0.5000000  -0.5000000

   Info: using nr1, nr2, nr3 values from input

   Info: using nr1, nr2, nr3 values from input

     Parallelization info
     --------------------
     sticks:   dense  smooth     PW     G-vecs:    dense   smooth      PW
     Min         287     142     51                 6208     2171     466
     Max         288     144     52                 6209     2172     467
     Sum        1151     571    205                24835     8685    1865



     bravais-lattice index     =            3
     lattice parameter (alat)  =       8.0017  a.u.
     unit-cell volume          =     256.1633 (a.u.)^3
     number of atoms/cell      =            1
     number of atomic types    =            1
     number of electrons       =         9.00
     number of Kohn-Sham states=            9
     kinetic-energy cutoff     =      40.0000  Ry
     charge density cutoff     =     320.0000  Ry
     Exchange-correlation      = SLA  PW   PBE  PBE ( 1  4  3  4 0 0)

     celldm(1)=   8.001701  celldm(2)=   0.000000  celldm(3)=   0.000000
     celldm(4)=   0.000000  celldm(5)=   0.000000  celldm(6)=   0.000000

     crystal axes: (cart. coord. in units of alat)
               a(1) = (   0.500000   0.500000   0.500000 )  
               a(2) = (  -0.500000   0.500000   0.500000 )  
               a(3) = (  -0.500000  -0.500000   0.500000 )  

     reciprocal axes: (cart. coord. in units 2 pi/alat)
               b(1) = (  1.000000  0.000000  1.000000 )  
               b(2) = ( -1.000000  1.000000  0.000000 )  
               b(3) = (  0.000000 -1.000000  1.000000 )  


     PseudoPot. # 1 for Na read from file:
     /home/s1333534/quantum_espresso/qe-6.1/pseudo/Na_pbe_v1.uspp.F.UPF
     MD5 check sum: 76a99c7e9422403d3e93cbc85ab7bccb
     Pseudo is Ultrasoft, Zval =  9.0
     Generated by new atomic code, or converted to UPF format
     Using radial grid of  819 points,  5 beta functions with: 
                l(1) =   0
                l(2) =   0
                l(3) =   1
                l(4) =   1
                l(5) =   2
     Q(r) pseudized with  8 coefficients,  rinner =    1.250   1.250   1.250
                                                       1.250   1.250

     atomic species   valence    mass     pseudopotential
        Na             9.00    22.99000     Na( 1.00)

     48 Sym. Ops., with inversion, found



   Cartesian axes

     site n.     atom                  positions (alat units)
         1           Na  tau(   1) = (   0.0000000   0.0000000   0.0000000  )

     number of k points=   840  Marzari-Vanderbilt smearing, width (Ry)=  0.0200

     Number of k-points >= 100: set verbosity='high' to print them.

     Dense  grid:    24835 G-vectors     FFT dimensions: (  40,  40,  40)

     Smooth grid:     8685 G-vectors     FFT dimensions: (  27,  27,  27)

     Estimated max dynamical RAM per process >       2.26MB

     Estimated total allocated dynamical RAM >       9.02MB

     The potential is recalculated from file :
     ./_ph0/na.bcc.save/charge-density.dat

     Starting wfc are    5 atomic +    4 random wfc

     Band Structure Calculation
     Davidson diagonalization with overlap

     ethr =  1.11E-10,  avg # of iterations = 21.6

     total cpu time spent up to now is      171.2 secs

     End of band structure calculation

     Number of k-points >= 100: set verbosity='high' to print the bands.

     the Fermi energy is     1.5165 ev

     Writing output data file na.bcc.save

                                                                                

     bravais-lattice index     =            3
     lattice parameter (alat)  =       8.0017  a.u.
     unit-cell volume          =     256.1633 (a.u.)^3
     number of atoms/cell      =            1
     number of atomic types    =            1
     kinetic-energy cut-off    =      40.0000  Ry
     charge density cut-off    =     320.0000  Ry
     convergence threshold     =      1.0E-12
     beta                      =       0.7000
     number of iterations used =            4
     Exchange-correlation      = SLA  PW   PBE  PBE ( 1  4  3  4 0 0)


     celldm(1)=    8.00170  celldm(2)=    0.00000  celldm(3)=    0.00000
     celldm(4)=    0.00000  celldm(5)=    0.00000  celldm(6)=    0.00000

     crystal axes: (cart. coord. in units of alat)
               a(1) = (  0.5000  0.5000  0.5000 )  
               a(2) = ( -0.5000  0.5000  0.5000 )  
               a(3) = ( -0.5000 -0.5000  0.5000 )  

     reciprocal axes: (cart. coord. in units 2 pi/alat)
               b(1) = (  1.0000  0.0000  1.0000 )  
               b(2) = ( -1.0000  1.0000  0.0000 )  
               b(3) = (  0.0000 -1.0000  1.0000 )  


     Atoms inside the unit cell: 

     Cartesian axes

     site n.  atom      mass           positions (alat units)
        1     Na  22.9900   tau(    1) = (    0.00000    0.00000    0.00000  )

     Computing dynamical matrix for 
                    q = (   0.0000000   0.5000000  -0.5000000 )

      9 Sym.Ops. (with q -> -q+G )


     G cutoff =  518.9850  (   6209 G-vectors)     FFT grid: ( 40, 40, 40)
     G cutoff =  259.4925  (   2172 G-vectors)  smooth grid: ( 27, 27, 27)

     number of k points=   840  Marzari-Vanderbilt smearing, width (Ry)=  0.0200

     PseudoPot. # 1 for Na read from file:
     /home/s1333534/quantum_espresso/qe-6.1/pseudo/Na_pbe_v1.uspp.F.UPF
     MD5 check sum: 76a99c7e9422403d3e93cbc85ab7bccb
     Pseudo is Ultrasoft, Zval =  9.0
     Generated by new atomic code, or converted to UPF format
     Using radial grid of  819 points,  5 beta functions with: 
                l(1) =   0
                l(2) =   0
                l(3) =   1
                l(4) =   1
                l(5) =   2
     Q(r) pseudized with  8 coefficients,  rinner =    1.250   1.250   1.250
                                                       1.250   1.250

     Mode symmetry, D_2h (mmm)  point group:


     Atomic displacements:
     There are   3 irreducible representations

     Representation     1      1 modes -B_1u  To be done

     Representation     2      1 modes -B_2u  To be done

     Representation     3      1 modes -B_3u  To be done



     Alpha used in Ewald sum =   2.8000
     PHONON       :  9m56.69s CPU    10m38.79s WALL



     Representation #  1 mode #   1

     Self-consistent Calculation

      iter #   1 total cpu time :   642.7 secs   av.it.:   5.5
      thresh= 1.000E-02 alpha_mix =  0.700 |ddv_scf|^2 =  1.502E-05

      iter #   2 total cpu time :   647.1 secs   av.it.:   7.5
      thresh= 3.876E-04 alpha_mix =  0.700 |ddv_scf|^2 =  2.234E-07

      iter #   3 total cpu time :   651.5 secs   av.it.:   7.7
      thresh= 4.727E-05 alpha_mix =  0.700 |ddv_scf|^2 =  1.484E-08

      iter #   4 total cpu time :   655.6 secs   av.it.:   7.1
      thresh= 1.218E-05 alpha_mix =  0.700 |ddv_scf|^2 =  4.867E-11

      iter #   5 total cpu time :   660.0 secs   av.it.:   7.5
      thresh= 6.977E-07 alpha_mix =  0.700 |ddv_scf|^2 =  4.457E-14

     End of self-consistent calculation

     Convergence has been achieved 


     Representation #  2 mode #   2

     Self-consistent Calculation

      iter #   1 total cpu time :   664.0 secs   av.it.:   5.5
      thresh= 1.000E-02 alpha_mix =  0.700 |ddv_scf|^2 =  1.322E-05

      iter #   2 total cpu time :   668.3 secs   av.it.:   7.6
      thresh= 3.636E-04 alpha_mix =  0.700 |ddv_scf|^2 =  2.229E-07

      iter #   3 total cpu time :   672.8 secs   av.it.:   7.7
      thresh= 4.722E-05 alpha_mix =  0.700 |ddv_scf|^2 =  7.685E-09

      iter #   4 total cpu time :   677.7 secs   av.it.:   7.1
      thresh= 8.767E-06 alpha_mix =  0.700 |ddv_scf|^2 =  2.389E-11

      iter #   5 total cpu time :   682.0 secs   av.it.:   7.5
      thresh= 4.888E-07 alpha_mix =  0.700 |ddv_scf|^2 =  2.725E-14

     End of self-consistent calculation

     Convergence has been achieved 


     Representation #  3 mode #   3

     Self-consistent Calculation

      iter #   1 total cpu time :   686.2 secs   av.it.:   5.6
      thresh= 1.000E-02 alpha_mix =  0.700 |ddv_scf|^2 =  1.082E-04

      iter #   2 total cpu time :   690.2 secs   av.it.:   6.7
      thresh= 1.040E-03 alpha_mix =  0.700 |ddv_scf|^2 =  5.409E-05

      iter #   3 total cpu time :   694.0 secs   av.it.:   6.4
      thresh= 7.355E-04 alpha_mix =  0.700 |ddv_scf|^2 =  8.760E-08

      iter #   4 total cpu time :   698.4 secs   av.it.:   7.7
      thresh= 2.960E-05 alpha_mix =  0.700 |ddv_scf|^2 =  3.321E-10

      iter #   5 total cpu time :   702.4 secs   av.it.:   6.7
      thresh= 1.822E-06 alpha_mix =  0.700 |ddv_scf|^2 =  5.369E-12

      iter #   6 total cpu time :   706.3 secs   av.it.:   6.6
      thresh= 2.317E-07 alpha_mix =  0.700 |ddv_scf|^2 =  2.107E-14

     End of self-consistent calculation

     Convergence has been achieved 

     Number of q in the star =    6
     List of q in the star:
          1   0.000000000   0.500000000  -0.500000000
          2  -0.500000000   0.500000000   0.000000000
          3   0.500000000   0.000000000   0.500000000
          4   0.500000000   0.000000000  -0.500000000
          5   0.000000000   0.500000000   0.500000000
          6   0.500000000   0.500000000   0.000000000

     Diagonalizing the dynamical matrix

     q = (    0.000000000   0.500000000  -0.500000000 ) 

 **************************************************************************
     freq (    1) =       0.583622 [THz] =      19.467519 [cm-1]
     freq (    2) =       2.378703 [THz] =      79.344993 [cm-1]
     freq (    3) =       3.825966 [THz] =     127.620488 [cm-1]
 **************************************************************************

     Mode symmetry, D_2h (mmm)  point group:

     freq (  1 -  1) =         19.5  [cm-1]   --> B_2u               
     freq (  2 -  2) =         79.3  [cm-1]   --> B_1u               
     freq (  3 -  3) =        127.6  [cm-1]   --> B_3u               

     Calculation of q =   -0.1250000  -0.1250000   0.2500000

   Info: using nr1, nr2, nr3 values from input

   Info: using nr1, nr2, nr3 values from input

     Parallelization info
     --------------------
     sticks:   dense  smooth     PW     G-vecs:    dense   smooth      PW
     Min         287     142     49                 6207     2171     430
     Max         288     144     50                 6210     2172     431
     Sum        1151     571    197                24835     8685    1721



     bravais-lattice index     =            3
     lattice parameter (alat)  =       8.0017  a.u.
     unit-cell volume          =     256.1633 (a.u.)^3
     number of atoms/cell      =            1
     number of atomic types    =            1
     number of electrons       =         9.00
     number of Kohn-Sham states=            9
     kinetic-energy cutoff     =      40.0000  Ry
     charge density cutoff     =     320.0000  Ry
     Exchange-correlation      = SLA  PW   PBE  PBE ( 1  4  3  4 0 0)

     celldm(1)=   8.001701  celldm(2)=   0.000000  celldm(3)=   0.000000
     celldm(4)=   0.000000  celldm(5)=   0.000000  celldm(6)=   0.000000

     crystal axes: (cart. coord. in units of alat)
               a(1) = (   0.500000   0.500000   0.500000 )  
               a(2) = (  -0.500000   0.500000   0.500000 )  
               a(3) = (  -0.500000  -0.500000   0.500000 )  

     reciprocal axes: (cart. coord. in units 2 pi/alat)
               b(1) = (  1.000000  0.000000  1.000000 )  
               b(2) = ( -1.000000  1.000000  0.000000 )  
               b(3) = (  0.000000 -1.000000  1.000000 )  


     PseudoPot. # 1 for Na read from file:
     /home/s1333534/quantum_espresso/qe-6.1/pseudo/Na_pbe_v1.uspp.F.UPF
     MD5 check sum: 76a99c7e9422403d3e93cbc85ab7bccb
     Pseudo is Ultrasoft, Zval =  9.0
     Generated by new atomic code, or converted to UPF format
     Using radial grid of  819 points,  5 beta functions with: 
                l(1) =   0
                l(2) =   0
                l(3) =   1
                l(4) =   1
                l(5) =   2
     Q(r) pseudized with  8 coefficients,  rinner =    1.250   1.250   1.250
                                                       1.250   1.250

     atomic species   valence    mass     pseudopotential
        Na             9.00    22.99000     Na( 1.00)

     48 Sym. Ops., with inversion, found



   Cartesian axes

     site n.     atom                  positions (alat units)
         1           Na  tau(   1) = (   0.0000000   0.0000000   0.0000000  )

     number of k points=  2940  Marzari-Vanderbilt smearing, width (Ry)=  0.0200

     Number of k-points >= 100: set verbosity='high' to print them.

     Dense  grid:    24835 G-vectors     FFT dimensions: (  40,  40,  40)

     Smooth grid:     8685 G-vectors     FFT dimensions: (  27,  27,  27)

     Estimated max dynamical RAM per process >       2.26MB

     Estimated total allocated dynamical RAM >       9.02MB

     The potential is recalculated from file :
     ./_ph0/na.bcc.save/charge-density.dat

     Starting wfc are    5 atomic +    4 random wfc

     Band Structure Calculation
     Davidson diagonalization with overlap

     ethr =  1.11E-10,  avg # of iterations = 21.8

     total cpu time spent up to now is      260.2 secs

     End of band structure calculation

     Number of k-points >= 100: set verbosity='high' to print the bands.

     the Fermi energy is     1.5165 ev

     Writing output data file na.bcc.save

                                                                                

     bravais-lattice index     =            3
     lattice parameter (alat)  =       8.0017  a.u.
     unit-cell volume          =     256.1633 (a.u.)^3
     number of atoms/cell      =            1
     number of atomic types    =            1
     kinetic-energy cut-off    =      40.0000  Ry
     charge density cut-off    =     320.0000  Ry
     convergence threshold     =      1.0E-12
     beta                      =       0.7000
     number of iterations used =            4
     Exchange-correlation      = SLA  PW   PBE  PBE ( 1  4  3  4 0 0)


     celldm(1)=    8.00170  celldm(2)=    0.00000  celldm(3)=    0.00000
     celldm(4)=    0.00000  celldm(5)=    0.00000  celldm(6)=    0.00000

     crystal axes: (cart. coord. in units of alat)
               a(1) = (  0.5000  0.5000  0.5000 )  
               a(2) = ( -0.5000  0.5000  0.5000 )  
               a(3) = ( -0.5000 -0.5000  0.5000 )  

     reciprocal axes: (cart. coord. in units 2 pi/alat)
               b(1) = (  1.0000  0.0000  1.0000 )  
               b(2) = ( -1.0000  1.0000  0.0000 )  
               b(3) = (  0.0000 -1.0000  1.0000 )  


     Atoms inside the unit cell: 

     Cartesian axes

     site n.  atom      mass           positions (alat units)
        1     Na  22.9900   tau(    1) = (    0.00000    0.00000    0.00000  )

     Computing dynamical matrix for 
                    q = (  -0.1250000  -0.1250000   0.2500000 )

      2 Sym.Ops. (no q -> -q+G )


     G cutoff =  518.9850  (   6210 G-vectors)     FFT grid: ( 40, 40, 40)
     G cutoff =  259.4925  (   2172 G-vectors)  smooth grid: ( 27, 27, 27)

     number of k points=  2940  Marzari-Vanderbilt smearing, width (Ry)=  0.0200

     PseudoPot. # 1 for Na read from file:
     /home/s1333534/quantum_espresso/qe-6.1/pseudo/Na_pbe_v1.uspp.F.UPF
     MD5 check sum: 76a99c7e9422403d3e93cbc85ab7bccb
     Pseudo is Ultrasoft, Zval =  9.0
     Generated by new atomic code, or converted to UPF format
     Using radial grid of  819 points,  5 beta functions with: 
                l(1) =   0
                l(2) =   0
                l(3) =   1
                l(4) =   1
                l(5) =   2
     Q(r) pseudized with  8 coefficients,  rinner =    1.250   1.250   1.250
                                                       1.250   1.250

     Mode symmetry, C_s (m)     point group:


     Atomic displacements:
     There are   3 irreducible representations

     Representation     1      1 modes -A'  To be done

     Representation     2      1 modes -A'  To be done

     Representation     3      1 modes -A''  To be done



     Alpha used in Ewald sum =   2.8000
     PHONON       : 12m30.77s CPU    13m23.24s WALL



     Representation #  1 mode #   1

     Self-consistent Calculation

      iter #   1 total cpu time :   817.0 secs   av.it.:   5.6
      thresh= 1.000E-02 alpha_mix =  0.700 |ddv_scf|^2 =  6.657E-04

      iter #   2 total cpu time :   830.7 secs   av.it.:   6.7
      thresh= 2.580E-03 alpha_mix =  0.700 |ddv_scf|^2 =  3.026E-02

      iter #   3 total cpu time :   841.8 secs   av.it.:   4.8
      thresh= 1.000E-02 alpha_mix =  0.700 |ddv_scf|^2 =  2.680E-07

      iter #   4 total cpu time :   857.6 secs   av.it.:   8.2
      thresh= 5.177E-05 alpha_mix =  0.700 |ddv_scf|^2 =  8.579E-09

      iter #   5 total cpu time :   872.9 secs   av.it.:   7.8
      thresh= 9.262E-06 alpha_mix =  0.700 |ddv_scf|^2 =  6.164E-10

      iter #   6 total cpu time :   888.1 secs   av.it.:   7.7
      thresh= 2.483E-06 alpha_mix =  0.700 |ddv_scf|^2 =  1.073E-10

      iter #   7 total cpu time :   901.9 secs   av.it.:   6.8
      thresh= 1.036E-06 alpha_mix =  0.700 |ddv_scf|^2 =  2.381E-10

      iter #   8 total cpu time :   916.1 secs   av.it.:   7.0
      thresh= 1.543E-06 alpha_mix =  0.700 |ddv_scf|^2 =  4.114E-11

      iter #   9 total cpu time :   929.1 secs   av.it.:   6.3
      thresh= 6.414E-07 alpha_mix =  0.700 |ddv_scf|^2 =  4.749E-12

      iter #  10 total cpu time :   943.6 secs   av.it.:   7.2
      thresh= 2.179E-07 alpha_mix =  0.700 |ddv_scf|^2 =  1.704E-14

     End of self-consistent calculation

     Convergence has been achieved 


     Representation #  2 mode #   2

     Self-consistent Calculation

      iter #   1 total cpu time :   957.9 secs   av.it.:   5.7
      thresh= 1.000E-02 alpha_mix =  0.700 |ddv_scf|^2 =  5.904E-03

      iter #   2 total cpu time :   970.9 secs   av.it.:   6.1
      thresh= 7.684E-03 alpha_mix =  0.700 |ddv_scf|^2 =  2.730E-01

      iter #   3 total cpu time :   983.5 secs   av.it.:   5.8
      thresh= 1.000E-02 alpha_mix =  0.700 |ddv_scf|^2 =  2.765E-06

      iter #   4 total cpu time :   998.2 secs   av.it.:   7.4
      thresh= 1.663E-04 alpha_mix =  0.700 |ddv_scf|^2 =  2.055E-08

      iter #   5 total cpu time :  1014.4 secs   av.it.:   7.9
      thresh= 1.433E-05 alpha_mix =  0.700 |ddv_scf|^2 =  2.195E-09

      iter #   6 total cpu time :  1029.6 secs   av.it.:   7.7
      thresh= 4.685E-06 alpha_mix =  0.700 |ddv_scf|^2 =  1.138E-10

      iter #   7 total cpu time :  1045.4 secs   av.it.:   7.9
      thresh= 1.067E-06 alpha_mix =  0.700 |ddv_scf|^2 =  1.598E-09

      iter #   8 total cpu time :  1057.2 secs   av.it.:   5.5
      thresh= 3.998E-06 alpha_mix =  0.700 |ddv_scf|^2 =  1.227E-12

      iter #   9 total cpu time :  1073.5 secs   av.it.:   7.6
      thresh= 1.107E-07 alpha_mix =  0.700 |ddv_scf|^2 =  8.664E-14

     End of self-consistent calculation

     Convergence has been achieved 


     Representation #  3 mode #   3

     Self-consistent Calculation

      iter #   1 total cpu time :  1087.4 secs   av.it.:   5.5
      thresh= 1.000E-02 alpha_mix =  0.700 |ddv_scf|^2 =  1.368E-05

      iter #   2 total cpu time :  1103.0 secs   av.it.:   7.7
      thresh= 3.699E-04 alpha_mix =  0.700 |ddv_scf|^2 =  2.249E-07

      iter #   3 total cpu time :  1118.5 secs   av.it.:   7.8
      thresh= 4.742E-05 alpha_mix =  0.700 |ddv_scf|^2 =  9.246E-09

      iter #   4 total cpu time :  1133.5 secs   av.it.:   7.5
      thresh= 9.616E-06 alpha_mix =  0.700 |ddv_scf|^2 =  4.228E-11

      iter #   5 total cpu time :  1148.8 secs   av.it.:   7.7
      thresh= 6.502E-07 alpha_mix =  0.700 |ddv_scf|^2 =  4.174E-14

     End of self-consistent calculation

     Convergence has been achieved 

     Number of q in the star =   24
     List of q in the star:
          1  -0.125000000  -0.125000000   0.250000000
          2  -0.125000000  -0.250000000   0.125000000
          3   0.125000000  -0.250000000   0.125000000
          4  -0.125000000   0.125000000  -0.250000000
          5  -0.125000000   0.250000000  -0.125000000
          6   0.125000000   0.125000000  -0.250000000
          7   0.125000000   0.250000000  -0.125000000
          8   0.125000000  -0.250000000  -0.125000000
          9  -0.250000000   0.125000000  -0.125000000
         10   0.250000000   0.125000000   0.125000000
         11   0.125000000   0.125000000   0.250000000
         12  -0.250000000  -0.125000000   0.125000000
         13   0.250000000  -0.125000000  -0.125000000
         14   0.125000000  -0.125000000  -0.250000000
         15   0.125000000  -0.125000000   0.250000000
         16   0.125000000   0.250000000   0.125000000
         17  -0.125000000  -0.125000000  -0.250000000
         18  -0.125000000   0.125000000   0.250000000
         19  -0.125000000   0.250000000   0.125000000
         20  -0.125000000  -0.250000000  -0.125000000
         21   0.250000000   0.125000000  -0.125000000
         22  -0.250000000   0.125000000   0.125000000
         23   0.250000000  -0.125000000   0.125000000
         24  -0.250000000  -0.125000000  -0.125000000

     Diagonalizing the dynamical matrix

     q = (   -0.125000000  -0.125000000   0.250000000 ) 

 **************************************************************************
     freq (    1) =       1.317331 [THz] =      43.941424 [cm-1]
     freq (    2) =       1.396749 [THz] =      46.590542 [cm-1]
     freq (    3) =       2.627380 [THz] =      87.639960 [cm-1]
 **************************************************************************

     Mode symmetry, C_s (m)     point group:

     freq (  1 -  1) =         43.9  [cm-1]   --> A'                 
     freq (  2 -  2) =         46.6  [cm-1]   --> A''                
     freq (  3 -  3) =         87.6  [cm-1]   --> A'                 

     Calculation of q =   -0.1250000  -0.2500000   0.3750000

   Info: using nr1, nr2, nr3 values from input

   Info: using nr1, nr2, nr3 values from input

     Parallelization info
     --------------------
     sticks:   dense  smooth     PW     G-vecs:    dense   smooth      PW
     Min         287     142     50                 6207     2171     436
     Max         288     144     51                 6210     2172     437
     Sum        1151     571    201                24835     8685    1745



     bravais-lattice index     =            3
     lattice parameter (alat)  =       8.0017  a.u.
     unit-cell volume          =     256.1633 (a.u.)^3
     number of atoms/cell      =            1
     number of atomic types    =            1
     number of electrons       =         9.00
     number of Kohn-Sham states=            9
     kinetic-energy cutoff     =      40.0000  Ry
     charge density cutoff     =     320.0000  Ry
     Exchange-correlation      = SLA  PW   PBE  PBE ( 1  4  3  4 0 0)

     celldm(1)=   8.001701  celldm(2)=   0.000000  celldm(3)=   0.000000
     celldm(4)=   0.000000  celldm(5)=   0.000000  celldm(6)=   0.000000

     crystal axes: (cart. coord. in units of alat)
               a(1) = (   0.500000   0.500000   0.500000 )  
               a(2) = (  -0.500000   0.500000   0.500000 )  
               a(3) = (  -0.500000  -0.500000   0.500000 )  

     reciprocal axes: (cart. coord. in units 2 pi/alat)
               b(1) = (  1.000000  0.000000  1.000000 )  
               b(2) = ( -1.000000  1.000000  0.000000 )  
               b(3) = (  0.000000 -1.000000  1.000000 )  


     PseudoPot. # 1 for Na read from file:
     /home/s1333534/quantum_espresso/qe-6.1/pseudo/Na_pbe_v1.uspp.F.UPF
     MD5 check sum: 76a99c7e9422403d3e93cbc85ab7bccb
     Pseudo is Ultrasoft, Zval =  9.0
     Generated by new atomic code, or converted to UPF format
     Using radial grid of  819 points,  5 beta functions with: 
                l(1) =   0
                l(2) =   0
                l(3) =   1
                l(4) =   1
                l(5) =   2
     Q(r) pseudized with  8 coefficients,  rinner =    1.250   1.250   1.250
                                                       1.250   1.250

     atomic species   valence    mass     pseudopotential
        Na             9.00    22.99000     Na( 1.00)

     48 Sym. Ops., with inversion, found



   Cartesian axes

     site n.     atom                  positions (alat units)
         1           Na  tau(   1) = (   0.0000000   0.0000000   0.0000000  )

     number of k points=  5488  Marzari-Vanderbilt smearing, width (Ry)=  0.0200

     Number of k-points >= 100: set verbosity='high' to print them.

     Dense  grid:    24835 G-vectors     FFT dimensions: (  40,  40,  40)

     Smooth grid:     8685 G-vectors     FFT dimensions: (  27,  27,  27)

     Estimated max dynamical RAM per process >       2.26MB

     Estimated total allocated dynamical RAM >       9.02MB

     The potential is recalculated from file :
     ./_ph0/na.bcc.save/charge-density.dat

     Starting wfc are    5 atomic +    4 random wfc

     Band Structure Calculation
     Davidson diagonalization with overlap

     ethr =  1.11E-10,  avg # of iterations = 21.5

     total cpu time spent up to now is      428.5 secs

     End of band structure calculation

     Number of k-points >= 100: set verbosity='high' to print the bands.

     the Fermi energy is     1.5165 ev

     Writing output data file na.bcc.save

                                                                                

     bravais-lattice index     =            3
     lattice parameter (alat)  =       8.0017  a.u.
     unit-cell volume          =     256.1633 (a.u.)^3
     number of atoms/cell      =            1
     number of atomic types    =            1
     kinetic-energy cut-off    =      40.0000  Ry
     charge density cut-off    =     320.0000  Ry
     convergence threshold     =      1.0E-12
     beta                      =       0.7000
     number of iterations used =            4
     Exchange-correlation      = SLA  PW   PBE  PBE ( 1  4  3  4 0 0)


     celldm(1)=    8.00170  celldm(2)=    0.00000  celldm(3)=    0.00000
     celldm(4)=    0.00000  celldm(5)=    0.00000  celldm(6)=    0.00000

     crystal axes: (cart. coord. in units of alat)
               a(1) = (  0.5000  0.5000  0.5000 )  
               a(2) = ( -0.5000  0.5000  0.5000 )  
               a(3) = ( -0.5000 -0.5000  0.5000 )  

     reciprocal axes: (cart. coord. in units 2 pi/alat)
               b(1) = (  1.0000  0.0000  1.0000 )  
               b(2) = ( -1.0000  1.0000  0.0000 )  
               b(3) = (  0.0000 -1.0000  1.0000 )  


     Atoms inside the unit cell: 

     Cartesian axes

     site n.  atom      mass           positions (alat units)
        1     Na  22.9900   tau(    1) = (    0.00000    0.00000    0.00000  )

     Computing dynamical matrix for 
                    q = (  -0.1250000  -0.2500000   0.3750000 )

     No symmetry!

     G cutoff =  518.9850  (   6210 G-vectors)     FFT grid: ( 40, 40, 40)
     G cutoff =  259.4925  (   2172 G-vectors)  smooth grid: ( 27, 27, 27)

     number of k points=  5488  Marzari-Vanderbilt smearing, width (Ry)=  0.0200

     PseudoPot. # 1 for Na read from file:
     /home/s1333534/quantum_espresso/qe-6.1/pseudo/Na_pbe_v1.uspp.F.UPF
     MD5 check sum: 76a99c7e9422403d3e93cbc85ab7bccb
     Pseudo is Ultrasoft, Zval =  9.0
     Generated by new atomic code, or converted to UPF format
     Using radial grid of  819 points,  5 beta functions with: 
                l(1) =   0
                l(2) =   0
                l(3) =   1
                l(4) =   1
                l(5) =   2
     Q(r) pseudized with  8 coefficients,  rinner =    1.250   1.250   1.250
                                                       1.250   1.250

     Mode symmetry, C_1 (1)     point group:


     Atomic displacements:
     There are   3 irreducible representations

     Representation     1      1 modes -A  To be done

     Representation     2      1 modes -A  To be done

     Representation     3      1 modes -A  To be done



     Alpha used in Ewald sum =   2.8000
     PHONON       : 20m43.02s CPU    22m10.58s WALL



     Representation #  1 mode #   1

     Self-consistent Calculation

      iter #   1 total cpu time :  1356.8 secs   av.it.:   5.7
      thresh= 1.000E-02 alpha_mix =  0.700 |ddv_scf|^2 =  2.064E-05

      iter #   2 total cpu time :  1386.3 secs   av.it.:   7.9
      thresh= 4.543E-04 alpha_mix =  0.700 |ddv_scf|^2 =  4.285E-05

      iter #   3 total cpu time :  1411.0 secs   av.it.:   6.1
      thresh= 6.546E-04 alpha_mix =  0.700 |ddv_scf|^2 =  4.232E-06

      iter #   4 total cpu time :  1438.3 secs   av.it.:   7.1
      thresh= 2.057E-04 alpha_mix =  0.700 |ddv_scf|^2 =  6.166E-09

      iter #   5 total cpu time :  1467.4 secs   av.it.:   7.9
      thresh= 7.853E-06 alpha_mix =  0.700 |ddv_scf|^2 =  1.429E-10

      iter #   6 total cpu time :  1497.5 secs   av.it.:   8.2
      thresh= 1.196E-06 alpha_mix =  0.700 |ddv_scf|^2 =  5.364E-12

      iter #   7 total cpu time :  1528.6 secs   av.it.:   8.4
      thresh= 2.316E-07 alpha_mix =  0.700 |ddv_scf|^2 =  5.941E-13

     End of self-consistent calculation

     Convergence has been achieved 


     Representation #  2 mode #   2

     Self-consistent Calculation

      iter #   1 total cpu time :  1556.0 secs   av.it.:   5.8
      thresh= 1.000E-02 alpha_mix =  0.700 |ddv_scf|^2 =  2.863E-04

      iter #   2 total cpu time :  1583.2 secs   av.it.:   7.1
      thresh= 1.692E-03 alpha_mix =  0.700 |ddv_scf|^2 =  1.680E-03

      iter #   3 total cpu time :  1606.9 secs   av.it.:   5.7
      thresh= 4.099E-03 alpha_mix =  0.700 |ddv_scf|^2 =  2.338E-07

      iter #   4 total cpu time :  1637.6 secs   av.it.:   8.3
      thresh= 4.835E-05 alpha_mix =  0.700 |ddv_scf|^2 =  8.669E-09

      iter #   5 total cpu time :  1667.7 secs   av.it.:   8.2
      thresh= 9.311E-06 alpha_mix =  0.700 |ddv_scf|^2 =  4.747E-10

      iter #   6 total cpu time :  1698.4 secs   av.it.:   8.3
      thresh= 2.179E-06 alpha_mix =  0.700 |ddv_scf|^2 =  2.345E-11

      iter #   7 total cpu time :  1728.8 secs   av.it.:   8.1
      thresh= 4.843E-07 alpha_mix =  0.700 |ddv_scf|^2 =  2.555E-12

      iter #   8 total cpu time :  1758.3 secs   av.it.:   7.7
      thresh= 1.598E-07 alpha_mix =  0.700 |ddv_scf|^2 =  8.878E-12

      iter #   9 total cpu time :  1783.7 secs   av.it.:   6.3
      thresh= 2.980E-07 alpha_mix =  0.700 |ddv_scf|^2 =  2.672E-14

     End of self-consistent calculation

     Convergence has been achieved 


     Representation #  3 mode #   3

     Self-consistent Calculation

      iter #   1 total cpu time :  1811.2 secs   av.it.:   5.8
      thresh= 1.000E-02 alpha_mix =  0.700 |ddv_scf|^2 =  2.781E-04

      iter #   2 total cpu time :  1838.8 secs   av.it.:   7.1
      thresh= 1.668E-03 alpha_mix =  0.700 |ddv_scf|^2 =  1.614E-03

      iter #   3 total cpu time :  1862.5 secs   av.it.:   5.7
      thresh= 4.017E-03 alpha_mix =  0.700 |ddv_scf|^2 =  1.979E-07

      iter #   4 total cpu time :  1893.8 secs   av.it.:   8.2
      thresh= 4.448E-05 alpha_mix =  0.700 |ddv_scf|^2 =  9.207E-09

      iter #   5 total cpu time :  1924.5 secs   av.it.:   8.3
      thresh= 9.595E-06 alpha_mix =  0.700 |ddv_scf|^2 =  3.483E-10

      iter #   6 total cpu time :  1955.1 secs   av.it.:   8.3
      thresh= 1.866E-06 alpha_mix =  0.700 |ddv_scf|^2 =  2.500E-11

      iter #   7 total cpu time :  1984.7 secs   av.it.:   8.0
      thresh= 5.000E-07 alpha_mix =  0.700 |ddv_scf|^2 =  8.030E-13

     End of self-consistent calculation

     Convergence has been achieved 

     Number of q in the star =   48
     List of q in the star:
          1  -0.125000000  -0.250000000   0.375000000
          2  -0.250000000  -0.125000000   0.375000000
          3  -0.125000000  -0.375000000   0.250000000
          4   0.125000000  -0.375000000   0.250000000
          5  -0.125000000   0.250000000  -0.375000000
          6  -0.125000000   0.375000000  -0.250000000
          7   0.125000000   0.250000000  -0.375000000
          8   0.125000000   0.375000000  -0.250000000
          9   0.250000000  -0.375000000  -0.125000000
         10  -0.375000000   0.125000000  -0.250000000
         11   0.375000000   0.125000000   0.250000000
         12   0.250000000   0.125000000   0.375000000
         13  -0.375000000  -0.125000000   0.250000000
         14   0.375000000  -0.125000000  -0.250000000
         15   0.125000000  -0.250000000  -0.375000000
         16   0.250000000  -0.125000000  -0.375000000
         17  -0.250000000   0.125000000  -0.375000000
         18  -0.375000000  -0.250000000   0.125000000
         19  -0.375000000   0.250000000  -0.125000000
         20   0.375000000   0.250000000   0.125000000
         21   0.250000000  -0.125000000   0.375000000
         22  -0.250000000   0.375000000  -0.125000000
         23   0.125000000  -0.375000000  -0.250000000
         24   0.125000000   0.375000000   0.250000000
         25   0.250000000   0.125000000  -0.375000000
         26  -0.125000000  -0.250000000  -0.375000000
         27  -0.250000000   0.125000000   0.375000000
         28  -0.125000000   0.375000000   0.250000000
         29  -0.125000000   0.250000000   0.375000000
         30   0.125000000  -0.250000000   0.375000000
         31  -0.125000000  -0.375000000  -0.250000000
         32   0.125000000   0.250000000   0.375000000
         33   0.375000000  -0.250000000  -0.125000000
         34   0.250000000   0.375000000   0.125000000
         35  -0.250000000  -0.375000000   0.125000000
         36   0.375000000   0.250000000  -0.125000000
         37  -0.375000000   0.250000000   0.125000000
         38   0.375000000  -0.250000000   0.125000000
         39  -0.375000000  -0.250000000  -0.125000000
         40  -0.250000000  -0.125000000  -0.375000000
         41   0.250000000  -0.375000000   0.125000000
         42  -0.250000000  -0.375000000  -0.125000000
         43   0.250000000   0.375000000  -0.125000000
         44  -0.250000000   0.375000000   0.125000000
         45  -0.375000000   0.125000000   0.250000000
         46  -0.375000000  -0.125000000  -0.250000000
         47   0.375000000  -0.125000000   0.250000000
         48   0.375000000   0.125000000  -0.250000000

     Diagonalizing the dynamical matrix

     q = (   -0.125000000  -0.250000000   0.375000000 ) 

 **************************************************************************
     freq (    1) =       1.799956 [THz] =      60.040082 [cm-1]
     freq (    2) =       2.345793 [THz] =      78.247238 [cm-1]
     freq (    3) =       3.471457 [THz] =     115.795329 [cm-1]
 **************************************************************************

     Mode symmetry, C_1 (1)     point group:

     freq (  1 -  1) =         60.0  [cm-1]   --> A                  
     freq (  2 -  2) =         78.2  [cm-1]   --> A                  
     freq (  3 -  3) =        115.8  [cm-1]   --> A                  

     Calculation of q =   -0.1250000   0.6250000  -0.5000000

   Info: using nr1, nr2, nr3 values from input

   Info: using nr1, nr2, nr3 values from input

     Parallelization info
     --------------------
     sticks:   dense  smooth     PW     G-vecs:    dense   smooth      PW
     Min         287     142     53                 6208     2171     490
     Max         288     144     54                 6209     2172     491
     Sum        1151     571    213                24835     8685    1961



     bravais-lattice index     =            3
     lattice parameter (alat)  =       8.0017  a.u.
     unit-cell volume          =     256.1633 (a.u.)^3
     number of atoms/cell      =            1
     number of atomic types    =            1
     number of electrons       =         9.00
     number of Kohn-Sham states=            9
     kinetic-energy cutoff     =      40.0000  Ry
     charge density cutoff     =     320.0000  Ry
     Exchange-correlation      = SLA  PW   PBE  PBE ( 1  4  3  4 0 0)

     celldm(1)=   8.001701  celldm(2)=   0.000000  celldm(3)=   0.000000
     celldm(4)=   0.000000  celldm(5)=   0.000000  celldm(6)=   0.000000

     crystal axes: (cart. coord. in units of alat)
               a(1) = (   0.500000   0.500000   0.500000 )  
               a(2) = (  -0.500000   0.500000   0.500000 )  
               a(3) = (  -0.500000  -0.500000   0.500000 )  

     reciprocal axes: (cart. coord. in units 2 pi/alat)
               b(1) = (  1.000000  0.000000  1.000000 )  
               b(2) = ( -1.000000  1.000000  0.000000 )  
               b(3) = (  0.000000 -1.000000  1.000000 )  


     PseudoPot. # 1 for Na read from file:
     /home/s1333534/quantum_espresso/qe-6.1/pseudo/Na_pbe_v1.uspp.F.UPF
     MD5 check sum: 76a99c7e9422403d3e93cbc85ab7bccb
     Pseudo is Ultrasoft, Zval =  9.0
     Generated by new atomic code, or converted to UPF format
     Using radial grid of  819 points,  5 beta functions with: 
                l(1) =   0
                l(2) =   0
                l(3) =   1
                l(4) =   1
                l(5) =   2
     Q(r) pseudized with  8 coefficients,  rinner =    1.250   1.250   1.250
                                                       1.250   1.250

     atomic species   valence    mass     pseudopotential
        Na             9.00    22.99000     Na( 1.00)

     48 Sym. Ops., with inversion, found



   Cartesian axes

     site n.     atom                  positions (alat units)
         1           Na  tau(   1) = (   0.0000000   0.0000000   0.0000000  )

     number of k points=  5488  Marzari-Vanderbilt smearing, width (Ry)=  0.0200

     Number of k-points >= 100: set verbosity='high' to print them.

     Dense  grid:    24835 G-vectors     FFT dimensions: (  40,  40,  40)

     Smooth grid:     8685 G-vectors     FFT dimensions: (  27,  27,  27)

     Estimated max dynamical RAM per process >       2.26MB

     Estimated total allocated dynamical RAM >       9.02MB

     The potential is recalculated from file :
     ./_ph0/na.bcc.save/charge-density.dat

     Starting wfc are    5 atomic +    4 random wfc

     Band Structure Calculation
     Davidson diagonalization with overlap

     ethr =  1.11E-10,  avg # of iterations = 21.6

     total cpu time spent up to now is      600.5 secs

     End of band structure calculation

     Number of k-points >= 100: set verbosity='high' to print the bands.

     the Fermi energy is     1.5165 ev

     Writing output data file na.bcc.save

                                                                                

     bravais-lattice index     =            3
     lattice parameter (alat)  =       8.0017  a.u.
     unit-cell volume          =     256.1633 (a.u.)^3
     number of atoms/cell      =            1
     number of atomic types    =            1
     kinetic-energy cut-off    =      40.0000  Ry
     charge density cut-off    =     320.0000  Ry
     convergence threshold     =      1.0E-12
     beta                      =       0.7000
     number of iterations used =            4
     Exchange-correlation      = SLA  PW   PBE  PBE ( 1  4  3  4 0 0)


     celldm(1)=    8.00170  celldm(2)=    0.00000  celldm(3)=    0.00000
     celldm(4)=    0.00000  celldm(5)=    0.00000  celldm(6)=    0.00000

     crystal axes: (cart. coord. in units of alat)
               a(1) = (  0.5000  0.5000  0.5000 )  
               a(2) = ( -0.5000  0.5000  0.5000 )  
               a(3) = ( -0.5000 -0.5000  0.5000 )  

     reciprocal axes: (cart. coord. in units 2 pi/alat)
               b(1) = (  1.0000  0.0000  1.0000 )  
               b(2) = ( -1.0000  1.0000  0.0000 )  
               b(3) = (  0.0000 -1.0000  1.0000 )  


     Atoms inside the unit cell: 

     Cartesian axes

[...]
     Exchange-correlation      = SLA  PW   PBE  PBE ( 1  4  3  4 0 0)


     celldm(1)=    8.00170  celldm(2)=    0.00000  celldm(3)=    0.00000
     celldm(4)=    0.00000  celldm(5)=    0.00000  celldm(6)=    0.00000

     crystal axes: (cart. coord. in units of alat)
               a(1) = (  0.5000  0.5000  0.5000 )  
               a(2) = ( -0.5000  0.5000  0.5000 )  
               a(3) = ( -0.5000 -0.5000  0.5000 )  

     reciprocal axes: (cart. coord. in units 2 pi/alat)
               b(1) = (  1.0000  0.0000  1.0000 )  
               b(2) = ( -1.0000  1.0000  0.0000 )  
               b(3) = (  0.0000 -1.0000  1.0000 )  


     Atoms inside the unit cell: 

     Cartesian axes

     site n.  atom      mass           positions (alat units)
        1     Na  22.9900   tau(    1) = (    0.00000    0.00000    0.00000  )

     Computing dynamical matrix for 
                    q = (   0.0000000   0.8750000  -0.1250000 )

      4 Sym.Ops. (no q -> -q+G )


     G cutoff =  518.9850  (   6210 G-vectors)     FFT grid: ( 40, 40, 40)
     G cutoff =  259.4925  (   2171 G-vectors)  smooth grid: ( 27, 27, 27)

     number of k points=  1568  Marzari-Vanderbilt smearing, width (Ry)=  0.0200

     PseudoPot. # 1 for Na read from file:
     /home/s1333534/quantum_espresso/qe-6.1/pseudo/Na_pbe_v1.uspp.F.UPF
     MD5 check sum: 76a99c7e9422403d3e93cbc85ab7bccb
     Pseudo is Ultrasoft, Zval =  9.0
     Generated by new atomic code, or converted to UPF format
     Using radial grid of  819 points,  5 beta functions with: 
                l(1) =   0
                l(2) =   0
                l(3) =   1
                l(4) =   1
                l(5) =   2
     Q(r) pseudized with  8 coefficients,  rinner =    1.250   1.250   1.250
                                                       1.250   1.250

     Mode symmetry, C_2v (mm2)  point group:


     Atomic displacements:
     There are   3 irreducible representations

     Representation     1      1 modes -A_1  D_1  S_1  To be done

     Representation     2      1 modes -B_1  D_3  S_3  To be done

     Representation     3      1 modes -B_2  D_4  S_4  To be done



     Alpha used in Ewald sum =   2.8000
     PHONON       :     2h11m CPU        2h21m WALL



     Representation #  1 mode #   1

     Self-consistent Calculation

      iter #   1 total cpu time :  8517.4 secs   av.it.:   5.7
      thresh= 1.000E-02 alpha_mix =  0.700 |ddv_scf|^2 =  2.425E-05

      iter #   2 total cpu time :  8525.7 secs   av.it.:   7.7
      thresh= 4.924E-04 alpha_mix =  0.700 |ddv_scf|^2 =  8.252E-07

      iter #   3 total cpu time :  8533.9 secs   av.it.:   7.6
      thresh= 9.084E-05 alpha_mix =  0.700 |ddv_scf|^2 =  2.886E-08

      iter #   4 total cpu time :  8542.5 secs   av.it.:   8.1
      thresh= 1.699E-05 alpha_mix =  0.700 |ddv_scf|^2 =  1.503E-09

      iter #   5 total cpu time :  8551.4 secs   av.it.:   8.1
      thresh= 3.877E-06 alpha_mix =  0.700 |ddv_scf|^2 =  9.776E-11

      iter #   6 total cpu time :  8559.9 secs   av.it.:   8.0
      thresh= 9.887E-07 alpha_mix =  0.700 |ddv_scf|^2 =  8.668E-13

     End of self-consistent calculation

     Convergence has been achieved 


     Representation #  2 mode #   2

     Self-consistent Calculation

      iter #   1 total cpu time :  8567.5 secs   av.it.:   5.5
      thresh= 1.000E-02 alpha_mix =  0.700 |ddv_scf|^2 =  2.209E-05

      iter #   2 total cpu time :  8575.6 secs   av.it.:   7.5
      thresh= 4.700E-04 alpha_mix =  0.700 |ddv_scf|^2 =  3.173E-07

      iter #   3 total cpu time :  8583.8 secs   av.it.:   7.5
      thresh= 5.633E-05 alpha_mix =  0.700 |ddv_scf|^2 =  2.870E-08

      iter #   4 total cpu time :  8592.0 secs   av.it.:   7.6
      thresh= 1.694E-05 alpha_mix =  0.700 |ddv_scf|^2 =  1.182E-10

      iter #   5 total cpu time :  8600.0 secs   av.it.:   7.4
      thresh= 1.087E-06 alpha_mix =  0.700 |ddv_scf|^2 =  4.892E-14

     End of self-consistent calculation

     Convergence has been achieved 


     Representation #  3 mode #   3

     Self-consistent Calculation

      iter #   1 total cpu time :  8607.9 secs   av.it.:   5.6
      thresh= 1.000E-02 alpha_mix =  0.700 |ddv_scf|^2 =  2.996E-05

      iter #   2 total cpu time :  8616.0 secs   av.it.:   7.5
      thresh= 5.473E-04 alpha_mix =  0.700 |ddv_scf|^2 =  1.337E-06

      iter #   3 total cpu time :  8623.9 secs   av.it.:   7.2
      thresh= 1.156E-04 alpha_mix =  0.700 |ddv_scf|^2 =  3.414E-08

      iter #   4 total cpu time :  8632.1 secs   av.it.:   7.5
      thresh= 1.848E-05 alpha_mix =  0.700 |ddv_scf|^2 =  1.017E-09

      iter #   5 total cpu time :  8640.3 secs   av.it.:   7.2
      thresh= 3.188E-06 alpha_mix =  0.700 |ddv_scf|^2 =  2.738E-12

      iter #   6 total cpu time :  8648.8 secs   av.it.:   7.8
      thresh= 1.655E-07 alpha_mix =  0.700 |ddv_scf|^2 =  4.041E-15

     End of self-consistent calculation

     Convergence has been achieved 

     Number of q in the star =   12
     List of q in the star:
          1   0.000000000   0.875000000  -0.125000000
          2   0.000000000  -0.875000000  -0.125000000
          3   0.875000000   0.000000000  -0.125000000
          4  -0.875000000   0.000000000  -0.125000000
          5   0.125000000   0.000000000  -0.875000000
          6   0.125000000   0.875000000   0.000000000
          7   0.000000000   0.875000000   0.125000000
          8   0.875000000   0.000000000   0.125000000
          9   0.125000000  -0.875000000   0.000000000
         10  -0.125000000  -0.875000000   0.000000000
         11   0.875000000  -0.125000000   0.000000000
         12   0.000000000  -0.875000000   0.125000000

     Diagonalizing the dynamical matrix

     q = (    0.000000000   0.875000000  -0.125000000 ) 

 **************************************************************************
     freq (    1) =       3.451045 [THz] =     115.114484 [cm-1]
     freq (    2) =       3.704017 [THz] =     123.552694 [cm-1]
     freq (    3) =       4.062909 [THz] =     135.524045 [cm-1]
 **************************************************************************

     Mode symmetry, C_2v (mm2)  point group:

     freq (  1 -  1) =        115.1  [cm-1]   --> B_1  D_3  S_3      
     freq (  2 -  2) =        123.6  [cm-1]   --> B_2  D_4  S_4      
     freq (  3 -  3) =        135.5  [cm-1]   --> A_1  D_1  S_1      

     Calculation of q =    0.0000000   0.0000000  -1.0000000

   Info: using nr1, nr2, nr3 values from input

   Info: using nr1, nr2, nr3 values from input

     Parallelization info
     --------------------
     sticks:   dense  smooth     PW     G-vecs:    dense   smooth      PW
     Min         287     142     51                 6208     2171     466
     Max         288     144     52                 6209     2172     467
     Sum        1151     571    205                24835     8685    1865



     bravais-lattice index     =            3
     lattice parameter (alat)  =       8.0017  a.u.
     unit-cell volume          =     256.1633 (a.u.)^3
     number of atoms/cell      =            1
     number of atomic types    =            1
     number of electrons       =         9.00
     number of Kohn-Sham states=            9
     kinetic-energy cutoff     =      40.0000  Ry
     charge density cutoff     =     320.0000  Ry
     Exchange-correlation      = SLA  PW   PBE  PBE ( 1  4  3  4 0 0)

     celldm(1)=   8.001701  celldm(2)=   0.000000  celldm(3)=   0.000000
     celldm(4)=   0.000000  celldm(5)=   0.000000  celldm(6)=   0.000000

     crystal axes: (cart. coord. in units of alat)
               a(1) = (   0.500000   0.500000   0.500000 )  
               a(2) = (  -0.500000   0.500000   0.500000 )  
               a(3) = (  -0.500000  -0.500000   0.500000 )  

     reciprocal axes: (cart. coord. in units 2 pi/alat)
               b(1) = (  1.000000  0.000000  1.000000 )  
               b(2) = ( -1.000000  1.000000  0.000000 )  
               b(3) = (  0.000000 -1.000000  1.000000 )  


     PseudoPot. # 1 for Na read from file:
     /home/s1333534/quantum_espresso/qe-6.1/pseudo/Na_pbe_v1.uspp.F.UPF
     MD5 check sum: 76a99c7e9422403d3e93cbc85ab7bccb
     Pseudo is Ultrasoft, Zval =  9.0
     Generated by new atomic code, or converted to UPF format
     Using radial grid of  819 points,  5 beta functions with: 
                l(1) =   0
                l(2) =   0
                l(3) =   1
                l(4) =   1
                l(5) =   2
     Q(r) pseudized with  8 coefficients,  rinner =    1.250   1.250   1.250
                                                       1.250   1.250

     atomic species   valence    mass     pseudopotential
        Na             9.00    22.99000     Na( 1.00)

     48 Sym. Ops., with inversion, found



   Cartesian axes

     site n.     atom                  positions (alat units)
         1           Na  tau(   1) = (   0.0000000   0.0000000   0.0000000  )

     number of k points=   200  Marzari-Vanderbilt smearing, width (Ry)=  0.0200

     Number of k-points >= 100: set verbosity='high' to print them.

     Dense  grid:    24835 G-vectors     FFT dimensions: (  40,  40,  40)

     Smooth grid:     8685 G-vectors     FFT dimensions: (  27,  27,  27)

     Estimated max dynamical RAM per process >       2.26MB

     Estimated total allocated dynamical RAM >       9.02MB

     The potential is recalculated from file :
     ./_ph0/na.bcc.save/charge-density.dat

     Starting wfc are    5 atomic +    4 random wfc

     Band Structure Calculation
     Davidson diagonalization with overlap

     ethr =  1.11E-10,  avg # of iterations = 21.8

     total cpu time spent up to now is     1968.9 secs

     End of band structure calculation

     Number of k-points >= 100: set verbosity='high' to print the bands.

     the Fermi energy is     1.5165 ev

     Writing output data file na.bcc.save

                                                                                

     bravais-lattice index     =            3
     lattice parameter (alat)  =       8.0017  a.u.
     unit-cell volume          =     256.1633 (a.u.)^3
     number of atoms/cell      =            1
     number of atomic types    =            1
     kinetic-energy cut-off    =      40.0000  Ry
     charge density cut-off    =     320.0000  Ry
     convergence threshold     =      1.0E-12
     beta                      =       0.7000
     number of iterations used =            4
     Exchange-correlation      = SLA  PW   PBE  PBE ( 1  4  3  4 0 0)


     celldm(1)=    8.00170  celldm(2)=    0.00000  celldm(3)=    0.00000
     celldm(4)=    0.00000  celldm(5)=    0.00000  celldm(6)=    0.00000

     crystal axes: (cart. coord. in units of alat)
               a(1) = (  0.5000  0.5000  0.5000 )  
               a(2) = ( -0.5000  0.5000  0.5000 )  
               a(3) = ( -0.5000 -0.5000  0.5000 )  

     reciprocal axes: (cart. coord. in units 2 pi/alat)
               b(1) = (  1.0000  0.0000  1.0000 )  
               b(2) = ( -1.0000  1.0000  0.0000 )  
               b(3) = (  0.0000 -1.0000  1.0000 )  


     Atoms inside the unit cell: 

     Cartesian axes

     site n.  atom      mass           positions (alat units)
        1     Na  22.9900   tau(    1) = (    0.00000    0.00000    0.00000  )

     Computing dynamical matrix for 
                    q = (   0.0000000   0.0000000  -1.0000000 )

     49 Sym.Ops. (with q -> -q+G )


     G cutoff =  518.9850  (   6209 G-vectors)     FFT grid: ( 40, 40, 40)
     G cutoff =  259.4925  (   2172 G-vectors)  smooth grid: ( 27, 27, 27)

     number of k points=   200  Marzari-Vanderbilt smearing, width (Ry)=  0.0200

     PseudoPot. # 1 for Na read from file:
     /home/s1333534/quantum_espresso/qe-6.1/pseudo/Na_pbe_v1.uspp.F.UPF
     MD5 check sum: 76a99c7e9422403d3e93cbc85ab7bccb
     Pseudo is Ultrasoft, Zval =  9.0
     Generated by new atomic code, or converted to UPF format
     Using radial grid of  819 points,  5 beta functions with: 
                l(1) =   0
                l(2) =   0
                l(3) =   1
                l(4) =   1
                l(5) =   2
     Q(r) pseudized with  8 coefficients,  rinner =    1.250   1.250   1.250
                                                       1.250   1.250

     Mode symmetry, O_h (m-3m)  point group:


     Atomic displacements:
     There are   1 irreducible representations

     Representation     1      3 modes -T_1u G_15  G_4-  To be done



     Alpha used in Ewald sum =   2.8000
     PHONON       :     2h14m CPU        2h24m WALL



     Representation #  1 modes #   1  2  3

     Self-consistent Calculation

      iter #   1 total cpu time :  8659.3 secs   av.it.:   5.7
      thresh= 1.000E-02 alpha_mix =  0.700 |ddv_scf|^2 =  2.611E-06

      iter #   2 total cpu time :  8663.0 secs   av.it.:   8.5
      thresh= 1.616E-04 alpha_mix =  0.700 |ddv_scf|^2 =  4.085E-08

      iter #   3 total cpu time :  8666.6 secs   av.it.:   8.2
      thresh= 2.021E-05 alpha_mix =  0.700 |ddv_scf|^2 =  3.394E-09

      iter #   4 total cpu time :  8670.3 secs   av.it.:   8.3
      thresh= 5.826E-06 alpha_mix =  0.700 |ddv_scf|^2 =  1.339E-11

      iter #   5 total cpu time :  8673.9 secs   av.it.:   8.2
      thresh= 3.660E-07 alpha_mix =  0.700 |ddv_scf|^2 =  4.366E-15

     End of self-consistent calculation

     Convergence has been achieved 

     Number of q in the star =    1
     List of q in the star:
          1   0.000000000   0.000000000  -1.000000000

     Diagonalizing the dynamical matrix

     q = (    0.000000000   0.000000000  -1.000000000 ) 

 **************************************************************************
     freq (    1) =       3.616296 [THz] =     120.626656 [cm-1]
     freq (    2) =       3.616296 [THz] =     120.626656 [cm-1]
     freq (    3) =       3.616296 [THz] =     120.626656 [cm-1]
 **************************************************************************

     Mode symmetry, O_h (m-3m)  point group:

     freq (  1 -  3) =        120.6  [cm-1]   --> T_1u G_15  G_4-    

     init_run     :      5.98s CPU      6.04s WALL (      28 calls)
     electrons    :   1813.26s CPU   1917.77s WALL (      28 calls)

     Called by init_run:
     wfcinit      :      0.00s CPU      0.00s WALL (      28 calls)
     potinit      :      0.42s CPU      0.43s WALL (      28 calls)

     Called by electrons:
     c_bands      :   1812.94s CPU   1917.45s WALL (      28 calls)
     v_of_rho     :      0.34s CPU      0.34s WALL (      29 calls)
     newd         :      0.45s CPU      0.46s WALL (      29 calls)

     Called by c_bands:
     init_us_2    :    101.46s CPU    100.08s WALL (  896813 calls)
     cegterg      :   1673.10s CPU   1765.51s WALL (   92023 calls)

     Called by sum_band:

     Called by *egterg:
     h_psi        :   5521.14s CPU   5884.63s WALL ( 7658989 calls)
     s_psi        :    131.95s CPU    159.55s WALL (14425995 calls)
     g_psi        :     11.24s CPU     13.43s WALL ( 1367908 calls)
     cdiaghg      :    281.91s CPU    287.97s WALL ( 1431074 calls)

     Called by h_psi:
     h_psi:pot    :   5493.76s CPU   5852.62s WALL ( 7658989 calls)
     h_psi:calbec :    123.60s CPU    133.53s WALL ( 7658989 calls)
     vloc_psi     :   5248.59s CPU   5601.06s WALL ( 7658989 calls)
     add_vuspsi   :    103.45s CPU     95.12s WALL ( 7658989 calls)

     General routines
     calbec       :    276.94s CPU    266.01s WALL (15975616 calls)
     fft          :      3.39s CPU      3.55s WALL (    8887 calls)
     ffts         :      9.93s CPU     10.63s WALL (   97063 calls)
     fftw         :   5974.26s CPU   6114.25s WALL (73701443 calls)
     interpolate  :      0.61s CPU      0.69s WALL (    1233 calls)
     davcio       :     48.97s CPU    104.42s WALL ( 3380897 calls)

     Parallel routines
     fft_scatter  :    926.57s CPU   1215.97s WALL (73807393 calls)

     PHONON       :     2h14m CPU        2h24m WALL

     INITIALIZATION: 
     phq_setup    :      1.06s CPU      1.07s WALL (      29 calls)
     phq_init     :    129.55s CPU    136.16s WALL (      29 calls)

     phq_init     :    129.55s CPU    136.16s WALL (      29 calls)
     init_vloc    :      0.09s CPU      0.09s WALL (      29 calls)
     init_us_1    :      2.92s CPU      2.94s WALL (      29 calls)
     newd         :      0.45s CPU      0.46s WALL (      29 calls)
     dvanqq       :      1.80s CPU      1.80s WALL (      29 calls)
     drho         :    103.52s CPU    108.96s WALL (      29 calls)

     DYNAMICAL MATRIX:
     dynmat0      :     14.33s CPU     14.80s WALL (      29 calls)
     phqscf       :   6063.91s CPU   6564.96s WALL (      29 calls)
     dynmatrix    :      0.03s CPU      0.03s WALL (      29 calls)

     phqscf       :   6063.91s CPU   6564.96s WALL (      29 calls)
     solve_linter :   6039.27s CPU   6539.17s WALL (      76 calls)
     drhodv       :     24.53s CPU     25.59s WALL (      76 calls)

     dynmat0      :     14.33s CPU     14.80s WALL (      29 calls)
     dynmat_us    :     14.28s CPU     14.75s WALL (      29 calls)
     d2ionq       :      0.03s CPU      0.03s WALL (      29 calls)

     dynmat_us    :     14.28s CPU     14.75s WALL (      29 calls)
     addusdynmat  :      0.00s CPU      0.00s WALL (      29 calls)

     phqscf       :   6063.91s CPU   6564.96s WALL (      29 calls)
     solve_linter :   6039.27s CPU   6539.17s WALL (      76 calls)

     solve_linter :   6039.27s CPU   6539.17s WALL (      76 calls)
     dvqpsi_us    :    176.24s CPU    187.50s WALL (   95049 calls)
     ortho        :     44.50s CPU     53.42s WALL (  631114 calls)
     cgsolve      :   4681.25s CPU   5012.84s WALL (  631114 calls)
     incdrhoscf   :    517.69s CPU    568.08s WALL (  631114 calls)
     addusddens   :     13.60s CPU     13.65s WALL (     565 calls)
     vpsifft      :    423.74s CPU    464.52s WALL (  536065 calls)
     dv_of_drho   :      4.00s CPU      4.12s WALL (     544 calls)
     mix_pot      :      0.47s CPU      1.27s WALL (     489 calls)
     ef_shift     :      0.01s CPU      0.02s WALL (       6 calls)
     localdos     :      0.08s CPU      0.09s WALL (       1 calls)
     psymdvscf    :      8.59s CPU      8.73s WALL (     423 calls)
     newdq        :     12.22s CPU     12.29s WALL (     489 calls)
     adddvscf     :     23.48s CPU     17.79s WALL (  536065 calls)
     drhodvus     :      0.02s CPU      0.03s WALL (      76 calls)

     dvqpsi_us    :    176.24s CPU    187.50s WALL (   95049 calls)
     dvqpsi_us_on :     23.25s CPU     23.06s WALL (   95049 calls)

     cgsolve      :   4681.25s CPU   5012.84s WALL (  631114 calls)
     ch_psi       :   4587.96s CPU   4922.28s WALL ( 6135892 calls)

     ch_psi       :   4587.96s CPU   4922.28s WALL ( 6135892 calls)
     h_psi        :   5521.14s CPU   5884.63s WALL ( 7658989 calls)
     last         :    266.68s CPU    297.73s WALL ( 6135892 calls)

     h_psi        :   5521.14s CPU   5884.63s WALL ( 7658989 calls)
     add_vuspsi   :    103.45s CPU     95.12s WALL ( 7658989 calls)

     incdrhoscf   :    517.69s CPU    568.08s WALL (  631114 calls)
     addusdbec    :     17.99s CPU     22.98s WALL (  726163 calls)

     drhodvus     :      0.02s CPU      0.03s WALL (      76 calls)

      General routines
     calbec       :    276.94s CPU    266.01s WALL (15975616 calls)
     fft          :      3.39s CPU      3.55s WALL (    8887 calls)
     ffts         :      9.93s CPU     10.63s WALL (   97063 calls)
     fftw         :   5974.26s CPU   6114.25s WALL (73701443 calls)
     davcio       :     48.97s CPU    104.42s WALL ( 3380897 calls)
     write_rec    :      0.42s CPU      1.42s WALL (     565 calls)


     PHONON       :     2h14m CPU        2h24m WALL


   This run was terminated on:  18: 0:45  21Dec2017            

=------------------------------------------------------------------------------=
   JOB DONE.
=------------------------------------------------------------------------------=
