
     Program PWSCF v.6.1 (svn rev. 13369) starts on 13Feb2018 at 10:27:10 

     This program is part of the open-source Quantum ESPRESSO suite
     for quantum simulation of materials; please cite
         "P. Giannozzi et al., J. Phys.:Condens. Matter 21 395502 (2009);
          URL http://www.quantum-espresso.org", 
     in publications or presentations arising from this work. More details at
     http://www.quantum-espresso.org/quote

     Parallel version (MPI), running on    64 processors
     K-points division:     npool     =       4
     R & G space division:  proc/nbgrp/npool/nimage =      16
     Waiting for input...
     Reading input from standard input

     Current dimensions of program PWSCF are:
     Max number of different atomic species (ntypx) = 10
     Max number of k-points (npk) =  80000
     Max angular momentum in pseudopotentials (lmaxx) =  3

     Subspace diagonalization in iterative solution of the eigenvalue problem:
     a serial algorithm will be used


     Parallelization info
     --------------------
     sticks:   dense  smooth     PW     G-vecs:    dense   smooth      PW
     Min          67      33     10                 1389      494      88
     Max          68      34     11                 1390      498      91
     Sum        1073     541    173                22231     7935    1433



     bravais-lattice index     =            3
     lattice parameter (alat)  =       7.7300  a.u.
     unit-cell volume          =     230.9450 (a.u.)^3
     number of atoms/cell      =            1
     number of atomic types    =            1
     number of electrons       =         9.00
     number of Kohn-Sham states=            9
     kinetic-energy cutoff     =      40.0000  Ry
     charge density cutoff     =     320.0000  Ry
     convergence threshold     =      1.0E-10
     mixing beta               =       0.7000
     number of iterations used =            8  plain     mixing
     Exchange-correlation      = SLA  PW   PBE  PBE ( 1  4  3  4 0 0)

     celldm(1)=   7.730000  celldm(2)=   0.000000  celldm(3)=   0.000000
     celldm(4)=   0.000000  celldm(5)=   0.000000  celldm(6)=   0.000000

     crystal axes: (cart. coord. in units of alat)
               a(1) = (   0.500000   0.500000   0.500000 )  
               a(2) = (  -0.500000   0.500000   0.500000 )  
               a(3) = (  -0.500000  -0.500000   0.500000 )  

     reciprocal axes: (cart. coord. in units 2 pi/alat)
               b(1) = (  1.000000  0.000000  1.000000 )  
               b(2) = ( -1.000000  1.000000  0.000000 )  
               b(3) = (  0.000000 -1.000000  1.000000 )  


     PseudoPot. # 1 for Na read from file:
     /home/s1333534/quantum_espresso/qe-6.1/pseudo/Na_pbe_v1.uspp.F.UPF
     MD5 check sum: 76a99c7e9422403d3e93cbc85ab7bccb
     Pseudo is Ultrasoft, Zval =  9.0
     Generated by new atomic code, or converted to UPF format
     Using radial grid of  819 points,  5 beta functions with: 
                l(1) =   0
                l(2) =   0
                l(3) =   1
                l(4) =   1
                l(5) =   2
     Q(r) pseudized with  8 coefficients,  rinner =    1.250   1.250   1.250
                                                       1.250   1.250

     atomic species   valence    mass     pseudopotential
        Na             9.00    22.99000     Na( 1.00)

     48 Sym. Ops., with inversion, found



   Cartesian axes

     site n.     atom                  positions (alat units)
         1           Na  tau(   1) = (   0.0000000   0.0000000   0.0000000  )

     number of k points=   250  Marzari-Vanderbilt smearing, width (Ry)=  0.0200

     Number of k-points >= 100: set verbosity='high' to print them.

     Dense  grid:    22231 G-vectors     FFT dimensions: (  40,  40,  40)

     Smooth grid:     7935 G-vectors     FFT dimensions: (  27,  27,  27)

     Estimated max dynamical RAM per process >       1.54MB

     Estimated total allocated dynamical RAM >      98.31MB

     Initial potential from superposition of free atoms

     starting charge    8.99371, renormalised to    9.00000
     Starting wfc are    5 randomized atomic wfcs +    4 random wfc

     total cpu time spent up to now is        0.5 secs

     per-process dynamical memory:     7.1 Mb

     Self-consistent Calculation

     iteration #  1     ecut=    40.00 Ry     beta=0.70
     Davidson diagonalization with overlap
     ethr =  1.00E-02,  avg # of iterations =  5.7

     Threshold (ethr) on eigenvalues was too large:
     Diagonalizing with lowered threshold

     Davidson diagonalization with overlap
     ethr =  1.02E-05,  avg # of iterations =  4.5

     total cpu time spent up to now is        3.0 secs

     total energy              =     -95.10599092 Ry
     Harris-Foulkes estimate   =     -95.10624307 Ry
     estimated scf accuracy    <       0.00091612 Ry

     iteration #  2     ecut=    40.00 Ry     beta=0.70
     Davidson diagonalization with overlap
     ethr =  1.02E-05,  avg # of iterations =  2.0

     total cpu time spent up to now is        3.7 secs

     total energy              =     -95.10609854 Ry
     Harris-Foulkes estimate   =     -95.10612216 Ry
     estimated scf accuracy    <       0.00010184 Ry

     iteration #  3     ecut=    40.00 Ry     beta=0.70
     Davidson diagonalization with overlap
     ethr =  1.13E-06,  avg # of iterations =  2.1

     total cpu time spent up to now is        4.5 secs

     total energy              =     -95.10611005 Ry
     Harris-Foulkes estimate   =     -95.10611122 Ry
     estimated scf accuracy    <       0.00000631 Ry

     iteration #  4     ecut=    40.00 Ry     beta=0.70
     Davidson diagonalization with overlap
     ethr =  7.01E-08,  avg # of iterations =  1.0

     total cpu time spent up to now is        5.0 secs

     total energy              =     -95.10611063 Ry
     Harris-Foulkes estimate   =     -95.10611058 Ry
     estimated scf accuracy    <          9.8E-09 Ry

     iteration #  5     ecut=    40.00 Ry     beta=0.70
     Davidson diagonalization with overlap
     ethr =  1.09E-10,  avg # of iterations =  3.0

     total cpu time spent up to now is        5.9 secs

     total energy              =     -95.10611066 Ry
     Harris-Foulkes estimate   =     -95.10611066 Ry
     estimated scf accuracy    <          1.6E-09 Ry

     iteration #  6     ecut=    40.00 Ry     beta=0.70
     Davidson diagonalization with overlap
     ethr =  1.74E-11,  avg # of iterations =  1.6

     total cpu time spent up to now is        6.6 secs

     End of self-consistent calculation

     Number of k-points >= 100: set verbosity='high' to print the bands.

     the Fermi energy is     1.9534 ev

!    total energy              =     -95.10611066 Ry
     Harris-Foulkes estimate   =     -95.10611066 Ry
     estimated scf accuracy    <          5.0E-11 Ry

     The total energy is the sum of the following terms:

     one-electron contribution =     -86.37939803 Ry
     hartree contribution      =      43.68663045 Ry
     xc contribution           =     -14.27897616 Ry
     ewald contribution        =     -38.13427030 Ry
     smearing contrib. (-TS)   =      -0.00009663 Ry

     convergence has been achieved in   6 iterations


     Computing stress (Cartesian axis) and pressure

          total   stress  (Ry/bohr**3)                   (kbar)     P=    3.99
   0.00002711   0.00000000  -0.00000000          3.99      0.00     -0.00
   0.00000000   0.00002711   0.00000000          0.00      3.99      0.00
  -0.00000000   0.00000000   0.00002711         -0.00      0.00      3.99


     Writing output data file na.bcc.save

     init_run     :      0.33s CPU      0.37s WALL (       1 calls)
     electrons    :      5.65s CPU      6.03s WALL (       1 calls)
     stress       :      0.19s CPU      0.20s WALL (       1 calls)

     Called by init_run:
     wfcinit      :      0.17s CPU      0.18s WALL (       1 calls)
     potinit      :      0.03s CPU      0.03s WALL (       1 calls)

     Called by electrons:
     c_bands      :      4.75s CPU      5.08s WALL (       7 calls)
     sum_band     :      0.75s CPU      0.80s WALL (       7 calls)
     v_of_rho     :      0.07s CPU      0.07s WALL (       7 calls)
     newd         :      0.06s CPU      0.07s WALL (       7 calls)
     mix_rho      :      0.01s CPU      0.01s WALL (       7 calls)

     Called by c_bands:
     init_us_2    :      0.07s CPU      0.08s WALL (    1008 calls)
     cegterg      :      4.16s CPU      4.49s WALL (     441 calls)

     Called by sum_band:
     sum_band:bec :      0.00s CPU      0.01s WALL (     441 calls)
     addusdens    :      0.07s CPU      0.08s WALL (       7 calls)

     Called by *egterg:
     h_psi        :      3.01s CPU      3.20s WALL (    1789 calls)
     s_psi        :      0.03s CPU      0.04s WALL (    1789 calls)
     g_psi        :      0.01s CPU      0.01s WALL (    1285 calls)
     cdiaghg      :      0.75s CPU      0.82s WALL (    1663 calls)

     Called by h_psi:
     h_psi:pot    :      3.00s CPU      3.19s WALL (    1789 calls)
     h_psi:calbec :      0.13s CPU      0.14s WALL (    1789 calls)
     vloc_psi     :      2.82s CPU      3.00s WALL (    1789 calls)
     add_vuspsi   :      0.03s CPU      0.04s WALL (    1789 calls)

     General routines
     calbec       :      0.17s CPU      0.19s WALL (    2293 calls)
     fft          :      0.09s CPU      0.10s WALL (     117 calls)
     ffts         :      0.01s CPU      0.01s WALL (      14 calls)
     fftw         :      3.03s CPU      3.22s WALL (   25933 calls)
     interpolate  :      0.02s CPU      0.02s WALL (      14 calls)
     davcio       :      0.00s CPU      0.02s WALL (      63 calls)

     Parallel routines
     fft_scatter  :      1.45s CPU      1.56s WALL (   26064 calls)

     PWSCF        :     7.31s CPU         7.88s WALL


   This run was terminated on:  10:27:17  13Feb2018            

=------------------------------------------------------------------------------=
   JOB DONE.
=------------------------------------------------------------------------------=
