
     Program PWSCF v.6.1 (svn rev. 13369) starts on 20Dec2017 at 16:58:10 

     This program is part of the open-source Quantum ESPRESSO suite
     for quantum simulation of materials; please cite
         "P. Giannozzi et al., J. Phys.:Condens. Matter 21 395502 (2009);
          URL http://www.quantum-espresso.org", 
     in publications or presentations arising from this work. More details at
     http://www.quantum-espresso.org/quote

     Parallel version (MPI), running on     4 processors
     R & G space division:  proc/nbgrp/npool/nimage =       4
     Waiting for input...
     Reading input from standard input

     Current dimensions of program PWSCF are:
     Max number of different atomic species (ntypx) = 10
     Max number of k-points (npk) =  40000
     Max angular momentum in pseudopotentials (lmaxx) =  3

     Subspace diagonalization in iterative solution of the eigenvalue problem:
     a serial algorithm will be used


     Parallelization info
     --------------------
     sticks:   dense  smooth     PW     G-vecs:    dense   smooth      PW
     Min         230     116     37                 4464     1590     289
     Max         231     117     38                 4466     1592     290
     Sum         921     467    151                17861     6363    1157



     bravais-lattice index     =            3
     lattice parameter (alat)  =       7.1778  a.u.
     unit-cell volume          =     184.8992 (a.u.)^3
     number of atoms/cell      =            1
     number of atomic types    =            1
     number of electrons       =         9.00
     number of Kohn-Sham states=            9
     kinetic-energy cutoff     =      40.0000  Ry
     charge density cutoff     =     320.0000  Ry
     convergence threshold     =      1.0E-08
     mixing beta               =       0.7000
     number of iterations used =            8  plain     mixing
     Exchange-correlation      = SLA  PW   PBE  PBE ( 1  4  3  4 0 0)
     nstep                     =           50


     celldm(1)=   7.177750  celldm(2)=   0.000000  celldm(3)=   0.000000
     celldm(4)=   0.000000  celldm(5)=   0.000000  celldm(6)=   0.000000

     crystal axes: (cart. coord. in units of alat)
               a(1) = (   0.500000   0.500000   0.500000 )  
               a(2) = (  -0.500000   0.500000   0.500000 )  
               a(3) = (  -0.500000  -0.500000   0.500000 )  

     reciprocal axes: (cart. coord. in units 2 pi/alat)
               b(1) = (  1.000000  0.000000  1.000000 )  
               b(2) = ( -1.000000  1.000000  0.000000 )  
               b(3) = (  0.000000 -1.000000  1.000000 )  


     PseudoPot. # 1 for Na read from file:
     /home/s1333534/quantum_espresso/qe-6.1/pseudo/Na_pbe_v1.uspp.F.UPF
     MD5 check sum: 76a99c7e9422403d3e93cbc85ab7bccb
     Pseudo is Ultrasoft, Zval =  9.0
     Generated by new atomic code, or converted to UPF format
     Using radial grid of  819 points,  5 beta functions with: 
                l(1) =   0
                l(2) =   0
                l(3) =   1
                l(4) =   1
                l(5) =   2
     Q(r) pseudized with  8 coefficients,  rinner =    1.250   1.250   1.250
                                                       1.250   1.250

     atomic species   valence    mass     pseudopotential
        Na             9.00    22.99000     Na( 1.00)

     48 Sym. Ops., with inversion, found



   Cartesian axes

     site n.     atom                  positions (alat units)
         1           Na  tau(   1) = (   0.0000000   0.0000000   0.0000000  )

     number of k points=   250  Marzari-Vanderbilt smearing, width (Ry)=  0.0200

     Number of k-points >= 100: set verbosity='high' to print them.

     Dense  grid:    17861 G-vectors     FFT dimensions: (  36,  36,  36)

     Smooth grid:     6363 G-vectors     FFT dimensions: (  25,  25,  25)

     Estimated max dynamical RAM per process >       9.65MB

     Estimated total allocated dynamical RAM >      38.62MB

     Initial potential from superposition of free atoms

     starting charge    8.99371, renormalised to    9.00000
     Starting wfc are    5 randomized atomic wfcs +    4 random wfc

     total cpu time spent up to now is        0.7 secs

     per-process dynamical memory:    15.8 Mb

     Self-consistent Calculation

     iteration #  1     ecut=    40.00 Ry     beta=0.70
     Davidson diagonalization with overlap
     ethr =  1.00E-02,  avg # of iterations =  5.6

     Threshold (ethr) on eigenvalues was too large:
     Diagonalizing with lowered threshold

     Davidson diagonalization with overlap
     ethr =  1.27E-05,  avg # of iterations =  3.7

     total cpu time spent up to now is        3.7 secs

     total energy              =     -95.09933084 Ry
     Harris-Foulkes estimate   =     -95.09973247 Ry
     estimated scf accuracy    <       0.00113855 Ry

     iteration #  2     ecut=    40.00 Ry     beta=0.70
     Davidson diagonalization with overlap
     ethr =  1.27E-05,  avg # of iterations =  2.0

     total cpu time spent up to now is        4.7 secs

     total energy              =     -95.09947749 Ry
     Harris-Foulkes estimate   =     -95.09951080 Ry
     estimated scf accuracy    <       0.00012880 Ry

     iteration #  3     ecut=    40.00 Ry     beta=0.70
     Davidson diagonalization with overlap
     ethr =  1.43E-06,  avg # of iterations =  2.1

     total cpu time spent up to now is        5.8 secs

     total energy              =     -95.09949254 Ry
     Harris-Foulkes estimate   =     -95.09949379 Ry
     estimated scf accuracy    <       0.00000770 Ry

     iteration #  4     ecut=    40.00 Ry     beta=0.70
     Davidson diagonalization with overlap
     ethr =  8.56E-08,  avg # of iterations =  1.0

     total cpu time spent up to now is        6.6 secs

     total energy              =     -95.09949322 Ry
     Harris-Foulkes estimate   =     -95.09949317 Ry
     estimated scf accuracy    <       0.00000001 Ry

     iteration #  5     ecut=    40.00 Ry     beta=0.70
     Davidson diagonalization with overlap
     ethr =  1.14E-10,  avg # of iterations =  3.0

     total cpu time spent up to now is        7.9 secs

     End of self-consistent calculation

     Number of k-points >= 100: set verbosity='high' to print the bands.

     the Fermi energy is     3.0926 ev

!    total energy              =     -95.09949325 Ry
     Harris-Foulkes estimate   =     -95.09949325 Ry
     estimated scf accuracy    <          1.4E-09 Ry

     The total energy is the sum of the following terms:

     one-electron contribution =     -81.25957984 Ry
     hartree contribution      =      41.53982846 Ry
     xc contribution           =     -14.31134859 Ry
     ewald contribution        =     -41.06828864 Ry
     smearing contrib. (-TS)   =      -0.00010465 Ry

     convergence has been achieved in   5 iterations

     Forces acting on atoms (cartesian axes, Ry/au):

     atom    1 type  1   force =     0.00000000    0.00000000    0.00000000

     Total force =     0.000000     Total SCF correction =     0.000000


     Computing stress (Cartesian axis) and pressure

          total   stress  (Ry/bohr**3)                   (kbar)     P=   36.94
   0.00025114  -0.00000000   0.00000000         36.94     -0.00      0.00
  -0.00000000   0.00025114   0.00000000         -0.00     36.94      0.00
   0.00000000   0.00000000   0.00025114          0.00      0.00     36.94


     BFGS Geometry Optimization

     number of scf cycles    =   1
     number of bfgs steps    =   0

     enthalpy new            =     -95.0492164802 Ry

     new trust radius        =       0.0014122664 bohr
     new conv_thr            =       0.0000000100 Ry

     new unit-cell volume =    184.61128 a.u.^3 (    27.35657 Ang^3 )
     density =      1.39549 g/cm^3

CELL_PARAMETERS (alat=  7.17775002)
   0.499740350   0.499740350   0.499740350
  -0.499740350   0.499740350   0.499740350
  -0.499740350  -0.499740350   0.499740350

ATOMIC_POSITIONS (crystal)
Na       0.000000000   0.000000000   0.000000000



     Writing output data file na.bcc.save
     NEW-OLD atomic charge density approx. for the potential
     extrapolated charge    8.98597, renormalised to    9.00000

     total cpu time spent up to now is        9.0 secs

     per-process dynamical memory:    24.3 Mb

     Self-consistent Calculation

     iteration #  1     ecut=    40.00 Ry     beta=0.70
     Davidson diagonalization with overlap
     ethr =  1.00E-06,  avg # of iterations =  2.0

     total cpu time spent up to now is       10.2 secs

     total energy              =     -95.09929509 Ry
     Harris-Foulkes estimate   =     -95.19984676 Ry
     estimated scf accuracy    <       0.00007045 Ry

     iteration #  2     ecut=    40.00 Ry     beta=0.70
     Davidson diagonalization with overlap
     ethr =  7.83E-07,  avg # of iterations =  3.0

     total cpu time spent up to now is       11.4 secs

     total energy              =     -95.09942289 Ry
     Harris-Foulkes estimate   =     -95.09947469 Ry
     estimated scf accuracy    <       0.00011799 Ry

     iteration #  3     ecut=    40.00 Ry     beta=0.70
     Davidson diagonalization with overlap
     ethr =  7.83E-07,  avg # of iterations =  1.5

     total cpu time spent up to now is       12.3 secs

     total energy              =     -95.09942478 Ry
     Harris-Foulkes estimate   =     -95.09943064 Ry
     estimated scf accuracy    <       0.00002296 Ry

     iteration #  4     ecut=    40.00 Ry     beta=0.70
     Davidson diagonalization with overlap
     ethr =  2.55E-07,  avg # of iterations =  1.0

     total cpu time spent up to now is       13.2 secs

     total energy              =     -95.09942244 Ry
     Harris-Foulkes estimate   =     -95.09942551 Ry
     estimated scf accuracy    <       0.00001046 Ry

     iteration #  5     ecut=    40.00 Ry     beta=0.70
     Davidson diagonalization with overlap
     ethr =  1.16E-07,  avg # of iterations =  1.0

     total cpu time spent up to now is       14.1 secs

     total energy              =     -95.09942094 Ry
     Harris-Foulkes estimate   =     -95.09942270 Ry
     estimated scf accuracy    <       0.00000448 Ry

     iteration #  6     ecut=    40.00 Ry     beta=0.70
     Davidson diagonalization with overlap
     ethr =  4.98E-08,  avg # of iterations =  1.0

     total cpu time spent up to now is       15.0 secs

     total energy              =     -95.09942058 Ry
     Harris-Foulkes estimate   =     -95.09942117 Ry
     estimated scf accuracy    <       0.00000117 Ry

     iteration #  7     ecut=    40.00 Ry     beta=0.70
     Davidson diagonalization with overlap
     ethr =  1.30E-08,  avg # of iterations =  1.4

     total cpu time spent up to now is       15.9 secs

     total energy              =     -95.09942061 Ry
     Harris-Foulkes estimate   =     -95.09942069 Ry
     estimated scf accuracy    <       0.00000013 Ry

     iteration #  8     ecut=    40.00 Ry     beta=0.70
     Davidson diagonalization with overlap
     ethr =  1.42E-09,  avg # of iterations =  2.0

     total cpu time spent up to now is       16.9 secs

     End of self-consistent calculation

     Number of k-points >= 100: set verbosity='high' to print the bands.

     the Fermi energy is     3.1016 ev

!    total energy              =     -95.09942064 Ry
     Harris-Foulkes estimate   =     -95.09942064 Ry
     estimated scf accuracy    <          5.2E-11 Ry

     The total energy is the sum of the following terms:

     one-electron contribution =     -81.22252177 Ry
     hartree contribution      =      41.52443441 Ry
     xc contribution           =     -14.31160209 Ry
     ewald contribution        =     -41.08962652 Ry
     smearing contrib. (-TS)   =      -0.00010468 Ry

     convergence has been achieved in   8 iterations

     Forces acting on atoms (cartesian axes, Ry/au):

     atom    1 type  1   force =     0.00000000    0.00000000    0.00000000

     Total force =     0.000000     Total SCF correction =     0.000000


     Computing stress (Cartesian axis) and pressure

          total   stress  (Ry/bohr**3)                   (kbar)     P=   37.31
   0.00025360   0.00000000  -0.00000000         37.31      0.00     -0.00
   0.00000000   0.00025360   0.00000000          0.00     37.31      0.00
  -0.00000000   0.00000000   0.00025360         -0.00      0.00     37.31


     number of scf cycles    =   2
     number of bfgs steps    =   1

     enthalpy old            =     -95.0492164802 Ry
     enthalpy new            =     -95.0492221545 Ry

     CASE: enthalpy_new < enthalpy_old


     WARNING: bfgs curvature condition failed, Theta= 0.908
     new trust radius        =       0.0021178495 bohr
     new conv_thr            =            1.0E-10 Ry

     new unit-cell volume =    184.17998 a.u.^3 (    27.29266 Ang^3 )
     density =      1.39876 g/cm^3

CELL_PARAMETERS (alat=  7.17775002)
   0.499350874   0.499350874   0.499350874
  -0.499350874   0.499350874   0.499350874
  -0.499350874  -0.499350874   0.499350874

ATOMIC_POSITIONS (crystal)
Na       0.000000000   0.000000000   0.000000000



     Writing output data file na.bcc.save
     NEW-OLD atomic charge density approx. for the potential
     extrapolated charge    8.97894, renormalised to    9.00000

     total cpu time spent up to now is       18.0 secs

     per-process dynamical memory:    24.3 Mb

     Self-consistent Calculation

     iteration #  1     ecut=    40.00 Ry     beta=0.70
     Davidson diagonalization with overlap
     ethr =  1.00E-06,  avg # of iterations =  2.0

     total cpu time spent up to now is       19.2 secs

     total energy              =     -95.09902842 Ry
     Harris-Foulkes estimate   =     -95.24997935 Ry
     estimated scf accuracy    <       0.00015821 Ry

     iteration #  2     ecut=    40.00 Ry     beta=0.70
     Davidson diagonalization with overlap
     ethr =  1.76E-06,  avg # of iterations =  2.9

     total cpu time spent up to now is       20.6 secs

     total energy              =     -95.09931557 Ry
     Harris-Foulkes estimate   =     -95.09943196 Ry
     estimated scf accuracy    <       0.00026521 Ry

     iteration #  3     ecut=    40.00 Ry     beta=0.70
     Davidson diagonalization with overlap
     ethr =  1.76E-06,  avg # of iterations =  1.5

     total cpu time spent up to now is       21.5 secs

     total energy              =     -95.09931826 Ry
     Harris-Foulkes estimate   =     -95.09933313 Ry
     estimated scf accuracy    <       0.00005120 Ry

     iteration #  4     ecut=    40.00 Ry     beta=0.70
     Davidson diagonalization with overlap
     ethr =  5.69E-07,  avg # of iterations =  1.0

     total cpu time spent up to now is       22.4 secs

     total energy              =     -95.09931378 Ry
     Harris-Foulkes estimate   =     -95.09932006 Ry
     estimated scf accuracy    <       0.00002060 Ry

     iteration #  5     ecut=    40.00 Ry     beta=0.70
     Davidson diagonalization with overlap
     ethr =  2.29E-07,  avg # of iterations =  1.0

     total cpu time spent up to now is       23.3 secs

     total energy              =     -95.09931146 Ry
     Harris-Foulkes estimate   =     -95.09931439 Ry
     estimated scf accuracy    <       0.00000830 Ry

     iteration #  6     ecut=    40.00 Ry     beta=0.70
     Davidson diagonalization with overlap
     ethr =  9.22E-08,  avg # of iterations =  1.0

     total cpu time spent up to now is       24.2 secs

     total energy              =     -95.09931036 Ry
     Harris-Foulkes estimate   =     -95.09931179 Ry
     estimated scf accuracy    <       0.00000272 Ry

     iteration #  7     ecut=    40.00 Ry     beta=0.70
     Davidson diagonalization with overlap
     ethr =  3.02E-08,  avg # of iterations =  1.5

     total cpu time spent up to now is       25.1 secs

     total energy              =     -95.09931049 Ry
     Harris-Foulkes estimate   =     -95.09931065 Ry
     estimated scf accuracy    <       0.00000025 Ry

     iteration #  8     ecut=    40.00 Ry     beta=0.70
     Davidson diagonalization with overlap
     ethr =  2.73E-09,  avg # of iterations =  2.0

     total cpu time spent up to now is       26.2 secs

     total energy              =     -95.09931055 Ry
     Harris-Foulkes estimate   =     -95.09931055 Ry
     estimated scf accuracy    <          2.8E-09 Ry

     iteration #  9     ecut=    40.00 Ry     beta=0.70
     Davidson diagonalization with overlap
     ethr =  3.12E-11,  avg # of iterations =  1.2

     total cpu time spent up to now is       27.1 secs

     total energy              =     -95.09931055 Ry
     Harris-Foulkes estimate   =     -95.09931055 Ry
     estimated scf accuracy    <          2.4E-09 Ry

     iteration # 10     ecut=    40.00 Ry     beta=0.70
     Davidson diagonalization with overlap
     ethr =  2.72E-11,  avg # of iterations =  1.0

     total cpu time spent up to now is       28.0 secs

     total energy              =     -95.09931054 Ry
     Harris-Foulkes estimate   =     -95.09931055 Ry
     estimated scf accuracy    <          2.9E-09 Ry

     iteration # 11     ecut=    40.00 Ry     beta=0.70
     Davidson diagonalization with overlap
     ethr =  2.72E-11,  avg # of iterations =  2.0

     total cpu time spent up to now is       29.0 secs

     total energy              =     -95.09931054 Ry
     Harris-Foulkes estimate   =     -95.09931054 Ry
     estimated scf accuracy    <          5.1E-10 Ry

     iteration # 12     ecut=    40.00 Ry     beta=0.70
     Davidson diagonalization with overlap
     ethr =  5.67E-12,  avg # of iterations =  1.0

     total cpu time spent up to now is       29.9 secs

     total energy              =     -95.09931054 Ry
     Harris-Foulkes estimate   =     -95.09931054 Ry
     estimated scf accuracy    <          1.9E-10 Ry

     iteration # 13     ecut=    40.00 Ry     beta=0.70
     Davidson diagonalization with overlap
     ethr =  2.13E-12,  avg # of iterations =  2.0

     total cpu time spent up to now is       30.9 secs

     End of self-consistent calculation

     Number of k-points >= 100: set verbosity='high' to print the bands.

     the Fermi energy is     3.1152 ev

!    total energy              =     -95.09931054 Ry
     Harris-Foulkes estimate   =     -95.09931054 Ry
     estimated scf accuracy    <          1.1E-11 Ry

     The total energy is the sum of the following terms:

     one-electron contribution =     -81.16681949 Ry
     hartree contribution      =      41.50125866 Ry
     xc contribution           =     -14.31197004 Ry
     ewald contribution        =     -41.12167495 Ry
     smearing contrib. (-TS)   =      -0.00010473 Ry

     convergence has been achieved in  13 iterations

     Forces acting on atoms (cartesian axes, Ry/au):

     atom    1 type  1   force =     0.00000000    0.00000000    0.00000000

     Total force =     0.000000     Total SCF correction =     0.000000


     Computing stress (Cartesian axis) and pressure

          total   stress  (Ry/bohr**3)                   (kbar)     P=   37.80
   0.00025693   0.00000000  -0.00000000         37.80      0.00     -0.00
   0.00000000   0.00025693   0.00000000          0.00     37.80      0.00
  -0.00000000   0.00000000   0.00025693         -0.00      0.00     37.80


     number of scf cycles    =   3
     number of bfgs steps    =   2

     enthalpy old            =     -95.0492221545 Ry
     enthalpy new            =     -95.0492293339 Ry

     CASE: enthalpy_new < enthalpy_old

     new trust radius        =       0.0031755361 bohr
     new conv_thr            =            1.0E-10 Ry

     new unit-cell volume =    183.53429 a.u.^3 (    27.19698 Ang^3 )
     density =      1.40368 g/cm^3

CELL_PARAMETERS (alat=  7.17775002)
   0.498766660   0.498766660   0.498766660
  -0.498766660   0.498766660   0.498766660
  -0.498766660  -0.498766660   0.498766660

ATOMIC_POSITIONS (crystal)
Na       0.000000000   0.000000000   0.000000000



     Writing output data file na.bcc.save
     NEW-OLD atomic charge density approx. for the potential
     extrapolated charge    8.96836, renormalised to    9.00000

     total cpu time spent up to now is       32.0 secs

     per-process dynamical memory:    24.5 Mb

     Self-consistent Calculation

     iteration #  1     ecut=    40.00 Ry     beta=0.70
     Davidson diagonalization with overlap
     ethr =  1.00E-06,  avg # of iterations =  2.0

     total cpu time spent up to now is       33.3 secs

     total energy              =     -95.09850862 Ry
     Harris-Foulkes estimate   =     -95.32521204 Ry
     estimated scf accuracy    <       0.00035578 Ry

     iteration #  2     ecut=    40.00 Ry     beta=0.70
     Davidson diagonalization with overlap
     ethr =  3.95E-06,  avg # of iterations =  2.9

     total cpu time spent up to now is       34.6 secs

     total energy              =     -95.09915375 Ry
     Harris-Foulkes estimate   =     -95.09941541 Ry
     estimated scf accuracy    <       0.00059613 Ry

     iteration #  3     ecut=    40.00 Ry     beta=0.70
     Davidson diagonalization with overlap
     ethr =  3.95E-06,  avg # of iterations =  1.5

     total cpu time spent up to now is       35.6 secs

     total energy              =     -95.09916001 Ry
     Harris-Foulkes estimate   =     -95.09919335 Ry
     estimated scf accuracy    <       0.00011472 Ry

     iteration #  4     ecut=    40.00 Ry     beta=0.70
     Davidson diagonalization with overlap
     ethr =  1.27E-06,  avg # of iterations =  1.0

     total cpu time spent up to now is       36.4 secs

     total energy              =     -95.09914989 Ry
     Harris-Foulkes estimate   =     -95.09916402 Ry
     estimated scf accuracy    <       0.00004615 Ry

     iteration #  5     ecut=    40.00 Ry     beta=0.70
     Davidson diagonalization with overlap
     ethr =  5.13E-07,  avg # of iterations =  1.0

     total cpu time spent up to now is       37.3 secs

     total energy              =     -95.09914491 Ry
     Harris-Foulkes estimate   =     -95.09915127 Ry
     estimated scf accuracy    <       0.00001846 Ry

     iteration #  6     ecut=    40.00 Ry     beta=0.70
     Davidson diagonalization with overlap
     ethr =  2.05E-07,  avg # of iterations =  1.0

     total cpu time spent up to now is       38.2 secs

     total energy              =     -95.09914224 Ry
     Harris-Foulkes estimate   =     -95.09914560 Ry
     estimated scf accuracy    <       0.00000626 Ry

     iteration #  7     ecut=    40.00 Ry     beta=0.70
     Davidson diagonalization with overlap
     ethr =  6.96E-08,  avg # of iterations =  1.6

     total cpu time spent up to now is       39.1 secs

     total energy              =     -95.09914263 Ry
     Harris-Foulkes estimate   =     -95.09914293 Ry
     estimated scf accuracy    <       0.00000050 Ry

     iteration #  8     ecut=    40.00 Ry     beta=0.70
     Davidson diagonalization with overlap
     ethr =  5.50E-09,  avg # of iterations =  2.0

     total cpu time spent up to now is       40.2 secs

     total energy              =     -95.09914273 Ry
     Harris-Foulkes estimate   =     -95.09914273 Ry
     estimated scf accuracy    <          6.2E-09 Ry

     iteration #  9     ecut=    40.00 Ry     beta=0.70
     Davidson diagonalization with overlap
     ethr =  6.86E-11,  avg # of iterations =  1.2

     total cpu time spent up to now is       41.1 secs

     total energy              =     -95.09914273 Ry
     Harris-Foulkes estimate   =     -95.09914273 Ry
     estimated scf accuracy    <          5.5E-09 Ry

     iteration # 10     ecut=    40.00 Ry     beta=0.70
     Davidson diagonalization with overlap
     ethr =  6.07E-11,  avg # of iterations =  1.0

     total cpu time spent up to now is       42.0 secs

     total energy              =     -95.09914273 Ry
     Harris-Foulkes estimate   =     -95.09914273 Ry
     estimated scf accuracy    <          4.8E-09 Ry

     iteration # 11     ecut=    40.00 Ry     beta=0.70
     Davidson diagonalization with overlap
     ethr =  5.33E-11,  avg # of iterations =  2.0

     total cpu time spent up to now is       43.0 secs

     End of self-consistent calculation

     Number of k-points >= 100: set verbosity='high' to print the bands.

     the Fermi energy is     3.1356 ev

!    total energy              =     -95.09914273 Ry
     Harris-Foulkes estimate   =     -95.09914273 Ry
     estimated scf accuracy    <          8.0E-11 Ry

     The total energy is the sum of the following terms:

     one-electron contribution =     -81.08316533 Ry
     hartree contribution      =      41.46650461 Ry
     xc contribution           =     -14.31253577 Ry
     ewald contribution        =     -41.16984145 Ry
     smearing contrib. (-TS)   =      -0.00010479 Ry

     convergence has been achieved in  11 iterations

     Forces acting on atoms (cartesian axes, Ry/au):

     atom    1 type  1   force =     0.00000000    0.00000000    0.00000000

     Total force =     0.000000     Total SCF correction =     0.000000


     Computing stress (Cartesian axis) and pressure

          total   stress  (Ry/bohr**3)                   (kbar)     P=   38.72
   0.00026322  -0.00000000   0.00000000         38.72     -0.00      0.00
  -0.00000000   0.00026322  -0.00000000         -0.00     38.72     -0.00
   0.00000000  -0.00000000   0.00026322          0.00     -0.00     38.72


     number of scf cycles    =   4
     number of bfgs steps    =   3

     enthalpy old            =     -95.0492293339 Ry
     enthalpy new            =     -95.0492370913 Ry

     CASE: enthalpy_new < enthalpy_old

     new trust radius        =       0.0043542586 bohr
     new conv_thr            =            1.0E-10 Ry

     new unit-cell volume =    182.65088 a.u.^3 (    27.06607 Ang^3 )
     density =      1.41047 g/cm^3

CELL_PARAMETERS (alat=  7.17775002)
   0.497965124   0.497965124   0.497965124
  -0.497965124   0.497965124   0.497965124
  -0.497965124  -0.497965124   0.497965124

ATOMIC_POSITIONS (crystal)
Na       0.000000000   0.000000000   0.000000000



     Writing output data file na.bcc.save
     NEW-OLD atomic charge density approx. for the potential
     extrapolated charge    8.95650, renormalised to    9.00000

     total cpu time spent up to now is       44.1 secs

     per-process dynamical memory:    24.5 Mb

     Self-consistent Calculation

     iteration #  1     ecut=    40.00 Ry     beta=0.70
     Davidson diagonalization with overlap
     ethr =  1.00E-06,  avg # of iterations =  2.1

     total cpu time spent up to now is       45.4 secs

     total energy              =     -95.09771486 Ry
     Harris-Foulkes estimate   =     -95.40917848 Ry
     estimated scf accuracy    <       0.00066906 Ry

     iteration #  2     ecut=    40.00 Ry     beta=0.70
     Davidson diagonalization with overlap
     ethr =  7.43E-06,  avg # of iterations =  2.9

     total cpu time spent up to now is       46.7 secs

     total energy              =     -95.09892747 Ry
     Harris-Foulkes estimate   =     -95.09941961 Ry
     estimated scf accuracy    <       0.00112124 Ry

     iteration #  3     ecut=    40.00 Ry     beta=0.70
     Davidson diagonalization with overlap
     ethr =  7.43E-06,  avg # of iterations =  1.5

     total cpu time spent up to now is       47.7 secs

     total energy              =     -95.09894015 Ry
     Harris-Foulkes estimate   =     -95.09900213 Ry
     estimated scf accuracy    <       0.00021524 Ry

     iteration #  4     ecut=    40.00 Ry     beta=0.70
     Davidson diagonalization with overlap
     ethr =  2.39E-06,  avg # of iterations =  1.0

     total cpu time spent up to now is       48.6 secs

     total energy              =     -95.09892078 Ry
     Harris-Foulkes estimate   =     -95.09894757 Ry
     estimated scf accuracy    <       0.00008744 Ry

     iteration #  5     ecut=    40.00 Ry     beta=0.70
     Davidson diagonalization with overlap
     ethr =  9.72E-07,  avg # of iterations =  1.0

     total cpu time spent up to now is       49.4 secs

     total energy              =     -95.09891140 Ry
     Harris-Foulkes estimate   =     -95.09892338 Ry
     estimated scf accuracy    <       0.00003495 Ry

     iteration #  6     ecut=    40.00 Ry     beta=0.70
     Davidson diagonalization with overlap
     ethr =  3.88E-07,  avg # of iterations =  1.0

     total cpu time spent up to now is       50.3 secs

     total energy              =     -95.09890631 Ry
     Harris-Foulkes estimate   =     -95.09891269 Ry
     estimated scf accuracy    <       0.00001192 Ry

     iteration #  7     ecut=    40.00 Ry     beta=0.70
     Davidson diagonalization with overlap
     ethr =  1.32E-07,  avg # of iterations =  1.6

     total cpu time spent up to now is       51.3 secs

     total energy              =     -95.09890703 Ry
     Harris-Foulkes estimate   =     -95.09890762 Ry
     estimated scf accuracy    <       0.00000095 Ry

     iteration #  8     ecut=    40.00 Ry     beta=0.70
     Davidson diagonalization with overlap
     ethr =  1.06E-08,  avg # of iterations =  2.0

     total cpu time spent up to now is       52.3 secs

     total energy              =     -95.09890724 Ry
     Harris-Foulkes estimate   =     -95.09890724 Ry
     estimated scf accuracy    <       0.00000001 Ry

     iteration #  9     ecut=    40.00 Ry     beta=0.70
     Davidson diagonalization with overlap
     ethr =  1.16E-10,  avg # of iterations =  1.2

     total cpu time spent up to now is       53.2 secs

     total energy              =     -95.09890724 Ry
     Harris-Foulkes estimate   =     -95.09890724 Ry
     estimated scf accuracy    <          8.9E-09 Ry

     iteration # 10     ecut=    40.00 Ry     beta=0.70
     Davidson diagonalization with overlap
     ethr =  9.85E-11,  avg # of iterations =  1.0

     total cpu time spent up to now is       54.1 secs

     total energy              =     -95.09890723 Ry
     Harris-Foulkes estimate   =     -95.09890724 Ry
     estimated scf accuracy    <          8.3E-09 Ry

     iteration # 11     ecut=    40.00 Ry     beta=0.70
     Davidson diagonalization with overlap
     ethr =  9.23E-11,  avg # of iterations =  2.0

     total cpu time spent up to now is       55.2 secs

     total energy              =     -95.09890723 Ry
     Harris-Foulkes estimate   =     -95.09890723 Ry
     estimated scf accuracy    <          2.1E-10 Ry

     iteration # 12     ecut=    40.00 Ry     beta=0.70
     Davidson diagonalization with overlap
     ethr =  2.38E-12,  avg # of iterations =  2.3

     total cpu time spent up to now is       56.3 secs

     total energy              =     -95.09890723 Ry
     Harris-Foulkes estimate   =     -95.09890723 Ry
     estimated scf accuracy    <          1.6E-09 Ry

     iteration # 13     ecut=    40.00 Ry     beta=0.70
     Davidson diagonalization with overlap
     ethr =  2.38E-12,  avg # of iterations =  1.0

     total cpu time spent up to now is       57.2 secs

     total energy              =     -95.09890724 Ry
     Harris-Foulkes estimate   =     -95.09890723 Ry
     estimated scf accuracy    <          1.6E-09 Ry

     iteration # 14     ecut=    40.00 Ry     beta=0.70
     Davidson diagonalization with overlap
     ethr =  2.38E-12,  avg # of iterations =  2.0

     total cpu time spent up to now is       58.2 secs

     total energy              =     -95.09890724 Ry
     Harris-Foulkes estimate   =     -95.09890724 Ry
     estimated scf accuracy    <          3.2E-09 Ry

     iteration # 15     ecut=    40.00 Ry     beta=0.70
     Davidson diagonalization with overlap
     ethr =  2.38E-12,  avg # of iterations =  3.0

     total cpu time spent up to now is       59.5 secs

     total energy              =     -95.09890723 Ry
     Harris-Foulkes estimate   =     -95.09890724 Ry
     estimated scf accuracy    <       0.00000002 Ry

     iteration # 16     ecut=    40.00 Ry     beta=0.70
     Davidson diagonalization with overlap
     ethr =  2.38E-12,  avg # of iterations =  3.0

     total cpu time spent up to now is       60.8 secs

     total energy              =     -95.09890723 Ry
     Harris-Foulkes estimate   =     -95.09890723 Ry
     estimated scf accuracy    <          2.2E-10 Ry

     iteration # 17     ecut=    40.00 Ry     beta=0.70
     Davidson diagonalization with overlap
     ethr =  2.38E-12,  avg # of iterations =  2.0

     total cpu time spent up to now is       61.9 secs

     total energy              =     -95.09890723 Ry
     Harris-Foulkes estimate   =     -95.09890723 Ry
     estimated scf accuracy    <          5.5E-10 Ry

     iteration # 18     ecut=    40.00 Ry     beta=0.70
     Davidson diagonalization with overlap
     ethr =  2.38E-12,  avg # of iterations =  2.0

     total cpu time spent up to now is       62.9 secs

     End of self-consistent calculation

     Number of k-points >= 100: set verbosity='high' to print the bands.

     the Fermi energy is     3.1638 ev

!    total energy              =     -95.09890723 Ry
     Harris-Foulkes estimate   =     -95.09890723 Ry
     estimated scf accuracy    <          1.6E-11 Ry

     The total energy is the sum of the following terms:

     one-electron contribution =     -80.96803057 Ry
     hartree contribution      =      41.41863957 Ry
     xc contribution           =     -14.31330200 Ry
     ewald contribution        =     -41.23610936 Ry
     smearing contrib. (-TS)   =      -0.00010487 Ry

     convergence has been achieved in  18 iterations

     Forces acting on atoms (cartesian axes, Ry/au):

     atom    1 type  1   force =     0.00000000    0.00000000    0.00000000

     Total force =     0.000000     Total SCF correction =     0.000000


     Computing stress (Cartesian axis) and pressure

          total   stress  (Ry/bohr**3)                   (kbar)     P=   39.82
   0.00027070  -0.00000000   0.00000000         39.82     -0.00      0.00
  -0.00000000   0.00027070  -0.00000000         -0.00     39.82     -0.00
   0.00000000  -0.00000000   0.00027070          0.00     -0.00     39.82


     bfgs converged in   5 scf cycles and   4 bfgs steps
     (criteria: energy <  1.0E-04 Ry, force <  1.0E-03Ry/Bohr, cell <  5.0E-01kbar)

     End of BFGS Geometry Optimization

     Final enthalpy =     -95.0492418090 Ry
Begin final coordinates
     new unit-cell volume =    182.65088 a.u.^3 (    27.06607 Ang^3 )
     density =      1.41047 g/cm^3

CELL_PARAMETERS (alat=  7.17775002)
   0.497965124   0.497965124   0.497965124
  -0.497965124   0.497965124   0.497965124
  -0.497965124  -0.497965124   0.497965124

ATOMIC_POSITIONS (crystal)
Na       0.000000000   0.000000000   0.000000000
End final coordinates



     A final scf calculation at the relaxed structure.
     The G-vectors are recalculated for the final unit cell
     Results may differ from those at the preceding step.

     Parallelization info
     --------------------
     sticks:   dense  smooth     PW     G-vecs:    dense   smooth      PW
     Min         229     116     37                 4446     1584     289
     Max         231     117     38                 4448     1585     290
     Sum         921     467    151                17789     6339    1157



     bravais-lattice index     =            3
     lattice parameter (alat)  =       7.1778  a.u.
     unit-cell volume          =     182.6509 (a.u.)^3
     number of atoms/cell      =            1
     number of atomic types    =            1
     number of electrons       =         9.00
     number of Kohn-Sham states=            9
     kinetic-energy cutoff     =      40.0000  Ry
     charge density cutoff     =     320.0000  Ry
     convergence threshold     =      1.0E-10
     mixing beta               =       0.7000
     number of iterations used =            8  plain     mixing
     Exchange-correlation      = SLA  PW   PBE  PBE ( 1  4  3  4 0 0)

     celldm(1)=   7.177750  celldm(2)=   0.000000  celldm(3)=   0.000000
     celldm(4)=   0.000000  celldm(5)=   0.000000  celldm(6)=   0.000000

     crystal axes: (cart. coord. in units of alat)
               a(1) = (   0.497965   0.497965   0.497965 )  
               a(2) = (  -0.497965   0.497965   0.497965 )  
               a(3) = (  -0.497965  -0.497965   0.497965 )  

     reciprocal axes: (cart. coord. in units 2 pi/alat)
               b(1) = (  1.004086  0.000000  1.004086 )  
               b(2) = ( -1.004086  1.004086  0.000000 )  
               b(3) = (  0.000000 -1.004086  1.004086 )  


     PseudoPot. # 1 for Na read from file:
     /home/s1333534/quantum_espresso/qe-6.1/pseudo/Na_pbe_v1.uspp.F.UPF
     MD5 check sum: 76a99c7e9422403d3e93cbc85ab7bccb
     Pseudo is Ultrasoft, Zval =  9.0
     Generated by new atomic code, or converted to UPF format
     Using radial grid of  819 points,  5 beta functions with: 
                l(1) =   0
                l(2) =   0
                l(3) =   1
                l(4) =   1
                l(5) =   2
     Q(r) pseudized with  8 coefficients,  rinner =    1.250   1.250   1.250
                                                       1.250   1.250

     atomic species   valence    mass     pseudopotential
        Na             9.00    22.99000     Na( 1.00)

     48 Sym. Ops., with inversion, found



   Cartesian axes

     site n.     atom                  positions (alat units)
         1           Na  tau(   1) = (   0.0000000   0.0000000   0.0000000  )

     number of k points=   250  Marzari-Vanderbilt smearing, width (Ry)=  0.0200

     Number of k-points >= 100: set verbosity='high' to print them.

     Dense  grid:    17789 G-vectors     FFT dimensions: (  36,  36,  36)

     Smooth grid:     6339 G-vectors     FFT dimensions: (  25,  25,  25)

     Estimated max dynamical RAM per process >       9.58MB

     Estimated total allocated dynamical RAM >      38.31MB

     Initial potential from superposition of free atoms

     starting charge    8.99371, renormalised to    9.00000
     Starting wfc are    5 randomized atomic wfcs +    4 random wfc

     Writing output data file na.bcc.save

     total cpu time spent up to now is       64.5 secs

     per-process dynamical memory:    22.1 Mb

     Self-consistent Calculation

     iteration #  1     ecut=    40.00 Ry     beta=0.70
     Davidson diagonalization with overlap
     c_bands:  1 eigenvalues not converged
     ethr =  1.00E-06,  avg # of iterations = 11.0

     total cpu time spent up to now is       67.5 secs

     total energy              =     -95.09868395 Ry
     Harris-Foulkes estimate   =     -95.09908314 Ry
     estimated scf accuracy    <       0.00116280 Ry

     iteration #  2     ecut=    40.00 Ry     beta=0.70
     Davidson diagonalization with overlap
     ethr =  1.29E-05,  avg # of iterations =  2.0

     total cpu time spent up to now is       68.5 secs

     total energy              =     -95.09883933 Ry
     Harris-Foulkes estimate   =     -95.09887460 Ry
     estimated scf accuracy    <       0.00013481 Ry

     iteration #  3     ecut=    40.00 Ry     beta=0.70
     Davidson diagonalization with overlap
     ethr =  1.50E-06,  avg # of iterations =  2.0

     total cpu time spent up to now is       69.5 secs

     total energy              =     -95.09885484 Ry
     Harris-Foulkes estimate   =     -95.09885614 Ry
     estimated scf accuracy    <       0.00000816 Ry

     iteration #  4     ecut=    40.00 Ry     beta=0.70
     Davidson diagonalization with overlap
     ethr =  9.07E-08,  avg # of iterations =  1.0

     total cpu time spent up to now is       70.4 secs

     total energy              =     -95.09885555 Ry
     Harris-Foulkes estimate   =     -95.09885549 Ry
     estimated scf accuracy    <       0.00000001 Ry

     iteration #  5     ecut=    40.00 Ry     beta=0.70
     Davidson diagonalization with overlap
     ethr =  1.14E-10,  avg # of iterations =  3.0

     total cpu time spent up to now is       71.6 secs

     total energy              =     -95.09885557 Ry
     Harris-Foulkes estimate   =     -95.09885557 Ry
     estimated scf accuracy    <          1.0E-09 Ry

     iteration #  6     ecut=    40.00 Ry     beta=0.70
     Davidson diagonalization with overlap
     ethr =  1.15E-11,  avg # of iterations =  1.5

     total cpu time spent up to now is       72.5 secs

     End of self-consistent calculation

     Number of k-points >= 100: set verbosity='high' to print the bands.

     the Fermi energy is     3.1637 ev

!    total energy              =     -95.09885557 Ry
     Harris-Foulkes estimate   =     -95.09885557 Ry
     estimated scf accuracy    <          2.4E-11 Ry

     The total energy is the sum of the following terms:

     one-electron contribution =     -80.96795489 Ry
     hartree contribution      =      41.41859868 Ry
     xc contribution           =     -14.31328513 Ry
     ewald contribution        =     -41.23610936 Ry
     smearing contrib. (-TS)   =      -0.00010487 Ry

     convergence has been achieved in   6 iterations

     Forces acting on atoms (cartesian axes, Ry/au):

     atom    1 type  1   force =     0.00000000    0.00000000    0.00000000

     Total force =     0.000000     Total SCF correction =     0.000000


     Computing stress (Cartesian axis) and pressure

          total   stress  (Ry/bohr**3)                   (kbar)     P=   39.58
   0.00026903  -0.00000000   0.00000000         39.58     -0.00      0.00
  -0.00000000   0.00026903  -0.00000000         -0.00     39.58     -0.00
   0.00000000  -0.00000000   0.00026903          0.00     -0.00     39.58


     Writing output data file na.bcc.save

     init_run     :      1.25s CPU      1.30s WALL (       2 calls)
     electrons    :     61.48s CPU     65.94s WALL (       6 calls)
     update_pot   :      0.67s CPU      0.67s WALL (       4 calls)
     forces       :      0.65s CPU      0.66s WALL (       6 calls)
     stress       :      3.14s CPU      3.14s WALL (       6 calls)

     Called by init_run:
     wfcinit      :      0.65s CPU      0.69s WALL (       2 calls)
     potinit      :      0.07s CPU      0.07s WALL (       2 calls)

     Called by electrons:
     c_bands      :     49.67s CPU     53.38s WALL (      62 calls)
     sum_band     :     10.59s CPU     11.33s WALL (      62 calls)
     v_of_rho     :      0.53s CPU      0.54s WALL (      67 calls)
     newd         :      0.70s CPU      0.71s WALL (      67 calls)
     mix_rho      :      0.05s CPU      0.05s WALL (      62 calls)

     Called by c_bands:
     init_us_2    :      3.33s CPU      3.06s WALL (   34500 calls)
     cegterg      :     46.64s CPU     50.37s WALL (   15500 calls)

     Called by sum_band:
     sum_band:bec :      0.03s CPU      0.05s WALL (   15500 calls)
     addusdens    :      0.83s CPU      0.84s WALL (      62 calls)

     Called by *egterg:
     h_psi        :     37.21s CPU     40.00s WALL (   46207 calls)
     s_psi        :      0.60s CPU      0.55s WALL (   46207 calls)
     g_psi        :      0.26s CPU      0.32s WALL (   30207 calls)
     cdiaghg      :      5.54s CPU      5.84s WALL (   44457 calls)

     Called by h_psi:
     h_psi:pot    :     37.03s CPU     39.78s WALL (   46207 calls)
     h_psi:calbec :      0.86s CPU      0.94s WALL (   46207 calls)
     vloc_psi     :     35.57s CPU     38.11s WALL (   46207 calls)
     add_vuspsi   :      0.53s CPU      0.61s WALL (   46207 calls)

     General routines
     calbec       :      1.26s CPU      1.44s WALL (   69207 calls)
     fft          :      0.24s CPU      0.24s WALL (    1104 calls)
     ffts         :      0.01s CPU      0.01s WALL (     129 calls)
     fftw         :     38.28s CPU     39.93s WALL (  821414 calls)
     interpolate  :      0.04s CPU      0.04s WALL (     129 calls)
     davcio       :      0.00s CPU      0.00s WALL (     500 calls)

     Parallel routines
     fft_scatter  :      9.14s CPU     11.18s WALL (  822647 calls)

     PWSCF        :  1m 8.71s CPU     1m13.31s WALL


   This run was terminated on:  16:59:24  20Dec2017            

=------------------------------------------------------------------------------=
   JOB DONE.
=------------------------------------------------------------------------------=
