
     Program PWSCF v.6.1 (svn rev. 13369) starts on 20Dec2017 at 17: 2:21 

     This program is part of the open-source Quantum ESPRESSO suite
     for quantum simulation of materials; please cite
         "P. Giannozzi et al., J. Phys.:Condens. Matter 21 395502 (2009);
          URL http://www.quantum-espresso.org", 
     in publications or presentations arising from this work. More details at
     http://www.quantum-espresso.org/quote

     Parallel version (MPI), running on     4 processors
     R & G space division:  proc/nbgrp/npool/nimage =       4
     Waiting for input...
     Reading input from standard input

     Current dimensions of program PWSCF are:
     Max number of different atomic species (ntypx) = 10
     Max number of k-points (npk) =  40000
     Max angular momentum in pseudopotentials (lmaxx) =  3

     Subspace diagonalization in iterative solution of the eigenvalue problem:
     a serial algorithm will be used


     Parallelization info
     --------------------
     sticks:   dense  smooth     PW     G-vecs:    dense   smooth      PW
     Min         210     102     32                 3848     1354     239
     Max         211     103     33                 3850     1357     242
     Sum         841     411    129                15395     5425     959



     bravais-lattice index     =            3
     lattice parameter (alat)  =       6.8149  a.u.
     unit-cell volume          =     158.2539 (a.u.)^3
     number of atoms/cell      =            1
     number of atomic types    =            1
     number of electrons       =         9.00
     number of Kohn-Sham states=            9
     kinetic-energy cutoff     =      40.0000  Ry
     charge density cutoff     =     320.0000  Ry
     convergence threshold     =      1.0E-08
     mixing beta               =       0.7000
     number of iterations used =            8  plain     mixing
     Exchange-correlation      = SLA  PW   PBE  PBE ( 1  4  3  4 0 0)
     nstep                     =           50


     celldm(1)=   6.814932  celldm(2)=   0.000000  celldm(3)=   0.000000
     celldm(4)=   0.000000  celldm(5)=   0.000000  celldm(6)=   0.000000

     crystal axes: (cart. coord. in units of alat)
               a(1) = (   0.500000   0.500000   0.500000 )  
               a(2) = (  -0.500000   0.500000   0.500000 )  
               a(3) = (  -0.500000  -0.500000   0.500000 )  

     reciprocal axes: (cart. coord. in units 2 pi/alat)
               b(1) = (  1.000000  0.000000  1.000000 )  
               b(2) = ( -1.000000  1.000000  0.000000 )  
               b(3) = (  0.000000 -1.000000  1.000000 )  


     PseudoPot. # 1 for Na read from file:
     /home/s1333534/quantum_espresso/qe-6.1/pseudo/Na_pbe_v1.uspp.F.UPF
     MD5 check sum: 76a99c7e9422403d3e93cbc85ab7bccb
     Pseudo is Ultrasoft, Zval =  9.0
     Generated by new atomic code, or converted to UPF format
     Using radial grid of  819 points,  5 beta functions with: 
                l(1) =   0
                l(2) =   0
                l(3) =   1
                l(4) =   1
                l(5) =   2
     Q(r) pseudized with  8 coefficients,  rinner =    1.250   1.250   1.250
                                                       1.250   1.250

     atomic species   valence    mass     pseudopotential
        Na             9.00    22.99000     Na( 1.00)

     48 Sym. Ops., with inversion, found



   Cartesian axes

     site n.     atom                  positions (alat units)
         1           Na  tau(   1) = (   0.0000000   0.0000000   0.0000000  )

     number of k points=   250  Marzari-Vanderbilt smearing, width (Ry)=  0.0200

     Number of k-points >= 100: set verbosity='high' to print them.

     Dense  grid:    15395 G-vectors     FFT dimensions: (  36,  36,  36)

     Smooth grid:     5425 G-vectors     FFT dimensions: (  24,  24,  24)

     Estimated max dynamical RAM per process >       8.41MB

     Estimated total allocated dynamical RAM >      33.64MB

     Initial potential from superposition of free atoms

     starting charge    8.99371, renormalised to    9.00000
     Starting wfc are    5 randomized atomic wfcs +    4 random wfc

     total cpu time spent up to now is        0.7 secs

     per-process dynamical memory:    14.6 Mb

     Self-consistent Calculation

     iteration #  1     ecut=    40.00 Ry     beta=0.70
     Davidson diagonalization with overlap
     ethr =  1.00E-02,  avg # of iterations =  5.5

     Threshold (ethr) on eigenvalues was too large:
     Diagonalizing with lowered threshold

     Davidson diagonalization with overlap
     ethr =  1.61E-05,  avg # of iterations =  3.4

     total cpu time spent up to now is        3.3 secs

     total energy              =     -95.08853208 Ry
     Harris-Foulkes estimate   =     -95.08904922 Ry
     estimated scf accuracy    <       0.00145038 Ry

     iteration #  2     ecut=    40.00 Ry     beta=0.70
     Davidson diagonalization with overlap
     ethr =  1.61E-05,  avg # of iterations =  2.0

     total cpu time spent up to now is        4.1 secs

     total energy              =     -95.08872906 Ry
     Harris-Foulkes estimate   =     -95.08877107 Ry
     estimated scf accuracy    <       0.00016587 Ry

     iteration #  3     ecut=    40.00 Ry     beta=0.70
     Davidson diagonalization with overlap
     ethr =  1.84E-06,  avg # of iterations =  2.1

     total cpu time spent up to now is        5.0 secs

     total energy              =     -95.08874964 Ry
     Harris-Foulkes estimate   =     -95.08875071 Ry
     estimated scf accuracy    <       0.00000977 Ry

     iteration #  4     ecut=    40.00 Ry     beta=0.70
     Davidson diagonalization with overlap
     ethr =  1.09E-07,  avg # of iterations =  1.0

     total cpu time spent up to now is        5.8 secs

     total energy              =     -95.08875049 Ry
     Harris-Foulkes estimate   =     -95.08875042 Ry
     estimated scf accuracy    <       0.00000001 Ry

     iteration #  5     ecut=    40.00 Ry     beta=0.70
     Davidson diagonalization with overlap
     ethr =  1.46E-10,  avg # of iterations =  3.0

     total cpu time spent up to now is        6.9 secs

     End of self-consistent calculation

     Number of k-points >= 100: set verbosity='high' to print the bands.

     the Fermi energy is     4.0720 ev

!    total energy              =     -95.08875052 Ry
     Harris-Foulkes estimate   =     -95.08875052 Ry
     estimated scf accuracy    <          1.8E-09 Ry

     The total energy is the sum of the following terms:

     one-electron contribution =     -77.46963727 Ry
     hartree contribution      =      39.97281884 Ry
     xc contribution           =     -14.33711350 Ry
     ewald contribution        =     -43.25471325 Ry
     smearing contrib. (-TS)   =      -0.00010534 Ry

     convergence has been achieved in   5 iterations

     Forces acting on atoms (cartesian axes, Ry/au):

     atom    1 type  1   force =     0.00000000    0.00000000    0.00000000

     Total force =     0.000000     Total SCF correction =     0.000000


     Computing stress (Cartesian axis) and pressure

          total   stress  (Ry/bohr**3)                   (kbar)     P=   78.21
   0.00053167   0.00000000  -0.00000000         78.21      0.00     -0.00
   0.00000000   0.00053167   0.00000000          0.00     78.21      0.00
  -0.00000000   0.00000000   0.00053167         -0.00      0.00     78.21


     BFGS Geometry Optimization

     number of scf cycles    =   1
     number of bfgs steps    =   0

     enthalpy new            =     -95.0026874418 Ry

     new trust radius        =       0.0007648741 bohr
     new conv_thr            =       0.0000000100 Ry

     new unit-cell volume =    158.10964 a.u.^3 (    23.42943 Ang^3 )
     density =      1.62939 g/cm^3

CELL_PARAMETERS (alat=  6.81493154)
   0.499847997   0.499847997   0.499847997
  -0.499847997   0.499847997   0.499847997
  -0.499847997  -0.499847997   0.499847997

ATOMIC_POSITIONS (crystal)
Na       0.000000000   0.000000000   0.000000000



     Writing output data file na.bcc.save
     NEW-OLD atomic charge density approx. for the potential
     extrapolated charge    8.99179, renormalised to    9.00000

     total cpu time spent up to now is        7.9 secs

     per-process dynamical memory:    22.3 Mb

     Self-consistent Calculation

     iteration #  1     ecut=    40.00 Ry     beta=0.70
     Davidson diagonalization with overlap
     ethr =  1.00E-06,  avg # of iterations =  2.0

     total cpu time spent up to now is        9.0 secs

     total energy              =     -95.08863119 Ry
     Harris-Foulkes estimate   =     -95.14456773 Ry
     estimated scf accuracy    <       0.00002388 Ry

     iteration #  2     ecut=    40.00 Ry     beta=0.70
     Davidson diagonalization with overlap
     ethr =  2.65E-07,  avg # of iterations =  2.9

     total cpu time spent up to now is       10.0 secs

     total energy              =     -95.08867433 Ry
     Harris-Foulkes estimate   =     -95.08869185 Ry
     estimated scf accuracy    <       0.00003988 Ry

     iteration #  3     ecut=    40.00 Ry     beta=0.70
     Davidson diagonalization with overlap
     ethr =  2.65E-07,  avg # of iterations =  1.4

     total cpu time spent up to now is       10.8 secs

     total energy              =     -95.08867508 Ry
     Harris-Foulkes estimate   =     -95.08867695 Ry
     estimated scf accuracy    <       0.00000774 Ry

     iteration #  4     ecut=    40.00 Ry     beta=0.70
     Davidson diagonalization with overlap
     ethr =  8.60E-08,  avg # of iterations =  1.0

     total cpu time spent up to now is       11.6 secs

     total energy              =     -95.08867435 Ry
     Harris-Foulkes estimate   =     -95.08867531 Ry
     estimated scf accuracy    <       0.00000372 Ry

     iteration #  5     ecut=    40.00 Ry     beta=0.70
     Davidson diagonalization with overlap
     ethr =  4.13E-08,  avg # of iterations =  1.0

     total cpu time spent up to now is       12.4 secs

     total energy              =     -95.08867369 Ry
     Harris-Foulkes estimate   =     -95.08867442 Ry
     estimated scf accuracy    <       0.00000183 Ry

     iteration #  6     ecut=    40.00 Ry     beta=0.70
     Davidson diagonalization with overlap
     ethr =  2.03E-08,  avg # of iterations =  1.0

     total cpu time spent up to now is       13.1 secs

     total energy              =     -95.08867356 Ry
     Harris-Foulkes estimate   =     -95.08867378 Ry
     estimated scf accuracy    <       0.00000046 Ry

     iteration #  7     ecut=    40.00 Ry     beta=0.70
     Davidson diagonalization with overlap
     ethr =  5.15E-09,  avg # of iterations =  1.3

     total cpu time spent up to now is       13.9 secs

     total energy              =     -95.08867356 Ry
     Harris-Foulkes estimate   =     -95.08867360 Ry
     estimated scf accuracy    <       0.00000005 Ry

     iteration #  8     ecut=    40.00 Ry     beta=0.70
     Davidson diagonalization with overlap
     ethr =  6.08E-10,  avg # of iterations =  2.0

     total cpu time spent up to now is       14.9 secs

     End of self-consistent calculation

     Number of k-points >= 100: set verbosity='high' to print the bands.

     the Fermi energy is     4.0783 ev

!    total energy              =     -95.08867358 Ry
     Harris-Foulkes estimate   =     -95.08867358 Ry
     estimated scf accuracy    <          9.7E-11 Ry

     The total energy is the sum of the following terms:

     one-electron contribution =     -77.44692588 Ry
     hartree contribution      =      39.96350428 Ry
     xc contribution           =     -14.33727970 Ry
     ewald contribution        =     -43.26786696 Ry
     smearing contrib. (-TS)   =      -0.00010533 Ry

     convergence has been achieved in   8 iterations

     Forces acting on atoms (cartesian axes, Ry/au):

     atom    1 type  1   force =     0.00000000    0.00000000    0.00000000

     Total force =     0.000000     Total SCF correction =     0.000000


     Computing stress (Cartesian axis) and pressure

          total   stress  (Ry/bohr**3)                   (kbar)     P=   78.51
   0.00053372   0.00000000  -0.00000000         78.51      0.00     -0.00
   0.00000000   0.00053372   0.00000000          0.00     78.51      0.00
  -0.00000000   0.00000000   0.00053372         -0.00      0.00     78.51


     number of scf cycles    =   2
     number of bfgs steps    =   1

     enthalpy old            =     -95.0026874418 Ry
     enthalpy new            =     -95.0026889625 Ry

     CASE: enthalpy_new < enthalpy_old


     WARNING: bfgs curvature condition failed, Theta= 0.963
     new trust radius        =       0.0011471367 bohr
     new conv_thr            =            1.0E-10 Ry

     new unit-cell volume =    157.89337 a.u.^3 (    23.39738 Ang^3 )
     density =      1.63163 g/cm^3

CELL_PARAMETERS (alat=  6.81493154)
   0.499619992   0.499619992   0.499619992
  -0.499619992   0.499619992   0.499619992
  -0.499619992  -0.499619992   0.499619992

ATOMIC_POSITIONS (crystal)
Na       0.000000000   0.000000000   0.000000000



     Writing output data file na.bcc.save
     NEW-OLD atomic charge density approx. for the potential
     extrapolated charge    8.98768, renormalised to    9.00000

     total cpu time spent up to now is       15.8 secs

     per-process dynamical memory:    22.3 Mb

     Self-consistent Calculation

     iteration #  1     ecut=    40.00 Ry     beta=0.70
     Davidson diagonalization with overlap
     ethr =  1.00E-06,  avg # of iterations =  2.0

     total cpu time spent up to now is       16.9 secs

     total energy              =     -95.08846243 Ry
     Harris-Foulkes estimate   =     -95.17240578 Ry
     estimated scf accuracy    <       0.00005356 Ry

     iteration #  2     ecut=    40.00 Ry     beta=0.70
     Davidson diagonalization with overlap
     ethr =  5.95E-07,  avg # of iterations =  2.9

     total cpu time spent up to now is       18.0 secs

     total energy              =     -95.08855934 Ry
     Harris-Foulkes estimate   =     -95.08859870 Ry
     estimated scf accuracy    <       0.00008964 Ry

     iteration #  3     ecut=    40.00 Ry     beta=0.70
     Davidson diagonalization with overlap
     ethr =  5.95E-07,  avg # of iterations =  1.4

     total cpu time spent up to now is       18.8 secs

     total energy              =     -95.08856097 Ry
     Harris-Foulkes estimate   =     -95.08856524 Ry
     estimated scf accuracy    <       0.00001741 Ry

     iteration #  4     ecut=    40.00 Ry     beta=0.70
     Davidson diagonalization with overlap
     ethr =  1.93E-07,  avg # of iterations =  1.0

     total cpu time spent up to now is       19.5 secs

     total energy              =     -95.08855926 Ry
     Harris-Foulkes estimate   =     -95.08856149 Ry
     estimated scf accuracy    <       0.00000826 Ry

     iteration #  5     ecut=    40.00 Ry     beta=0.70
     Davidson diagonalization with overlap
     ethr =  9.18E-08,  avg # of iterations =  1.0

     total cpu time spent up to now is       20.3 secs

     total energy              =     -95.08855785 Ry
     Harris-Foulkes estimate   =     -95.08855943 Ry
     estimated scf accuracy    <       0.00000388 Ry

     iteration #  6     ecut=    40.00 Ry     beta=0.70
     Davidson diagonalization with overlap
     ethr =  4.31E-08,  avg # of iterations =  1.0

     total cpu time spent up to now is       21.1 secs

     total energy              =     -95.08855758 Ry
     Harris-Foulkes estimate   =     -95.08855806 Ry
     estimated scf accuracy    <       0.00000094 Ry

     iteration #  7     ecut=    40.00 Ry     beta=0.70
     Davidson diagonalization with overlap
     ethr =  1.04E-08,  avg # of iterations =  1.5

     total cpu time spent up to now is       21.9 secs

     total energy              =     -95.08855762 Ry
     Harris-Foulkes estimate   =     -95.08855768 Ry
     estimated scf accuracy    <       0.00000009 Ry

     iteration #  8     ecut=    40.00 Ry     beta=0.70
     Davidson diagonalization with overlap
     ethr =  1.04E-09,  avg # of iterations =  2.0

     total cpu time spent up to now is       22.8 secs

     End of self-consistent calculation

     Number of k-points >= 100: set verbosity='high' to print the bands.

     the Fermi energy is     4.0877 ev

!    total energy              =     -95.08855764 Ry
     Harris-Foulkes estimate   =     -95.08855764 Ry
     estimated scf accuracy    <          9.7E-11 Ry

     The total energy is the sum of the following terms:

     one-electron contribution =     -77.41281403 Ry
     hartree contribution      =      39.94949657 Ry
     xc contribution           =     -14.33752234 Ry
     ewald contribution        =     -43.28761253 Ry
     smearing contrib. (-TS)   =      -0.00010532 Ry

     convergence has been achieved in   8 iterations

     Forces acting on atoms (cartesian axes, Ry/au):

     atom    1 type  1   force =     0.00000000    0.00000000    0.00000000

     Total force =     0.000000     Total SCF correction =     0.000000


     Computing stress (Cartesian axis) and pressure

          total   stress  (Ry/bohr**3)                   (kbar)     P=   79.02
   0.00053718   0.00000000  -0.00000000         79.02      0.00     -0.00
   0.00000000   0.00053718   0.00000000          0.00     79.02      0.00
  -0.00000000   0.00000000   0.00053718         -0.00      0.00     79.02


     number of scf cycles    =   3
     number of bfgs steps    =   2

     enthalpy old            =     -95.0026889625 Ry
     enthalpy new            =     -95.0026906395 Ry

     CASE: enthalpy_new < enthalpy_old

     new trust radius        =       0.0017203125 bohr
     new conv_thr            =            1.0E-10 Ry

     new unit-cell volume =    157.56935 a.u.^3 (    23.34937 Ang^3 )
     density =      1.63498 g/cm^3

CELL_PARAMETERS (alat=  6.81493154)
   0.499277985   0.499277985   0.499277985
  -0.499277985   0.499277985   0.499277985
  -0.499277985  -0.499277985   0.499277985

ATOMIC_POSITIONS (crystal)
Na       0.000000000   0.000000000   0.000000000



     Writing output data file na.bcc.save
     NEW-OLD atomic charge density approx. for the potential
     extrapolated charge    8.98151, renormalised to    9.00000

     total cpu time spent up to now is       23.8 secs

     per-process dynamical memory:    22.3 Mb

     Self-consistent Calculation

     iteration #  1     ecut=    40.00 Ry     beta=0.70
     Davidson diagonalization with overlap
     ethr =  1.00E-06,  avg # of iterations =  2.0

     total cpu time spent up to now is       24.9 secs

     total energy              =     -95.08816859 Ry
     Harris-Foulkes estimate   =     -95.21417023 Ry
     estimated scf accuracy    <       0.00012034 Ry

     iteration #  2     ecut=    40.00 Ry     beta=0.70
     Davidson diagonalization with overlap
     ethr =  1.34E-06,  avg # of iterations =  2.9

     total cpu time spent up to now is       26.0 secs

     total energy              =     -95.08838636 Ry
     Harris-Foulkes estimate   =     -95.08847483 Ry
     estimated scf accuracy    <       0.00020153 Ry

     iteration #  3     ecut=    40.00 Ry     beta=0.70
     Davidson diagonalization with overlap
     ethr =  1.34E-06,  avg # of iterations =  1.4

     total cpu time spent up to now is       26.8 secs

     total energy              =     -95.08838960 Ry
     Harris-Foulkes estimate   =     -95.08839968 Ry
     estimated scf accuracy    <       0.00003898 Ry

     iteration #  4     ecut=    40.00 Ry     beta=0.70
     Davidson diagonalization with overlap
     ethr =  4.33E-07,  avg # of iterations =  1.0

     total cpu time spent up to now is       27.6 secs

     total energy              =     -95.08838605 Ry
     Harris-Foulkes estimate   =     -95.08839079 Ry
     estimated scf accuracy    <       0.00001767 Ry

     iteration #  5     ecut=    40.00 Ry     beta=0.70
     Davidson diagonalization with overlap
     ethr =  1.96E-07,  avg # of iterations =  1.0

     total cpu time spent up to now is       28.4 secs

     total energy              =     -95.08838312 Ry
     Harris-Foulkes estimate   =     -95.08838642 Ry
     estimated scf accuracy    <       0.00000831 Ry

     iteration #  6     ecut=    40.00 Ry     beta=0.70
     Davidson diagonalization with overlap
     ethr =  9.24E-08,  avg # of iterations =  1.0

     total cpu time spent up to now is       29.1 secs

     total energy              =     -95.08838254 Ry
     Harris-Foulkes estimate   =     -95.08838354 Ry
     estimated scf accuracy    <       0.00000213 Ry

     iteration #  7     ecut=    40.00 Ry     beta=0.70
     Davidson diagonalization with overlap
     ethr =  2.37E-08,  avg # of iterations =  1.1

     total cpu time spent up to now is       29.9 secs

     total energy              =     -95.08838251 Ry
     Harris-Foulkes estimate   =     -95.08838272 Ry
     estimated scf accuracy    <       0.00000032 Ry

     iteration #  8     ecut=    40.00 Ry     beta=0.70
     Davidson diagonalization with overlap
     ethr =  3.51E-09,  avg # of iterations =  2.0

     total cpu time spent up to now is       30.8 secs

     total energy              =     -95.08838258 Ry
     Harris-Foulkes estimate   =     -95.08838258 Ry
     estimated scf accuracy    <          1.2E-09 Ry

     iteration #  9     ecut=    40.00 Ry     beta=0.70
     Davidson diagonalization with overlap
     ethr =  1.36E-11,  avg # of iterations =  1.6

     total cpu time spent up to now is       31.6 secs

     total energy              =     -95.08838258 Ry
     Harris-Foulkes estimate   =     -95.08838258 Ry
     estimated scf accuracy    <          8.5E-10 Ry

     iteration # 10     ecut=    40.00 Ry     beta=0.70
     Davidson diagonalization with overlap
     ethr =  9.49E-12,  avg # of iterations =  1.0

     total cpu time spent up to now is       32.4 secs

     total energy              =     -95.08838258 Ry
     Harris-Foulkes estimate   =     -95.08838258 Ry
     estimated scf accuracy    <          5.1E-10 Ry

     iteration # 11     ecut=    40.00 Ry     beta=0.70
     Davidson diagonalization with overlap
     ethr =  5.64E-12,  avg # of iterations =  2.0

     total cpu time spent up to now is       33.3 secs

     End of self-consistent calculation

     Number of k-points >= 100: set verbosity='high' to print the bands.

     the Fermi energy is     4.1018 ev

!    total energy              =     -95.08838258 Ry
     Harris-Foulkes estimate   =     -95.08838258 Ry
     estimated scf accuracy    <          3.4E-11 Ry

     The total energy is the sum of the following terms:

     one-electron contribution =     -77.36163829 Ry
     hartree contribution      =      39.92852353 Ry
     xc contribution           =     -14.33789784 Ry
     ewald contribution        =     -43.31726469 Ry
     smearing contrib. (-TS)   =      -0.00010529 Ry

     convergence has been achieved in  11 iterations

     Forces acting on atoms (cartesian axes, Ry/au):

     atom    1 type  1   force =     0.00000000    0.00000000    0.00000000

     Total force =     0.000000     Total SCF correction =     0.000000


     Computing stress (Cartesian axis) and pressure

          total   stress  (Ry/bohr**3)                   (kbar)     P=   79.92
   0.00054325   0.00000000  -0.00000000         79.92      0.00     -0.00
   0.00000000   0.00054325   0.00000000          0.00     79.92      0.00
  -0.00000000   0.00000000   0.00054325         -0.00      0.00     79.92


     bfgs converged in   4 scf cycles and   3 bfgs steps
     (criteria: energy <  1.0E-04 Ry, force <  1.0E-03Ry/Bohr, cell <  5.0E-01kbar)

     End of BFGS Geometry Optimization

     Final enthalpy =     -95.0026917928 Ry
Begin final coordinates
     new unit-cell volume =    157.56935 a.u.^3 (    23.34937 Ang^3 )
     density =      1.63498 g/cm^3

CELL_PARAMETERS (alat=  6.81493154)
   0.499277985   0.499277985   0.499277985
  -0.499277985   0.499277985   0.499277985
  -0.499277985  -0.499277985   0.499277985

ATOMIC_POSITIONS (crystal)
Na       0.000000000   0.000000000   0.000000000
End final coordinates



     A final scf calculation at the relaxed structure.
     The G-vectors are recalculated for the final unit cell
     Results may differ from those at the preceding step.

     Parallelization info
     --------------------
     sticks:   dense  smooth     PW     G-vecs:    dense   smooth      PW
     Min         209     102     32                 3824     1354     239
     Max         211     103     33                 3825     1357     242
     Sum         841     411    129                15299     5425     959



     bravais-lattice index     =            3
     lattice parameter (alat)  =       6.8149  a.u.
     unit-cell volume          =     157.5693 (a.u.)^3
     number of atoms/cell      =            1
     number of atomic types    =            1
     number of electrons       =         9.00
     number of Kohn-Sham states=            9
     kinetic-energy cutoff     =      40.0000  Ry
     charge density cutoff     =     320.0000  Ry
     convergence threshold     =      1.0E-10
     mixing beta               =       0.7000
     number of iterations used =            8  plain     mixing
     Exchange-correlation      = SLA  PW   PBE  PBE ( 1  4  3  4 0 0)

     celldm(1)=   6.814932  celldm(2)=   0.000000  celldm(3)=   0.000000
     celldm(4)=   0.000000  celldm(5)=   0.000000  celldm(6)=   0.000000

     crystal axes: (cart. coord. in units of alat)
               a(1) = (   0.499278   0.499278   0.499278 )  
               a(2) = (  -0.499278   0.499278   0.499278 )  
               a(3) = (  -0.499278  -0.499278   0.499278 )  

     reciprocal axes: (cart. coord. in units 2 pi/alat)
               b(1) = (  1.001446 -0.000000  1.001446 )  
               b(2) = ( -1.001446  1.001446 -0.000000 )  
               b(3) = (  0.000000 -1.001446  1.001446 )  


     PseudoPot. # 1 for Na read from file:
     /home/s1333534/quantum_espresso/qe-6.1/pseudo/Na_pbe_v1.uspp.F.UPF
     MD5 check sum: 76a99c7e9422403d3e93cbc85ab7bccb
     Pseudo is Ultrasoft, Zval =  9.0
     Generated by new atomic code, or converted to UPF format
     Using radial grid of  819 points,  5 beta functions with: 
                l(1) =   0
                l(2) =   0
                l(3) =   1
                l(4) =   1
                l(5) =   2
     Q(r) pseudized with  8 coefficients,  rinner =    1.250   1.250   1.250
                                                       1.250   1.250

     atomic species   valence    mass     pseudopotential
        Na             9.00    22.99000     Na( 1.00)

     48 Sym. Ops., with inversion, found



   Cartesian axes

     site n.     atom                  positions (alat units)
         1           Na  tau(   1) = (   0.0000000   0.0000000   0.0000000  )

     number of k points=   250  Marzari-Vanderbilt smearing, width (Ry)=  0.0200

     Number of k-points >= 100: set verbosity='high' to print them.

     Dense  grid:    15299 G-vectors     FFT dimensions: (  36,  36,  36)

     Smooth grid:     5425 G-vectors     FFT dimensions: (  24,  24,  24)

     Estimated max dynamical RAM per process >       8.36MB

     Estimated total allocated dynamical RAM >      33.46MB

     Initial potential from superposition of free atoms

     starting charge    8.99371, renormalised to    9.00000
     Starting wfc are    5 randomized atomic wfcs +    4 random wfc

     Writing output data file na.bcc.save

     total cpu time spent up to now is       34.7 secs

     per-process dynamical memory:    20.0 Mb

     Self-consistent Calculation

     iteration #  1     ecut=    40.00 Ry     beta=0.70
     Davidson diagonalization with overlap
     ethr =  1.00E-06,  avg # of iterations = 10.7

     total cpu time spent up to now is       37.4 secs

     total energy              =     -95.08813648 Ry
     Harris-Foulkes estimate   =     -95.08866582 Ry
     estimated scf accuracy    <       0.00146719 Ry

     iteration #  2     ecut=    40.00 Ry     beta=0.70
     Davidson diagonalization with overlap
     ethr =  1.63E-05,  avg # of iterations =  2.0

     total cpu time spent up to now is       38.3 secs

     total energy              =     -95.08834097 Ry
     Harris-Foulkes estimate   =     -95.08838584 Ry
     estimated scf accuracy    <       0.00017157 Ry

     iteration #  3     ecut=    40.00 Ry     beta=0.70
     Davidson diagonalization with overlap
     ethr =  1.91E-06,  avg # of iterations =  2.0

     total cpu time spent up to now is       39.1 secs

     total energy              =     -95.08836153 Ry
     Harris-Foulkes estimate   =     -95.08836274 Ry
     estimated scf accuracy    <       0.00001021 Ry

     iteration #  4     ecut=    40.00 Ry     beta=0.70
     Davidson diagonalization with overlap
     ethr =  1.13E-07,  avg # of iterations =  1.0

     total cpu time spent up to now is       39.9 secs

     total energy              =     -95.08836240 Ry
     Harris-Foulkes estimate   =     -95.08836234 Ry
     estimated scf accuracy    <       0.00000001 Ry

     iteration #  5     ecut=    40.00 Ry     beta=0.70
     Davidson diagonalization with overlap
     ethr =  1.43E-10,  avg # of iterations =  3.0

     total cpu time spent up to now is       41.0 secs

     total energy              =     -95.08836243 Ry
     Harris-Foulkes estimate   =     -95.08836242 Ry
     estimated scf accuracy    <          1.2E-09 Ry

     iteration #  6     ecut=    40.00 Ry     beta=0.70
     Davidson diagonalization with overlap
     ethr =  1.37E-11,  avg # of iterations =  1.5

     total cpu time spent up to now is       41.8 secs

     total energy              =     -95.08836243 Ry
     Harris-Foulkes estimate   =     -95.08836243 Ry
     estimated scf accuracy    <          1.3E-10 Ry

     iteration #  7     ecut=    40.00 Ry     beta=0.70
     Davidson diagonalization with overlap
     ethr =  1.40E-12,  avg # of iterations =  2.0

     total cpu time spent up to now is       42.7 secs

     End of self-consistent calculation

     Number of k-points >= 100: set verbosity='high' to print the bands.

     the Fermi energy is     4.1018 ev

!    total energy              =     -95.08836243 Ry
     Harris-Foulkes estimate   =     -95.08836243 Ry
     estimated scf accuracy    <          3.0E-12 Ry

     The total energy is the sum of the following terms:

     one-electron contribution =     -77.36157913 Ry
     hartree contribution      =      39.92847233 Ry
     xc contribution           =     -14.33788564 Ry
     ewald contribution        =     -43.31726469 Ry
     smearing contrib. (-TS)   =      -0.00010529 Ry

     convergence has been achieved in   7 iterations

     Forces acting on atoms (cartesian axes, Ry/au):

     atom    1 type  1   force =     0.00000000    0.00000000    0.00000000

     Total force =     0.000000     Total SCF correction =     0.000000


     Computing stress (Cartesian axis) and pressure

          total   stress  (Ry/bohr**3)                   (kbar)     P=   79.71
   0.00054189   0.00000000  -0.00000000         79.71      0.00     -0.00
  -0.00000000   0.00054189  -0.00000000         -0.00     79.71     -0.00
  -0.00000000   0.00000000   0.00054189         -0.00      0.00     79.71


     Writing output data file na.bcc.save

     init_run     :      1.13s CPU      1.17s WALL (       2 calls)
     electrons    :     36.36s CPU     37.78s WALL (       5 calls)
     update_pot   :      0.43s CPU      0.43s WALL (       3 calls)
     forces       :      0.47s CPU      0.48s WALL (       5 calls)
     stress       :      2.23s CPU      2.24s WALL (       5 calls)

     Called by init_run:
     wfcinit      :      0.57s CPU      0.60s WALL (       2 calls)
     potinit      :      0.07s CPU      0.07s WALL (       2 calls)

     Called by electrons:
     c_bands      :     29.53s CPU     30.74s WALL (      40 calls)
     sum_band     :      6.13s CPU      6.33s WALL (      40 calls)
     v_of_rho     :      0.34s CPU      0.35s WALL (      44 calls)
     newd         :      0.39s CPU      0.39s WALL (      44 calls)
     mix_rho      :      0.02s CPU      0.02s WALL (      40 calls)

     Called by c_bands:
     init_us_2    :      1.86s CPU      1.82s WALL (   23000 calls)
     cegterg      :     27.84s CPU     29.06s WALL (   10000 calls)

     Called by sum_band:
     sum_band:bec :      0.03s CPU      0.03s WALL (   10000 calls)
     addusdens    :      0.46s CPU      0.47s WALL (      40 calls)

     Called by *egterg:
     h_psi        :     21.68s CPU     22.62s WALL (   30887 calls)
     s_psi        :      0.43s CPU      0.33s WALL (   30887 calls)
     g_psi        :      0.21s CPU      0.19s WALL (   20387 calls)
     cdiaghg      :      3.81s CPU      3.92s WALL (   29387 calls)

     Called by h_psi:
     h_psi:pot    :     21.59s CPU     22.48s WALL (   30887 calls)
     h_psi:calbec :      0.66s CPU      0.53s WALL (   30887 calls)
     vloc_psi     :     20.65s CPU     21.52s WALL (   30887 calls)
     add_vuspsi   :      0.24s CPU      0.36s WALL (   30887 calls)

     General routines
     calbec       :      0.90s CPU      0.80s WALL (   47137 calls)
     fft          :      0.15s CPU      0.16s WALL (     731 calls)
     ffts         :      0.01s CPU      0.01s WALL (      84 calls)
     fftw         :     22.87s CPU     22.24s WALL (  535894 calls)
     interpolate  :      0.03s CPU      0.03s WALL (      84 calls)
     davcio       :      0.00s CPU      0.00s WALL (     500 calls)

     Parallel routines
     fft_scatter  :      3.63s CPU      4.33s WALL (  536709 calls)

     PWSCF        :    41.87s CPU        43.40s WALL


   This run was terminated on:  17: 3: 4  20Dec2017            

=------------------------------------------------------------------------------=
   JOB DONE.
=------------------------------------------------------------------------------=
