
     Program PWSCF v.6.1 (svn rev. 13369) starts on 20Dec2017 at 16:56:59 

     This program is part of the open-source Quantum ESPRESSO suite
     for quantum simulation of materials; please cite
         "P. Giannozzi et al., J. Phys.:Condens. Matter 21 395502 (2009);
          URL http://www.quantum-espresso.org", 
     in publications or presentations arising from this work. More details at
     http://www.quantum-espresso.org/quote

     Parallel version (MPI), running on     4 processors
     R & G space division:  proc/nbgrp/npool/nimage =       4
     Waiting for input...
     Reading input from standard input

     Current dimensions of program PWSCF are:
     Max number of different atomic species (ntypx) = 10
     Max number of k-points (npk) =  40000
     Max angular momentum in pseudopotentials (lmaxx) =  3

     Subspace diagonalization in iterative solution of the eigenvalue problem:
     a serial algorithm will be used


     Parallelization info
     --------------------
     sticks:   dense  smooth     PW     G-vecs:    dense   smooth      PW
     Min         239     120     38                 4695     1674     301
     Max         240     121     39                 4696     1675     302
     Sum         957     483    155                18781     6699    1205



     bravais-lattice index     =            3
     lattice parameter (alat)  =       7.3086  a.u.
     unit-cell volume          =     195.1964 (a.u.)^3
     number of atoms/cell      =            1
     number of atomic types    =            1
     number of electrons       =         9.00
     number of Kohn-Sham states=            9
     kinetic-energy cutoff     =      40.0000  Ry
     charge density cutoff     =     320.0000  Ry
     convergence threshold     =      1.0E-08
     mixing beta               =       0.7000
     number of iterations used =            8  plain     mixing
     Exchange-correlation      = SLA  PW   PBE  PBE ( 1  4  3  4 0 0)
     nstep                     =           50


     celldm(1)=   7.308596  celldm(2)=   0.000000  celldm(3)=   0.000000
     celldm(4)=   0.000000  celldm(5)=   0.000000  celldm(6)=   0.000000

     crystal axes: (cart. coord. in units of alat)
               a(1) = (   0.500000   0.500000   0.500000 )  
               a(2) = (  -0.500000   0.500000   0.500000 )  
               a(3) = (  -0.500000  -0.500000   0.500000 )  

     reciprocal axes: (cart. coord. in units 2 pi/alat)
               b(1) = (  1.000000  0.000000  1.000000 )  
               b(2) = ( -1.000000  1.000000  0.000000 )  
               b(3) = (  0.000000 -1.000000  1.000000 )  


     PseudoPot. # 1 for Na read from file:
     /home/s1333534/quantum_espresso/qe-6.1/pseudo/Na_pbe_v1.uspp.F.UPF
     MD5 check sum: 76a99c7e9422403d3e93cbc85ab7bccb
     Pseudo is Ultrasoft, Zval =  9.0
     Generated by new atomic code, or converted to UPF format
     Using radial grid of  819 points,  5 beta functions with: 
                l(1) =   0
                l(2) =   0
                l(3) =   1
                l(4) =   1
                l(5) =   2
     Q(r) pseudized with  8 coefficients,  rinner =    1.250   1.250   1.250
                                                       1.250   1.250

     atomic species   valence    mass     pseudopotential
        Na             9.00    22.99000     Na( 1.00)

     48 Sym. Ops., with inversion, found



   Cartesian axes

     site n.     atom                  positions (alat units)
         1           Na  tau(   1) = (   0.0000000   0.0000000   0.0000000  )

     number of k points=   250  Marzari-Vanderbilt smearing, width (Ry)=  0.0200

     Number of k-points >= 100: set verbosity='high' to print them.

     Dense  grid:    18781 G-vectors     FFT dimensions: (  40,  40,  40)

     Smooth grid:     6699 G-vectors     FFT dimensions: (  25,  25,  25)

     Estimated max dynamical RAM per process >      10.44MB

     Estimated total allocated dynamical RAM >      41.75MB

     Initial potential from superposition of free atoms

     starting charge    8.99371, renormalised to    9.00000
     Starting wfc are    5 randomized atomic wfcs +    4 random wfc

     total cpu time spent up to now is        0.8 secs

     per-process dynamical memory:    16.7 Mb

     Self-consistent Calculation

     iteration #  1     ecut=    40.00 Ry     beta=0.70
     Davidson diagonalization with overlap
     ethr =  1.00E-02,  avg # of iterations =  5.6

     Threshold (ethr) on eigenvalues was too large:
     Diagonalizing with lowered threshold

     Davidson diagonalization with overlap
     ethr =  1.18E-05,  avg # of iterations =  3.9

     total cpu time spent up to now is        3.9 secs

     total energy              =     -95.10180068 Ry
     Harris-Foulkes estimate   =     -95.10215430 Ry
     estimated scf accuracy    <       0.00106263 Ry

     iteration #  2     ecut=    40.00 Ry     beta=0.70
     Davidson diagonalization with overlap
     ethr =  1.18E-05,  avg # of iterations =  2.0

     total cpu time spent up to now is        4.9 secs

     total energy              =     -95.10193533 Ry
     Harris-Foulkes estimate   =     -95.10196552 Ry
     estimated scf accuracy    <       0.00011982 Ry

     iteration #  3     ecut=    40.00 Ry     beta=0.70
     Davidson diagonalization with overlap
     ethr =  1.33E-06,  avg # of iterations =  2.2

     total cpu time spent up to now is        6.0 secs

     total energy              =     -95.10194909 Ry
     Harris-Foulkes estimate   =     -95.10195032 Ry
     estimated scf accuracy    <       0.00000723 Ry

     iteration #  4     ecut=    40.00 Ry     beta=0.70
     Davidson diagonalization with overlap
     ethr =  8.03E-08,  avg # of iterations =  1.0

     total cpu time spent up to now is        6.9 secs

     End of self-consistent calculation

     Number of k-points >= 100: set verbosity='high' to print the bands.

     the Fermi energy is     2.7892 ev

!    total energy              =     -95.10194974 Ry
     Harris-Foulkes estimate   =     -95.10194968 Ry
     estimated scf accuracy    <          9.5E-09 Ry

     The total energy is the sum of the following terms:

     one-electron contribution =     -82.53875276 Ry
     hartree contribution      =      42.07292243 Ry
     xc contribution           =     -14.30297378 Ry
     ewald contribution        =     -40.33304226 Ry
     smearing contrib. (-TS)   =      -0.00010337 Ry

     convergence has been achieved in   4 iterations

     Forces acting on atoms (cartesian axes, Ry/au):

     atom    1 type  1   force =     0.00000000    0.00000000    0.00000000

     Total force =     0.000000     Total SCF correction =     0.000000


     Computing stress (Cartesian axis) and pressure

          total   stress  (Ry/bohr**3)                   (kbar)     P=   26.35
   0.00017914   0.00000000  -0.00000000         26.35      0.00     -0.00
   0.00000000   0.00017914   0.00000000          0.00     26.35      0.00
  -0.00000000   0.00000000   0.00017914         -0.00      0.00     26.35


     BFGS Geometry Optimization

     number of scf cycles    =   1
     number of bfgs steps    =   0

     enthalpy new            =     -95.0621421797 Ry

     new trust radius        =       0.0017320214 bohr
     new conv_thr            =       0.0000000100 Ry

     new unit-cell volume =    194.83367 a.u.^3 (    28.87137 Ang^3 )
     density =      1.32227 g/cm^3

CELL_PARAMETERS (alat=  7.30859595)
   0.499690074   0.499690074   0.499690074
  -0.499690074   0.499690074   0.499690074
  -0.499690074  -0.499690074   0.499690074

ATOMIC_POSITIONS (crystal)
Na       0.000000000   0.000000000   0.000000000



     Writing output data file na.bcc.save
     NEW-OLD atomic charge density approx. for the potential
     extrapolated charge    8.98325, renormalised to    9.00000

     total cpu time spent up to now is        8.1 secs

     per-process dynamical memory:    25.5 Mb

     Self-consistent Calculation

     iteration #  1     ecut=    40.00 Ry     beta=0.70
     Davidson diagonalization with overlap
     ethr =  1.00E-06,  avg # of iterations =  2.1

     total cpu time spent up to now is        9.3 secs

     total energy              =     -95.10170376 Ry
     Harris-Foulkes estimate   =     -95.22376694 Ry
     estimated scf accuracy    <       0.00010111 Ry

     iteration #  2     ecut=    40.00 Ry     beta=0.70
     Davidson diagonalization with overlap
     ethr =  1.12E-06,  avg # of iterations =  3.0

     total cpu time spent up to now is       10.6 secs

     total energy              =     -95.10188699 Ry
     Harris-Foulkes estimate   =     -95.10196119 Ry
     estimated scf accuracy    <       0.00016895 Ry

     iteration #  3     ecut=    40.00 Ry     beta=0.70
     Davidson diagonalization with overlap
     ethr =  1.12E-06,  avg # of iterations =  1.5

     total cpu time spent up to now is       11.6 secs

     total energy              =     -95.10188842 Ry
     Harris-Foulkes estimate   =     -95.10189813 Ry
     estimated scf accuracy    <       0.00003276 Ry

     iteration #  4     ecut=    40.00 Ry     beta=0.70
     Davidson diagonalization with overlap
     ethr =  3.64E-07,  avg # of iterations =  1.0

     total cpu time spent up to now is       12.5 secs

     total energy              =     -95.10188609 Ry
     Harris-Foulkes estimate   =     -95.10188970 Ry
     estimated scf accuracy    <       0.00001271 Ry

     iteration #  5     ecut=    40.00 Ry     beta=0.70
     Davidson diagonalization with overlap
     ethr =  1.41E-07,  avg # of iterations =  1.0

     total cpu time spent up to now is       13.5 secs

     total energy              =     -95.10188477 Ry
     Harris-Foulkes estimate   =     -95.10188642 Ry
     estimated scf accuracy    <       0.00000561 Ry

     iteration #  6     ecut=    40.00 Ry     beta=0.70
     Davidson diagonalization with overlap
     ethr =  6.23E-08,  avg # of iterations =  1.0

     total cpu time spent up to now is       14.4 secs

     total energy              =     -95.10188377 Ry
     Harris-Foulkes estimate   =     -95.10188491 Ry
     estimated scf accuracy    <       0.00000238 Ry

     iteration #  7     ecut=    40.00 Ry     beta=0.70
     Davidson diagonalization with overlap
     ethr =  2.65E-08,  avg # of iterations =  1.0

     total cpu time spent up to now is       15.3 secs

     total energy              =     -95.10188374 Ry
     Harris-Foulkes estimate   =     -95.10188396 Ry
     estimated scf accuracy    <       0.00000034 Ry

     iteration #  8     ecut=    40.00 Ry     beta=0.70
     Davidson diagonalization with overlap
     ethr =  3.79E-09,  avg # of iterations =  2.0

     total cpu time spent up to now is       16.4 secs

     End of self-consistent calculation

     Number of k-points >= 100: set verbosity='high' to print the bands.

     the Fermi energy is     2.7991 ev

!    total energy              =     -95.10188381 Ry
     Harris-Foulkes estimate   =     -95.10188381 Ry
     estimated scf accuracy    <          1.9E-09 Ry

     The total energy is the sum of the following terms:

     one-electron contribution =     -82.49518187 Ry
     hartree contribution      =      42.05471348 Ry
     xc contribution           =     -14.30325376 Ry
     ewald contribution        =     -40.35805825 Ry
     smearing contrib. (-TS)   =      -0.00010342 Ry

     convergence has been achieved in   8 iterations

     Forces acting on atoms (cartesian axes, Ry/au):

     atom    1 type  1   force =     0.00000000    0.00000000    0.00000000

     Total force =     0.000000     Total SCF correction =     0.000000


     Computing stress (Cartesian axis) and pressure

          total   stress  (Ry/bohr**3)                   (kbar)     P=   26.49
   0.00018010   0.00000000  -0.00000000         26.49      0.00     -0.00
   0.00000000   0.00018010   0.00000000          0.00     26.49      0.00
  -0.00000000   0.00000000   0.00018010         -0.00      0.00     26.49


     number of scf cycles    =   2
     number of bfgs steps    =   1

     enthalpy old            =     -95.0621421797 Ry
     enthalpy new            =     -95.0621502345 Ry

     CASE: enthalpy_new < enthalpy_old


     WARNING: bfgs curvature condition failed, Theta= 0.833
     new trust radius        =       0.0025972268 bohr
     new conv_thr            =            1.0E-10 Ry

     new unit-cell volume =    194.29039 a.u.^3 (    28.79086 Ang^3 )
     density =      1.32597 g/cm^3

CELL_PARAMETERS (alat=  7.30859595)
   0.499225186   0.499225186   0.499225186
  -0.499225186   0.499225186   0.499225186
  -0.499225186  -0.499225186   0.499225186

ATOMIC_POSITIONS (crystal)
Na       0.000000000   0.000000000   0.000000000



     Writing output data file na.bcc.save
     NEW-OLD atomic charge density approx. for the potential
     extrapolated charge    8.97485, renormalised to    9.00000

     total cpu time spent up to now is       17.5 secs

     per-process dynamical memory:    25.5 Mb

     Self-consistent Calculation

     iteration #  1     ecut=    40.00 Ry     beta=0.70
     Davidson diagonalization with overlap
     ethr =  1.00E-06,  avg # of iterations =  2.0

     total cpu time spent up to now is       18.8 secs

     total energy              =     -95.10137845 Ry
     Harris-Foulkes estimate   =     -95.28465504 Ry
     estimated scf accuracy    <       0.00022759 Ry

     iteration #  2     ecut=    40.00 Ry     beta=0.70
     Davidson diagonalization with overlap
     ethr =  2.53E-06,  avg # of iterations =  2.9

     total cpu time spent up to now is       20.2 secs

     total energy              =     -95.10179034 Ry
     Harris-Foulkes estimate   =     -95.10195724 Ry
     estimated scf accuracy    <       0.00037992 Ry

     iteration #  3     ecut=    40.00 Ry     beta=0.70
     Davidson diagonalization with overlap
     ethr =  2.53E-06,  avg # of iterations =  1.6

     total cpu time spent up to now is       21.2 secs

     total energy              =     -95.10179374 Ry
     Harris-Foulkes estimate   =     -95.10181559 Ry
     estimated scf accuracy    <       0.00007304 Ry

     iteration #  4     ecut=    40.00 Ry     beta=0.70
     Davidson diagonalization with overlap
     ethr =  8.12E-07,  avg # of iterations =  1.0

     total cpu time spent up to now is       22.1 secs

     total energy              =     -95.10178736 Ry
     Harris-Foulkes estimate   =     -95.10179642 Ry
     estimated scf accuracy    <       0.00002838 Ry

     iteration #  5     ecut=    40.00 Ry     beta=0.70
     Davidson diagonalization with overlap
     ethr =  3.15E-07,  avg # of iterations =  1.0

     total cpu time spent up to now is       23.0 secs

     total energy              =     -95.10178462 Ry
     Harris-Foulkes estimate   =     -95.10178830 Ry
     estimated scf accuracy    <       0.00001072 Ry

     iteration #  6     ecut=    40.00 Ry     beta=0.70
     Davidson diagonalization with overlap
     ethr =  1.19E-07,  avg # of iterations =  1.0

     total cpu time spent up to now is       23.9 secs

     total energy              =     -95.10178303 Ry
     Harris-Foulkes estimate   =     -95.10178502 Ry
     estimated scf accuracy    <       0.00000365 Ry

     iteration #  7     ecut=    40.00 Ry     beta=0.70
     Davidson diagonalization with overlap
     ethr =  4.06E-08,  avg # of iterations =  1.9

     total cpu time spent up to now is       24.9 secs

     total energy              =     -95.10178329 Ry
     Harris-Foulkes estimate   =     -95.10178345 Ry
     estimated scf accuracy    <       0.00000025 Ry

     iteration #  8     ecut=    40.00 Ry     beta=0.70
     Davidson diagonalization with overlap
     ethr =  2.81E-09,  avg # of iterations =  2.0

     total cpu time spent up to now is       26.0 secs

     total energy              =     -95.10178335 Ry
     Harris-Foulkes estimate   =     -95.10178335 Ry
     estimated scf accuracy    <          2.4E-09 Ry

     iteration #  9     ecut=    40.00 Ry     beta=0.70
     Davidson diagonalization with overlap
     ethr =  2.72E-11,  avg # of iterations =  1.4

     total cpu time spent up to now is       27.0 secs

     total energy              =     -95.10178335 Ry
     Harris-Foulkes estimate   =     -95.10178335 Ry
     estimated scf accuracy    <          1.7E-09 Ry

     iteration # 10     ecut=    40.00 Ry     beta=0.70
     Davidson diagonalization with overlap
     ethr =  1.85E-11,  avg # of iterations =  1.0

     total cpu time spent up to now is       27.9 secs

     total energy              =     -95.10178334 Ry
     Harris-Foulkes estimate   =     -95.10178335 Ry
     estimated scf accuracy    <          1.6E-09 Ry

     iteration # 11     ecut=    40.00 Ry     beta=0.70
     Davidson diagonalization with overlap
     ethr =  1.80E-11,  avg # of iterations =  2.0

     total cpu time spent up to now is       29.0 secs

     End of self-consistent calculation

     Number of k-points >= 100: set verbosity='high' to print the bands.

     the Fermi energy is     2.8144 ev

!    total energy              =     -95.10178335 Ry
     Harris-Foulkes estimate   =     -95.10178335 Ry
     estimated scf accuracy    <          3.4E-11 Ry

     The total energy is the sum of the following terms:

     one-electron contribution =     -82.42996598 Ry
     hartree contribution      =      42.02765576 Ry
     xc contribution           =     -14.30372916 Ry
     ewald contribution        =     -40.39564046 Ry
     smearing contrib. (-TS)   =      -0.00010350 Ry

     convergence has been achieved in  11 iterations

     Forces acting on atoms (cartesian axes, Ry/au):

     atom    1 type  1   force =     0.00000000    0.00000000    0.00000000

     Total force =     0.000000     Total SCF correction =     0.000000


     Computing stress (Cartesian axis) and pressure

          total   stress  (Ry/bohr**3)                   (kbar)     P=   27.53
   0.00018718   0.00000000  -0.00000000         27.53      0.00     -0.00
   0.00000000   0.00018718   0.00000000          0.00     27.53      0.00
  -0.00000000   0.00000000   0.00018718         -0.00      0.00     27.53


     number of scf cycles    =   3
     number of bfgs steps    =   2

     enthalpy old            =     -95.0621502345 Ry
     enthalpy new            =     -95.0621605625 Ry

     CASE: enthalpy_new < enthalpy_old

     new trust radius        =       0.0038940275 bohr
     new conv_thr            =            1.0E-10 Ry

     new unit-cell volume =    193.47735 a.u.^3 (    28.67039 Ang^3 )
     density =      1.33154 g/cm^3

CELL_PARAMETERS (alat=  7.30859595)
   0.498527854   0.498527854   0.498527854
  -0.498527854   0.498527854   0.498527854
  -0.498527854  -0.498527854   0.498527854

ATOMIC_POSITIONS (crystal)
Na       0.000000000   0.000000000   0.000000000



     Writing output data file na.bcc.save
     NEW-OLD atomic charge density approx. for the potential
     extrapolated charge    8.96221, renormalised to    9.00000

     total cpu time spent up to now is       30.1 secs

     per-process dynamical memory:    25.5 Mb

     Self-consistent Calculation

     iteration #  1     ecut=    40.00 Ry     beta=0.70
     Davidson diagonalization with overlap
     ethr =  1.00E-06,  avg # of iterations =  2.1

     total cpu time spent up to now is       31.4 secs

     total energy              =     -95.10072148 Ry
     Harris-Foulkes estimate   =     -95.37604107 Ry
     estimated scf accuracy    <       0.00050884 Ry

     iteration #  2     ecut=    40.00 Ry     beta=0.70
     Davidson diagonalization with overlap
     ethr =  5.65E-06,  avg # of iterations =  2.9

     total cpu time spent up to now is       32.8 secs

     total energy              =     -95.10164477 Ry
     Harris-Foulkes estimate   =     -95.10201904 Ry
     estimated scf accuracy    <       0.00085272 Ry

     iteration #  3     ecut=    40.00 Ry     beta=0.70
     Davidson diagonalization with overlap
     ethr =  5.65E-06,  avg # of iterations =  1.6

     total cpu time spent up to now is       33.8 secs

     total energy              =     -95.10165234 Ry
     Harris-Foulkes estimate   =     -95.10170150 Ry
     estimated scf accuracy    <       0.00016385 Ry

     iteration #  4     ecut=    40.00 Ry     beta=0.70
     Davidson diagonalization with overlap
     ethr =  1.82E-06,  avg # of iterations =  1.0

     total cpu time spent up to now is       34.7 secs

     total energy              =     -95.10163792 Ry
     Harris-Foulkes estimate   =     -95.10165834 Ry
     estimated scf accuracy    <       0.00006347 Ry

     iteration #  5     ecut=    40.00 Ry     beta=0.70
     Davidson diagonalization with overlap
     ethr =  7.05E-07,  avg # of iterations =  1.0

     total cpu time spent up to now is       35.6 secs

     total energy              =     -95.10163213 Ry
     Harris-Foulkes estimate   =     -95.10164006 Ry
     estimated scf accuracy    <       0.00002364 Ry

     iteration #  6     ecut=    40.00 Ry     beta=0.70
     Davidson diagonalization with overlap
     ethr =  2.63E-07,  avg # of iterations =  1.0

     total cpu time spent up to now is       36.6 secs

     total energy              =     -95.10162838 Ry
     Harris-Foulkes estimate   =     -95.10163298 Ry
     estimated scf accuracy    <       0.00000833 Ry

     iteration #  7     ecut=    40.00 Ry     beta=0.70
     Davidson diagonalization with overlap
     ethr =  9.25E-08,  avg # of iterations =  1.9

     total cpu time spent up to now is       37.6 secs

     total energy              =     -95.10162902 Ry
     Harris-Foulkes estimate   =     -95.10162936 Ry
     estimated scf accuracy    <       0.00000054 Ry

     iteration #  8     ecut=    40.00 Ry     beta=0.70
     Davidson diagonalization with overlap
     ethr =  6.01E-09,  avg # of iterations =  2.0

     total cpu time spent up to now is       38.7 secs

     total energy              =     -95.10162915 Ry
     Harris-Foulkes estimate   =     -95.10162915 Ry
     estimated scf accuracy    <          3.7E-09 Ry

     iteration #  9     ecut=    40.00 Ry     beta=0.70
     Davidson diagonalization with overlap
     ethr =  4.13E-11,  avg # of iterations =  1.5

     total cpu time spent up to now is       39.6 secs

     total energy              =     -95.10162915 Ry
     Harris-Foulkes estimate   =     -95.10162915 Ry
     estimated scf accuracy    <          3.3E-09 Ry

     iteration # 10     ecut=    40.00 Ry     beta=0.70
     Davidson diagonalization with overlap
     ethr =  3.71E-11,  avg # of iterations =  1.0

     total cpu time spent up to now is       40.6 secs

     total energy              =     -95.10162914 Ry
     Harris-Foulkes estimate   =     -95.10162915 Ry
     estimated scf accuracy    <          2.7E-09 Ry

     iteration # 11     ecut=    40.00 Ry     beta=0.70
     Davidson diagonalization with overlap
     ethr =  3.00E-11,  avg # of iterations =  2.0

     total cpu time spent up to now is       41.7 secs

     total energy              =     -95.10162914 Ry
     Harris-Foulkes estimate   =     -95.10162914 Ry
     estimated scf accuracy    <          2.6E-10 Ry

     iteration # 12     ecut=    40.00 Ry     beta=0.70
     Davidson diagonalization with overlap
     ethr =  2.90E-12,  avg # of iterations =  2.0

     total cpu time spent up to now is       42.8 secs

     total energy              =     -95.10162914 Ry
     Harris-Foulkes estimate   =     -95.10162914 Ry
     estimated scf accuracy    <          1.4E-10 Ry

     iteration # 13     ecut=    40.00 Ry     beta=0.70
     Davidson diagonalization with overlap
     ethr =  1.60E-12,  avg # of iterations =  1.0

     total cpu time spent up to now is       43.7 secs

     total energy              =     -95.10162914 Ry
     Harris-Foulkes estimate   =     -95.10162914 Ry
     estimated scf accuracy    <          3.5E-10 Ry

     iteration # 14     ecut=    40.00 Ry     beta=0.70
     Davidson diagonalization with overlap
     ethr =  1.60E-12,  avg # of iterations =  1.0

     total cpu time spent up to now is       44.6 secs

     total energy              =     -95.10162914 Ry
     Harris-Foulkes estimate   =     -95.10162914 Ry
     estimated scf accuracy    <          4.9E-10 Ry

     iteration # 15     ecut=    40.00 Ry     beta=0.70
     Davidson diagonalization with overlap
     ethr =  1.60E-12,  avg # of iterations =  2.0

     total cpu time spent up to now is       45.8 secs

     End of self-consistent calculation

     Number of k-points >= 100: set verbosity='high' to print the bands.

     the Fermi energy is     2.8374 ev

!    total energy              =     -95.10162914 Ry
     Harris-Foulkes estimate   =     -95.10162914 Ry
     estimated scf accuracy    <          1.5E-11 Ry

     The total energy is the sum of the following terms:

     one-electron contribution =     -82.33158637 Ry
     hartree contribution      =      41.98657383 Ry
     xc contribution           =     -14.30436778 Ry
     ewald contribution        =     -40.45214521 Ry
     smearing contrib. (-TS)   =      -0.00010361 Ry

     convergence has been achieved in  15 iterations

     Forces acting on atoms (cartesian axes, Ry/au):

     atom    1 type  1   force =     0.00000000    0.00000000    0.00000000

     Total force =     0.000000     Total SCF correction =     0.000000


     Computing stress (Cartesian axis) and pressure

          total   stress  (Ry/bohr**3)                   (kbar)     P=   28.32
   0.00019255   0.00000000  -0.00000000         28.32      0.00     -0.00
   0.00000000   0.00019255   0.00000000          0.00     28.32      0.00
  -0.00000000   0.00000000   0.00019255         -0.00      0.00     28.32


     number of scf cycles    =   4
     number of bfgs steps    =   3

     enthalpy old            =     -95.0621605625 Ry
     enthalpy new            =     -95.0621721684 Ry

     CASE: enthalpy_new < enthalpy_old

     new trust radius        =       0.0058369604 bohr
     new conv_thr            =            1.0E-10 Ry

     new unit-cell volume =    192.26206 a.u.^3 (    28.49030 Ang^3 )
     density =      1.33996 g/cm^3

CELL_PARAMETERS (alat=  7.30859595)
   0.497481855   0.497481855   0.497481855
  -0.497481855   0.497481855   0.497481855
  -0.497481855  -0.497481855   0.497481855

ATOMIC_POSITIONS (crystal)
Na       0.000000000   0.000000000   0.000000000



     Writing output data file na.bcc.save
     NEW-OLD atomic charge density approx. for the potential
     extrapolated charge    8.94315, renormalised to    9.00000

     total cpu time spent up to now is       46.9 secs

     per-process dynamical memory:    25.5 Mb

     Self-consistent Calculation

     iteration #  1     ecut=    40.00 Ry     beta=0.70
     Davidson diagonalization with overlap
     ethr =  1.00E-06,  avg # of iterations =  2.5

     total cpu time spent up to now is       48.2 secs

     total energy              =     -95.09935142 Ry
     Harris-Foulkes estimate   =     -95.51323913 Ry
     estimated scf accuracy    <       0.00114373 Ry

     iteration #  2     ecut=    40.00 Ry     beta=0.70
     Davidson diagonalization with overlap
     ethr =  1.27E-05,  avg # of iterations =  2.9

     total cpu time spent up to now is       49.6 secs

     total energy              =     -95.10142346 Ry
     Harris-Foulkes estimate   =     -95.10226427 Ry
     estimated scf accuracy    <       0.00191531 Ry

     iteration #  3     ecut=    40.00 Ry     beta=0.70
     Davidson diagonalization with overlap
     ethr =  1.27E-05,  avg # of iterations =  1.6

     total cpu time spent up to now is       50.6 secs

     total energy              =     -95.10144227 Ry
     Harris-Foulkes estimate   =     -95.10155147 Ry
     estimated scf accuracy    <       0.00036624 Ry

     iteration #  4     ecut=    40.00 Ry     beta=0.70
     Davidson diagonalization with overlap
     ethr =  4.07E-06,  avg # of iterations =  1.0

     total cpu time spent up to now is       51.5 secs

     total energy              =     -95.10140948 Ry
     Harris-Foulkes estimate   =     -95.10145556 Ry
     estimated scf accuracy    <       0.00014286 Ry

     iteration #  5     ecut=    40.00 Ry     beta=0.70
     Davidson diagonalization with overlap
     ethr =  1.59E-06,  avg # of iterations =  1.0

     total cpu time spent up to now is       52.5 secs

     total energy              =     -95.10139692 Ry
     Harris-Foulkes estimate   =     -95.10141432 Ry
     estimated scf accuracy    <       0.00005298 Ry

     iteration #  6     ecut=    40.00 Ry     beta=0.70
     Davidson diagonalization with overlap
     ethr =  5.89E-07,  avg # of iterations =  1.0

     total cpu time spent up to now is       53.4 secs

     total energy              =     -95.10138816 Ry
     Harris-Foulkes estimate   =     -95.10139874 Ry
     estimated scf accuracy    <       0.00001922 Ry

     iteration #  7     ecut=    40.00 Ry     beta=0.70
     Davidson diagonalization with overlap
     ethr =  2.14E-07,  avg # of iterations =  1.8

     total cpu time spent up to now is       54.4 secs

     total energy              =     -95.10138959 Ry
     Harris-Foulkes estimate   =     -95.10139040 Ry
     estimated scf accuracy    <       0.00000128 Ry

     iteration #  8     ecut=    40.00 Ry     beta=0.70
     Davidson diagonalization with overlap
     ethr =  1.42E-08,  avg # of iterations =  2.0

     total cpu time spent up to now is       55.5 secs

     total energy              =     -95.10138989 Ry
     Harris-Foulkes estimate   =     -95.10138989 Ry
     estimated scf accuracy    <          7.3E-09 Ry

     iteration #  9     ecut=    40.00 Ry     beta=0.70
     Davidson diagonalization with overlap
     ethr =  8.14E-11,  avg # of iterations =  1.5

     total cpu time spent up to now is       56.4 secs

     total energy              =     -95.10138989 Ry
     Harris-Foulkes estimate   =     -95.10138989 Ry
     estimated scf accuracy    <          5.0E-09 Ry

     iteration # 10     ecut=    40.00 Ry     beta=0.70
     Davidson diagonalization with overlap
     ethr =  5.58E-11,  avg # of iterations =  1.0

     total cpu time spent up to now is       57.4 secs

     total energy              =     -95.10138988 Ry
     Harris-Foulkes estimate   =     -95.10138989 Ry
     estimated scf accuracy    <          5.7E-09 Ry

     iteration # 11     ecut=    40.00 Ry     beta=0.70
     Davidson diagonalization with overlap
     ethr =  5.58E-11,  avg # of iterations =  2.0

     total cpu time spent up to now is       58.5 secs

     total energy              =     -95.10138989 Ry
     Harris-Foulkes estimate   =     -95.10138989 Ry
     estimated scf accuracy    <          4.4E-10 Ry

     iteration # 12     ecut=    40.00 Ry     beta=0.70
     Davidson diagonalization with overlap
     ethr =  4.91E-12,  avg # of iterations =  2.0

     total cpu time spent up to now is       59.6 secs

     total energy              =     -95.10138989 Ry
     Harris-Foulkes estimate   =     -95.10138989 Ry
     estimated scf accuracy    <          3.4E-09 Ry

     iteration # 13     ecut=    40.00 Ry     beta=0.70
     Davidson diagonalization with overlap
     ethr =  4.91E-12,  avg # of iterations =  2.0

     total cpu time spent up to now is       60.7 secs

     End of self-consistent calculation

     Number of k-points >= 100: set verbosity='high' to print the bands.

     the Fermi energy is     2.8721 ev

!    total energy              =     -95.10138989 Ry
     Harris-Foulkes estimate   =     -95.10138989 Ry
     estimated scf accuracy    <          9.7E-11 Ry

     The total energy is the sum of the following terms:

     one-electron contribution =     -82.18356854 Ry
     hartree contribution      =      41.92482234 Ry
     xc contribution           =     -14.30534056 Ry
     ewald contribution        =     -40.53719934 Ry
     smearing contrib. (-TS)   =      -0.00010378 Ry

     convergence has been achieved in  13 iterations

     Forces acting on atoms (cartesian axes, Ry/au):

     atom    1 type  1   force =     0.00000000    0.00000000    0.00000000

     Total force =     0.000000     Total SCF correction =     0.000000


     Computing stress (Cartesian axis) and pressure

          total   stress  (Ry/bohr**3)                   (kbar)     P=   29.63
   0.00020141   0.00000000  -0.00000000         29.63      0.00     -0.00
   0.00000000   0.00020141   0.00000000          0.00     29.63      0.00
  -0.00000000   0.00000000   0.00020141         -0.00      0.00     29.63


     bfgs converged in   5 scf cycles and   4 bfgs steps
     (criteria: energy <  1.0E-04 Ry, force <  1.0E-03Ry/Bohr, cell <  5.0E-01kbar)

     End of BFGS Geometry Optimization

     Final enthalpy =     -95.0621807517 Ry
Begin final coordinates
     new unit-cell volume =    192.26206 a.u.^3 (    28.49030 Ang^3 )
     density =      1.33996 g/cm^3

CELL_PARAMETERS (alat=  7.30859595)
   0.497481855   0.497481855   0.497481855
  -0.497481855   0.497481855   0.497481855
  -0.497481855  -0.497481855   0.497481855

ATOMIC_POSITIONS (crystal)
Na       0.000000000   0.000000000   0.000000000
End final coordinates



     A final scf calculation at the relaxed structure.
     The G-vectors are recalculated for the final unit cell
     Results may differ from those at the preceding step.

     Parallelization info
     --------------------
     sticks:   dense  smooth     PW     G-vecs:    dense   smooth      PW
     Min         236     118     38                 4651     1650     301
     Max         237     120     39                 4652     1651     302
     Sum         945     475    155                18605     6603    1205



     bravais-lattice index     =            3
     lattice parameter (alat)  =       7.3086  a.u.
     unit-cell volume          =     192.2621 (a.u.)^3
     number of atoms/cell      =            1
     number of atomic types    =            1
     number of electrons       =         9.00
     number of Kohn-Sham states=            9
     kinetic-energy cutoff     =      40.0000  Ry
     charge density cutoff     =     320.0000  Ry
     convergence threshold     =      1.0E-10
     mixing beta               =       0.7000
     number of iterations used =            8  plain     mixing
     Exchange-correlation      = SLA  PW   PBE  PBE ( 1  4  3  4 0 0)

     celldm(1)=   7.308596  celldm(2)=   0.000000  celldm(3)=   0.000000
     celldm(4)=   0.000000  celldm(5)=   0.000000  celldm(6)=   0.000000

     crystal axes: (cart. coord. in units of alat)
               a(1) = (   0.497482   0.497482   0.497482 )  
               a(2) = (  -0.497482   0.497482   0.497482 )  
               a(3) = (  -0.497482  -0.497482   0.497482 )  

     reciprocal axes: (cart. coord. in units 2 pi/alat)
               b(1) = (  1.005062  0.000000  1.005062 )  
               b(2) = ( -1.005062  1.005062  0.000000 )  
               b(3) = (  0.000000 -1.005062  1.005062 )  


     PseudoPot. # 1 for Na read from file:
     /home/s1333534/quantum_espresso/qe-6.1/pseudo/Na_pbe_v1.uspp.F.UPF
     MD5 check sum: 76a99c7e9422403d3e93cbc85ab7bccb
     Pseudo is Ultrasoft, Zval =  9.0
     Generated by new atomic code, or converted to UPF format
     Using radial grid of  819 points,  5 beta functions with: 
                l(1) =   0
                l(2) =   0
                l(3) =   1
                l(4) =   1
                l(5) =   2
     Q(r) pseudized with  8 coefficients,  rinner =    1.250   1.250   1.250
                                                       1.250   1.250

     atomic species   valence    mass     pseudopotential
        Na             9.00    22.99000     Na( 1.00)

     48 Sym. Ops., with inversion, found



   Cartesian axes

     site n.     atom                  positions (alat units)
         1           Na  tau(   1) = (   0.0000000   0.0000000   0.0000000  )

     number of k points=   250  Marzari-Vanderbilt smearing, width (Ry)=  0.0200

     Number of k-points >= 100: set verbosity='high' to print them.

     Dense  grid:    18605 G-vectors     FFT dimensions: (  36,  36,  36)

     Smooth grid:     6603 G-vectors     FFT dimensions: (  25,  25,  25)

     Estimated max dynamical RAM per process >      10.01MB

     Estimated total allocated dynamical RAM >      40.06MB

     Initial potential from superposition of free atoms

     starting charge    8.99371, renormalised to    9.00000
     Starting wfc are    5 randomized atomic wfcs +    4 random wfc

     Writing output data file na.bcc.save

     total cpu time spent up to now is       62.2 secs

     per-process dynamical memory:    21.6 Mb

     Self-consistent Calculation

     iteration #  1     ecut=    40.00 Ry     beta=0.70
     Davidson diagonalization with overlap
     c_bands:  1 eigenvalues not converged
     c_bands:  1 eigenvalues not converged
     ethr =  1.00E-06,  avg # of iterations = 11.2

     total cpu time spent up to now is       65.3 secs

     total energy              =     -95.10116747 Ry
     Harris-Foulkes estimate   =     -95.10152515 Ry
     estimated scf accuracy    <       0.00108655 Ry

     iteration #  2     ecut=    40.00 Ry     beta=0.70
     Davidson diagonalization with overlap
     ethr =  1.21E-05,  avg # of iterations =  2.0

     total cpu time spent up to now is       66.3 secs

     total energy              =     -95.10131024 Ry
     Harris-Foulkes estimate   =     -95.10134248 Ry
     estimated scf accuracy    <       0.00012550 Ry

     iteration #  3     ecut=    40.00 Ry     beta=0.70
     Davidson diagonalization with overlap
     ethr =  1.39E-06,  avg # of iterations =  2.0

     total cpu time spent up to now is       67.4 secs

     total energy              =     -95.10132449 Ry
     Harris-Foulkes estimate   =     -95.10132579 Ry
     estimated scf accuracy    <       0.00000767 Ry

     iteration #  4     ecut=    40.00 Ry     beta=0.70
     Davidson diagonalization with overlap
     ethr =  8.52E-08,  avg # of iterations =  1.0

     total cpu time spent up to now is       68.3 secs

     total energy              =     -95.10132515 Ry
     Harris-Foulkes estimate   =     -95.10132510 Ry
     estimated scf accuracy    <          9.6E-09 Ry

     iteration #  5     ecut=    40.00 Ry     beta=0.70
     Davidson diagonalization with overlap
     ethr =  1.07E-10,  avg # of iterations =  3.0

     total cpu time spent up to now is       69.5 secs

     total energy              =     -95.10132518 Ry
     Harris-Foulkes estimate   =     -95.10132518 Ry
     estimated scf accuracy    <          1.1E-09 Ry

     iteration #  6     ecut=    40.00 Ry     beta=0.70
     Davidson diagonalization with overlap
     ethr =  1.20E-11,  avg # of iterations =  1.5

     total cpu time spent up to now is       70.4 secs

     End of self-consistent calculation

     Number of k-points >= 100: set verbosity='high' to print the bands.

     the Fermi energy is     2.8720 ev

!    total energy              =     -95.10132518 Ry
     Harris-Foulkes estimate   =     -95.10132518 Ry
     estimated scf accuracy    <          2.6E-11 Ry

     The total energy is the sum of the following terms:

     one-electron contribution =     -82.18347014 Ry
     hartree contribution      =      41.92476578 Ry
     xc contribution           =     -14.30531769 Ry
     ewald contribution        =     -40.53719934 Ry
     smearing contrib. (-TS)   =      -0.00010378 Ry

     convergence has been achieved in   6 iterations

     Forces acting on atoms (cartesian axes, Ry/au):

     atom    1 type  1   force =     0.00000000    0.00000000    0.00000000

     Total force =     0.000000     Total SCF correction =     0.000000


     Computing stress (Cartesian axis) and pressure

          total   stress  (Ry/bohr**3)                   (kbar)     P=   29.34
   0.00019946   0.00000000  -0.00000000         29.34      0.00     -0.00
   0.00000000   0.00019946   0.00000000          0.00     29.34      0.00
  -0.00000000   0.00000000   0.00019946         -0.00      0.00     29.34


     Writing output data file na.bcc.save

     init_run     :      1.26s CPU      1.32s WALL (       2 calls)
     electrons    :     59.25s CPU     63.55s WALL (       6 calls)
     update_pot   :      0.72s CPU      0.72s WALL (       4 calls)
     forces       :      0.70s CPU      0.71s WALL (       6 calls)
     stress       :      3.31s CPU      3.31s WALL (       6 calls)

     Called by init_run:
     wfcinit      :      0.66s CPU      0.70s WALL (       2 calls)
     potinit      :      0.08s CPU      0.08s WALL (       2 calls)

     Called by electrons:
     c_bands      :     47.47s CPU     51.08s WALL (      58 calls)
     sum_band     :     10.42s CPU     11.09s WALL (      58 calls)
     v_of_rho     :      0.69s CPU      0.69s WALL (      63 calls)
     newd         :      0.69s CPU      0.70s WALL (      63 calls)
     mix_rho      :      0.05s CPU      0.05s WALL (      58 calls)

     Called by c_bands:
     init_us_2    :      3.16s CPU      2.93s WALL (   32500 calls)
     cegterg      :     44.49s CPU     48.12s WALL (   14500 calls)

     Called by sum_band:
     sum_band:bec :      0.02s CPU      0.05s WALL (   14500 calls)
     addusdens    :      0.85s CPU      0.85s WALL (      58 calls)

     Called by *egterg:
     h_psi        :     35.47s CPU     38.21s WALL (   42993 calls)
     s_psi        :      0.53s CPU      0.54s WALL (   42993 calls)
     g_psi        :      0.28s CPU      0.32s WALL (   27993 calls)
     cdiaghg      :      5.19s CPU      5.47s WALL (   41243 calls)

     Called by h_psi:
     h_psi:pot    :     35.30s CPU     37.98s WALL (   42993 calls)
     h_psi:calbec :      0.80s CPU      0.88s WALL (   42993 calls)
     vloc_psi     :     33.88s CPU     36.39s WALL (   42993 calls)
     add_vuspsi   :      0.55s CPU      0.60s WALL (   42993 calls)

     General routines
     calbec       :      1.29s CPU      1.46s WALL (   64993 calls)
     fft          :      0.35s CPU      0.36s WALL (    1040 calls)
     ffts         :      0.01s CPU      0.01s WALL (     121 calls)
     fftw         :     35.65s CPU     37.21s WALL (  766472 calls)
     interpolate  :      0.05s CPU      0.05s WALL (     121 calls)
     davcio       :      0.00s CPU      0.01s WALL (     500 calls)

     Parallel routines
     fft_scatter  :      7.93s CPU     10.45s WALL (  767633 calls)

     PWSCF        :  1m 6.77s CPU     1m11.19s WALL


   This run was terminated on:  16:58:10  20Dec2017            

=------------------------------------------------------------------------------=
   JOB DONE.
=------------------------------------------------------------------------------=
