
     Program PWSCF v.6.1 (svn rev. 13369) starts on 20Dec2017 at 17: 3:46 

     This program is part of the open-source Quantum ESPRESSO suite
     for quantum simulation of materials; please cite
         "P. Giannozzi et al., J. Phys.:Condens. Matter 21 395502 (2009);
          URL http://www.quantum-espresso.org", 
     in publications or presentations arising from this work. More details at
     http://www.quantum-espresso.org/quote

     Parallel version (MPI), running on     4 processors
     R & G space division:  proc/nbgrp/npool/nimage =       4
     Waiting for input...
     Reading input from standard input

     Current dimensions of program PWSCF are:
     Max number of different atomic species (ntypx) = 10
     Max number of k-points (npk) =  40000
     Max angular momentum in pseudopotentials (lmaxx) =  3

     Subspace diagonalization in iterative solution of the eigenvalue problem:
     a serial algorithm will be used


     Parallelization info
     --------------------
     sticks:   dense  smooth     PW     G-vecs:    dense   smooth      PW
     Min         202      99     32                 3644     1270     239
     Max         203     100     33                 3646     1273     242
     Sum         809     399    129                14579     5089     959



     bravais-lattice index     =            3
     lattice parameter (alat)  =       6.6860  a.u.
     unit-cell volume          =     149.4425 (a.u.)^3
     number of atoms/cell      =            1
     number of atomic types    =            1
     number of electrons       =         9.00
     number of Kohn-Sham states=            9
     kinetic-energy cutoff     =      40.0000  Ry
     charge density cutoff     =     320.0000  Ry
     convergence threshold     =      1.0E-08
     mixing beta               =       0.7000
     number of iterations used =            8  plain     mixing
     Exchange-correlation      = SLA  PW   PBE  PBE ( 1  4  3  4 0 0)
     nstep                     =           50


     celldm(1)=   6.686026  celldm(2)=   0.000000  celldm(3)=   0.000000
     celldm(4)=   0.000000  celldm(5)=   0.000000  celldm(6)=   0.000000

     crystal axes: (cart. coord. in units of alat)
               a(1) = (   0.500000   0.500000   0.500000 )  
               a(2) = (  -0.500000   0.500000   0.500000 )  
               a(3) = (  -0.500000  -0.500000   0.500000 )  

     reciprocal axes: (cart. coord. in units 2 pi/alat)
               b(1) = (  1.000000  0.000000  1.000000 )  
               b(2) = ( -1.000000  1.000000  0.000000 )  
               b(3) = (  0.000000 -1.000000  1.000000 )  


     PseudoPot. # 1 for Na read from file:
     /home/s1333534/quantum_espresso/qe-6.1/pseudo/Na_pbe_v1.uspp.F.UPF
     MD5 check sum: 76a99c7e9422403d3e93cbc85ab7bccb
     Pseudo is Ultrasoft, Zval =  9.0
     Generated by new atomic code, or converted to UPF format
     Using radial grid of  819 points,  5 beta functions with: 
                l(1) =   0
                l(2) =   0
                l(3) =   1
                l(4) =   1
                l(5) =   2
     Q(r) pseudized with  8 coefficients,  rinner =    1.250   1.250   1.250
                                                       1.250   1.250

     atomic species   valence    mass     pseudopotential
        Na             9.00    22.99000     Na( 1.00)

     48 Sym. Ops., with inversion, found



   Cartesian axes

     site n.     atom                  positions (alat units)
         1           Na  tau(   1) = (   0.0000000   0.0000000   0.0000000  )

     number of k points=   250  Marzari-Vanderbilt smearing, width (Ry)=  0.0200

     Number of k-points >= 100: set verbosity='high' to print them.

     Dense  grid:    14579 G-vectors     FFT dimensions: (  36,  36,  36)

     Smooth grid:     5089 G-vectors     FFT dimensions: (  24,  24,  24)

     Estimated max dynamical RAM per process >       7.97MB

     Estimated total allocated dynamical RAM >      31.89MB

     Initial potential from superposition of free atoms

     starting charge    8.99371, renormalised to    9.00000
     Starting wfc are    5 randomized atomic wfcs +    4 random wfc

     total cpu time spent up to now is        0.7 secs

     per-process dynamical memory:    14.3 Mb

     Self-consistent Calculation

     iteration #  1     ecut=    40.00 Ry     beta=0.70
     Davidson diagonalization with overlap
     ethr =  1.00E-02,  avg # of iterations =  5.5

     Threshold (ethr) on eigenvalues was too large:
     Diagonalizing with lowered threshold

     Davidson diagonalization with overlap
     ethr =  1.78E-05,  avg # of iterations =  3.1

     total cpu time spent up to now is        3.2 secs

     total energy              =     -95.08296830 Ry
     Harris-Foulkes estimate   =     -95.08355771 Ry
     estimated scf accuracy    <       0.00160410 Ry

     iteration #  2     ecut=    40.00 Ry     beta=0.70
     Davidson diagonalization with overlap
     ethr =  1.78E-05,  avg # of iterations =  2.0

     total cpu time spent up to now is        4.1 secs

     total energy              =     -95.08318725 Ry
     Harris-Foulkes estimate   =     -95.08323471 Ry
     estimated scf accuracy    <       0.00018391 Ry

     iteration #  3     ecut=    40.00 Ry     beta=0.70
     Davidson diagonalization with overlap
     ethr =  2.04E-06,  avg # of iterations =  2.1

     total cpu time spent up to now is        5.0 secs

     total energy              =     -95.08321045 Ry
     Harris-Foulkes estimate   =     -95.08321158 Ry
     estimated scf accuracy    <       0.00001079 Ry

     iteration #  4     ecut=    40.00 Ry     beta=0.70
     Davidson diagonalization with overlap
     ethr =  1.20E-07,  avg # of iterations =  1.0

     total cpu time spent up to now is        5.7 secs

     total energy              =     -95.08321138 Ry
     Harris-Foulkes estimate   =     -95.08321132 Ry
     estimated scf accuracy    <       0.00000001 Ry

     iteration #  5     ecut=    40.00 Ry     beta=0.70
     Davidson diagonalization with overlap
     ethr =  1.65E-10,  avg # of iterations =  3.0

     total cpu time spent up to now is        6.8 secs

     End of self-consistent calculation

     Number of k-points >= 100: set verbosity='high' to print the bands.

     the Fermi energy is     4.4771 ev

!    total energy              =     -95.08321142 Ry
     Harris-Foulkes estimate   =     -95.08321141 Ry
     estimated scf accuracy    <          2.0E-09 Ry

     The total energy is the sum of the following terms:

     one-electron contribution =     -76.02983095 Ry
     hartree contribution      =      39.38272856 Ry
     xc contribution           =     -14.34734625 Ry
     ewald contribution        =     -44.08865831 Ry
     smearing contrib. (-TS)   =      -0.00010447 Ry

     convergence has been achieved in   5 iterations

     Forces acting on atoms (cartesian axes, Ry/au):

     atom    1 type  1   force =     0.00000000    0.00000000    0.00000000

     Total force =     0.000000     Total SCF correction =     0.000000


     Computing stress (Cartesian axis) and pressure

          total   stress  (Ry/bohr**3)                   (kbar)     P=   98.92
   0.00067243   0.00000000  -0.00000000         98.92      0.00     -0.00
   0.00000000   0.00067243   0.00000000          0.00     98.92      0.00
  -0.00000000   0.00000000   0.00067243         -0.00      0.00     98.92


     BFGS Geometry Optimization

     number of scf cycles    =   1
     number of bfgs steps    =   0

     enthalpy new            =     -94.9816224457 Ry

     new trust radius        =       0.0004498391 bohr
     new conv_thr            =       0.0000000100 Ry

     new unit-cell volume =    149.36004 a.u.^3 (    22.13287 Ang^3 )
     density =      1.72485 g/cm^3

CELL_PARAMETERS (alat=  6.68602586)
   0.499908006   0.499908006   0.499908006
  -0.499908006   0.499908006   0.499908006
  -0.499908006  -0.499908006   0.499908006

ATOMIC_POSITIONS (crystal)
Na       0.000000000   0.000000000   0.000000000



     Writing output data file na.bcc.save
     NEW-OLD atomic charge density approx. for the potential
     extrapolated charge    8.99503, renormalised to    9.00000

     total cpu time spent up to now is        7.7 secs

     per-process dynamical memory:    21.3 Mb

     Self-consistent Calculation

     iteration #  1     ecut=    40.00 Ry     beta=0.70
     Davidson diagonalization with overlap
     ethr =  1.00E-06,  avg # of iterations =  2.1

     Threshold (ethr) on eigenvalues was too large:
     Diagonalizing with lowered threshold

     Davidson diagonalization with overlap
     ethr =  9.70E-08,  avg # of iterations =  1.0

     total cpu time spent up to now is        9.5 secs

     total energy              =     -95.08314038 Ry
     Harris-Foulkes estimate   =     -95.11632264 Ry
     estimated scf accuracy    <       0.00000874 Ry

     iteration #  2     ecut=    40.00 Ry     beta=0.70
     Davidson diagonalization with overlap
     ethr =  9.71E-08,  avg # of iterations =  2.9

     total cpu time spent up to now is       10.6 secs

     total energy              =     -95.08315611 Ry
     Harris-Foulkes estimate   =     -95.08316250 Ry
     estimated scf accuracy    <       0.00001454 Ry

     iteration #  3     ecut=    40.00 Ry     beta=0.70
     Davidson diagonalization with overlap
     ethr =  9.71E-08,  avg # of iterations =  1.4

     total cpu time spent up to now is       11.4 secs

     total energy              =     -95.08315640 Ry
     Harris-Foulkes estimate   =     -95.08315707 Ry
     estimated scf accuracy    <       0.00000281 Ry

     iteration #  4     ecut=    40.00 Ry     beta=0.70
     Davidson diagonalization with overlap
     ethr =  3.13E-08,  avg # of iterations =  1.0

     total cpu time spent up to now is       12.1 secs

     total energy              =     -95.08315615 Ry
     Harris-Foulkes estimate   =     -95.08315648 Ry
     estimated scf accuracy    <       0.00000137 Ry

     iteration #  5     ecut=    40.00 Ry     beta=0.70
     Davidson diagonalization with overlap
     ethr =  1.52E-08,  avg # of iterations =  1.0

     total cpu time spent up to now is       12.9 secs

     total energy              =     -95.08315589 Ry
     Harris-Foulkes estimate   =     -95.08315618 Ry
     estimated scf accuracy    <       0.00000073 Ry

     iteration #  6     ecut=    40.00 Ry     beta=0.70
     Davidson diagonalization with overlap
     ethr =  8.07E-09,  avg # of iterations =  1.0

     total cpu time spent up to now is       13.7 secs

     total energy              =     -95.08315583 Ry
     Harris-Foulkes estimate   =     -95.08315593 Ry
     estimated scf accuracy    <       0.00000019 Ry

     iteration #  7     ecut=    40.00 Ry     beta=0.70
     Davidson diagonalization with overlap
     ethr =  2.10E-09,  avg # of iterations =  1.2

     total cpu time spent up to now is       14.4 secs

     total energy              =     -95.08315583 Ry
     Harris-Foulkes estimate   =     -95.08315585 Ry
     estimated scf accuracy    <       0.00000003 Ry

     iteration #  8     ecut=    40.00 Ry     beta=0.70
     Davidson diagonalization with overlap
     ethr =  2.82E-10,  avg # of iterations =  2.0

     total cpu time spent up to now is       15.4 secs

     End of self-consistent calculation

     Number of k-points >= 100: set verbosity='high' to print the bands.

     the Fermi energy is     4.4811 ev

!    total energy              =     -95.08315584 Ry
     Harris-Foulkes estimate   =     -95.08315584 Ry
     estimated scf accuracy    <          6.9E-11 Ry

     The total energy is the sum of the following terms:

     one-electron contribution =     -76.01587119 Ry
     hartree contribution      =      39.37704703 Ry
     xc contribution           =     -14.34745562 Ry
     ewald contribution        =     -44.09677160 Ry
     smearing contrib. (-TS)   =      -0.00010446 Ry

     convergence has been achieved in   8 iterations

     Forces acting on atoms (cartesian axes, Ry/au):

     atom    1 type  1   force =     0.00000000    0.00000000    0.00000000

     Total force =     0.000000     Total SCF correction =     0.000000


     Computing stress (Cartesian axis) and pressure

          total   stress  (Ry/bohr**3)                   (kbar)     P=   99.15
   0.00067402   0.00000000   0.00000000         99.15      0.00      0.00
  -0.00000000   0.00067402  -0.00000000         -0.00     99.15     -0.00
   0.00000000  -0.00000000   0.00067402          0.00     -0.00     99.15


     number of scf cycles    =   2
     number of bfgs steps    =   1

     enthalpy old            =     -94.9816224457 Ry
     enthalpy new            =     -94.9816229316 Ry

     CASE: enthalpy_new < enthalpy_old

     new trust radius        =       0.0006746965 bohr
     new conv_thr            =            1.0E-10 Ry

     new unit-cell volume =    149.23639 a.u.^3 (    22.11455 Ang^3 )
     density =      1.72627 g/cm^3

CELL_PARAMETERS (alat=  6.68602586)
   0.499770015   0.499770015   0.499770015
  -0.499770015   0.499770015   0.499770015
  -0.499770015  -0.499770015   0.499770015

ATOMIC_POSITIONS (crystal)
Na       0.000000000   0.000000000   0.000000000



     Writing output data file na.bcc.save
     NEW-OLD atomic charge density approx. for the potential
     extrapolated charge    8.99255, renormalised to    9.00000

     total cpu time spent up to now is       16.3 secs

     per-process dynamical memory:    21.3 Mb

     Self-consistent Calculation

     iteration #  1     ecut=    40.00 Ry     beta=0.70
     Davidson diagonalization with overlap
     ethr =  1.00E-06,  avg # of iterations =  2.0

     total cpu time spent up to now is       17.4 secs

     total energy              =     -95.08303760 Ry
     Harris-Foulkes estimate   =     -95.13282456 Ry
     estimated scf accuracy    <       0.00001953 Ry

     iteration #  2     ecut=    40.00 Ry     beta=0.70
     Davidson diagonalization with overlap
     ethr =  2.17E-07,  avg # of iterations =  2.9

     total cpu time spent up to now is       18.4 secs

     total energy              =     -95.08307289 Ry
     Harris-Foulkes estimate   =     -95.08308723 Ry
     estimated scf accuracy    <       0.00003265 Ry

     iteration #  3     ecut=    40.00 Ry     beta=0.70
     Davidson diagonalization with overlap
     ethr =  2.17E-07,  avg # of iterations =  1.4

     total cpu time spent up to now is       19.2 secs

     total energy              =     -95.08307349 Ry
     Harris-Foulkes estimate   =     -95.08307504 Ry
     estimated scf accuracy    <       0.00000634 Ry

     iteration #  4     ecut=    40.00 Ry     beta=0.70
     Davidson diagonalization with overlap
     ethr =  7.04E-08,  avg # of iterations =  1.0

     total cpu time spent up to now is       20.0 secs

     total energy              =     -95.08307290 Ry
     Harris-Foulkes estimate   =     -95.08307367 Ry
     estimated scf accuracy    <       0.00000301 Ry

     iteration #  5     ecut=    40.00 Ry     beta=0.70
     Davidson diagonalization with overlap
     ethr =  3.34E-08,  avg # of iterations =  1.0

     total cpu time spent up to now is       20.7 secs

     total energy              =     -95.08307234 Ry
     Harris-Foulkes estimate   =     -95.08307295 Ry
     estimated scf accuracy    <       0.00000148 Ry

     iteration #  6     ecut=    40.00 Ry     beta=0.70
     Davidson diagonalization with overlap
     ethr =  1.65E-08,  avg # of iterations =  1.0

     total cpu time spent up to now is       21.5 secs

     total energy              =     -95.08307225 Ry
     Harris-Foulkes estimate   =     -95.08307242 Ry
     estimated scf accuracy    <       0.00000035 Ry

     iteration #  7     ecut=    40.00 Ry     beta=0.70
     Davidson diagonalization with overlap
     ethr =  3.85E-09,  avg # of iterations =  1.4

     total cpu time spent up to now is       22.3 secs

     total energy              =     -95.08307226 Ry
     Harris-Foulkes estimate   =     -95.08307229 Ry
     estimated scf accuracy    <       0.00000004 Ry

     iteration #  8     ecut=    40.00 Ry     beta=0.70
     Davidson diagonalization with overlap
     ethr =  4.32E-10,  avg # of iterations =  2.0

     total cpu time spent up to now is       23.2 secs

     End of self-consistent calculation

     Number of k-points >= 100: set verbosity='high' to print the bands.

     the Fermi energy is     4.4871 ev

!    total energy              =     -95.08307227 Ry
     Harris-Foulkes estimate   =     -95.08307227 Ry
     estimated scf accuracy    <          2.4E-11 Ry

     The total energy is the sum of the following terms:

     one-electron contribution =     -75.99489918 Ry
     hartree contribution      =      39.36849074 Ry
     xc contribution           =     -14.34761226 Ry
     ewald contribution        =     -44.10894713 Ry
     smearing contrib. (-TS)   =      -0.00010444 Ry

     convergence has been achieved in   8 iterations

     Forces acting on atoms (cartesian axes, Ry/au):

     atom    1 type  1   force =     0.00000000    0.00000000    0.00000000

     Total force =     0.000000     Total SCF correction =     0.000000


     Computing stress (Cartesian axis) and pressure

          total   stress  (Ry/bohr**3)                   (kbar)     P=   99.56
   0.00067681   0.00000000  -0.00000000         99.56      0.00     -0.00
   0.00000000   0.00067681   0.00000000          0.00     99.56      0.00
  -0.00000000   0.00000000   0.00067681         -0.00      0.00     99.56


     bfgs converged in   3 scf cycles and   2 bfgs steps
     (criteria: energy <  1.0E-04 Ry, force <  1.0E-03Ry/Bohr, cell <  5.0E-01kbar)

     End of BFGS Geometry Optimization

     Final enthalpy =     -94.9816234158 Ry
Begin final coordinates
     new unit-cell volume =    149.23639 a.u.^3 (    22.11455 Ang^3 )
     density =      1.72627 g/cm^3

CELL_PARAMETERS (alat=  6.68602586)
   0.499770015   0.499770015   0.499770015
  -0.499770015   0.499770015   0.499770015
  -0.499770015  -0.499770015   0.499770015

ATOMIC_POSITIONS (crystal)
Na       0.000000000   0.000000000   0.000000000
End final coordinates



     A final scf calculation at the relaxed structure.
     The G-vectors are recalculated for the final unit cell
     Results may differ from those at the preceding step.

     Parallelization info
     --------------------
     sticks:   dense  smooth     PW     G-vecs:    dense   smooth      PW
     Min         202      99     32                 3644     1270     239
     Max         203     100     33                 3646     1273     242
     Sum         809     399    129                14579     5089     959



     bravais-lattice index     =            3
     lattice parameter (alat)  =       6.6860  a.u.
     unit-cell volume          =     149.2364 (a.u.)^3
     number of atoms/cell      =            1
     number of atomic types    =            1
     number of electrons       =         9.00
     number of Kohn-Sham states=            9
     kinetic-energy cutoff     =      40.0000  Ry
     charge density cutoff     =     320.0000  Ry
     convergence threshold     =      1.0E-10
     mixing beta               =       0.7000
     number of iterations used =            8  plain     mixing
     Exchange-correlation      = SLA  PW   PBE  PBE ( 1  4  3  4 0 0)

     celldm(1)=   6.686026  celldm(2)=   0.000000  celldm(3)=   0.000000
     celldm(4)=   0.000000  celldm(5)=   0.000000  celldm(6)=   0.000000

     crystal axes: (cart. coord. in units of alat)
               a(1) = (   0.499770   0.499770   0.499770 )  
               a(2) = (  -0.499770   0.499770   0.499770 )  
               a(3) = (  -0.499770  -0.499770   0.499770 )  

     reciprocal axes: (cart. coord. in units 2 pi/alat)
               b(1) = (  1.000460  0.000000  1.000460 )  
               b(2) = ( -1.000460  1.000460  0.000000 )  
               b(3) = (  0.000000 -1.000460  1.000460 )  


     PseudoPot. # 1 for Na read from file:
     /home/s1333534/quantum_espresso/qe-6.1/pseudo/Na_pbe_v1.uspp.F.UPF
     MD5 check sum: 76a99c7e9422403d3e93cbc85ab7bccb
     Pseudo is Ultrasoft, Zval =  9.0
     Generated by new atomic code, or converted to UPF format
     Using radial grid of  819 points,  5 beta functions with: 
                l(1) =   0
                l(2) =   0
                l(3) =   1
                l(4) =   1
                l(5) =   2
     Q(r) pseudized with  8 coefficients,  rinner =    1.250   1.250   1.250
                                                       1.250   1.250

     atomic species   valence    mass     pseudopotential
        Na             9.00    22.99000     Na( 1.00)

     48 Sym. Ops., with inversion, found



   Cartesian axes

     site n.     atom                  positions (alat units)
         1           Na  tau(   1) = (   0.0000000   0.0000000   0.0000000  )

     number of k points=   250  Marzari-Vanderbilt smearing, width (Ry)=  0.0200

     Number of k-points >= 100: set verbosity='high' to print them.

     Dense  grid:    14579 G-vectors     FFT dimensions: (  36,  36,  36)

     Smooth grid:     5089 G-vectors     FFT dimensions: (  24,  24,  24)

     Estimated max dynamical RAM per process >       7.97MB

     Estimated total allocated dynamical RAM >      31.89MB

     Initial potential from superposition of free atoms

     starting charge    8.99371, renormalised to    9.00000
     Starting wfc are    5 randomized atomic wfcs +    4 random wfc

     Writing output data file na.bcc.save

     total cpu time spent up to now is       24.5 secs

     per-process dynamical memory:    19.4 Mb

     Self-consistent Calculation

     iteration #  1     ecut=    40.00 Ry     beta=0.70
     Davidson diagonalization with overlap
     ethr =  1.00E-06,  avg # of iterations = 10.6

     total cpu time spent up to now is       27.2 secs

     total energy              =     -95.08281533 Ry
     Harris-Foulkes estimate   =     -95.08341116 Ry
     estimated scf accuracy    <       0.00161461 Ry

     iteration #  2     ecut=    40.00 Ry     beta=0.70
     Davidson diagonalization with overlap
     ethr =  1.79E-05,  avg # of iterations =  2.0

     total cpu time spent up to now is       28.1 secs

     total energy              =     -95.08304147 Ry
     Harris-Foulkes estimate   =     -95.08309149 Ry
     estimated scf accuracy    <       0.00018911 Ry

     iteration #  3     ecut=    40.00 Ry     beta=0.70
     Davidson diagonalization with overlap
     ethr =  2.10E-06,  avg # of iterations =  2.0

     total cpu time spent up to now is       28.9 secs

     total energy              =     -95.08306455 Ry
     Harris-Foulkes estimate   =     -95.08306579 Ry
     estimated scf accuracy    <       0.00001120 Ry

     iteration #  4     ecut=    40.00 Ry     beta=0.70
     Davidson diagonalization with overlap
     ethr =  1.24E-07,  avg # of iterations =  1.0

     total cpu time spent up to now is       29.7 secs

     total energy              =     -95.08306549 Ry
     Harris-Foulkes estimate   =     -95.08306543 Ry
     estimated scf accuracy    <       0.00000001 Ry

     iteration #  5     ecut=    40.00 Ry     beta=0.70
     Davidson diagonalization with overlap
     ethr =  1.58E-10,  avg # of iterations =  3.0

     total cpu time spent up to now is       30.8 secs

     total energy              =     -95.08306552 Ry
     Harris-Foulkes estimate   =     -95.08306551 Ry
     estimated scf accuracy    <          1.4E-09 Ry

     iteration #  6     ecut=    40.00 Ry     beta=0.70
     Davidson diagonalization with overlap
     ethr =  1.56E-11,  avg # of iterations =  1.6

     total cpu time spent up to now is       31.6 secs

     total energy              =     -95.08306552 Ry
     Harris-Foulkes estimate   =     -95.08306552 Ry
     estimated scf accuracy    <          1.7E-10 Ry

     iteration #  7     ecut=    40.00 Ry     beta=0.70
     Davidson diagonalization with overlap
     ethr =  1.85E-12,  avg # of iterations =  2.0

     total cpu time spent up to now is       32.5 secs

     End of self-consistent calculation

     Number of k-points >= 100: set verbosity='high' to print the bands.

     the Fermi energy is     4.4871 ev

!    total energy              =     -95.08306552 Ry
     Harris-Foulkes estimate   =     -95.08306552 Ry
     estimated scf accuracy    <          2.9E-12 Ry

     The total energy is the sum of the following terms:

     one-electron contribution =     -75.99489751 Ry
     hartree contribution      =      39.36849590 Ry
     xc contribution           =     -14.34761233 Ry
     ewald contribution        =     -44.10894713 Ry
     smearing contrib. (-TS)   =      -0.00010445 Ry

     convergence has been achieved in   7 iterations

     Forces acting on atoms (cartesian axes, Ry/au):

     atom    1 type  1   force =     0.00000000    0.00000000    0.00000000

     Total force =     0.000000     Total SCF correction =     0.000000


     Computing stress (Cartesian axis) and pressure

          total   stress  (Ry/bohr**3)                   (kbar)     P=   99.54
   0.00067668   0.00000000  -0.00000000         99.54      0.00     -0.00
   0.00000000   0.00067668   0.00000000          0.00     99.54      0.00
  -0.00000000   0.00000000   0.00067668         -0.00      0.00     99.54


     Writing output data file na.bcc.save

     init_run     :      1.11s CPU      1.15s WALL (       2 calls)
     electrons    :     27.63s CPU     28.64s WALL (       4 calls)
     update_pot   :      0.28s CPU      0.28s WALL (       2 calls)
     forces       :      0.35s CPU      0.36s WALL (       4 calls)
     stress       :      1.66s CPU      1.67s WALL (       4 calls)

     Called by init_run:
     wfcinit      :      0.56s CPU      0.59s WALL (       2 calls)
     potinit      :      0.06s CPU      0.07s WALL (       2 calls)

     Called by electrons:
     c_bands      :     22.59s CPU     23.43s WALL (      30 calls)
     sum_band     :      4.51s CPU      4.67s WALL (      30 calls)
     v_of_rho     :      0.25s CPU      0.26s WALL (      32 calls)
     newd         :      0.30s CPU      0.31s WALL (      32 calls)
     mix_rho      :      0.01s CPU      0.02s WALL (      30 calls)

     Called by c_bands:
     init_us_2    :      1.35s CPU      1.30s WALL (   17500 calls)
     cegterg      :     21.37s CPU     22.22s WALL (    7500 calls)

     Called by sum_band:
     sum_band:bec :      0.02s CPU      0.02s WALL (    7500 calls)
     addusdens    :      0.34s CPU      0.34s WALL (      30 calls)

     Called by *egterg:
     h_psi        :     16.63s CPU     17.29s WALL (   24259 calls)
     s_psi        :      0.31s CPU      0.24s WALL (   24259 calls)
     g_psi        :      0.16s CPU      0.14s WALL (   16259 calls)
     cdiaghg      :      3.07s CPU      3.15s WALL (   22759 calls)

     Called by h_psi:
     h_psi:pot    :     16.57s CPU     17.19s WALL (   24259 calls)
     h_psi:calbec :      0.48s CPU      0.39s WALL (   24259 calls)
     vloc_psi     :     15.86s CPU     16.47s WALL (   24259 calls)
     add_vuspsi   :      0.19s CPU      0.27s WALL (   24259 calls)

     General routines
     calbec       :      0.66s CPU      0.61s WALL (   36759 calls)
     fft          :      0.13s CPU      0.14s WALL (     538 calls)
     ffts         :      0.01s CPU      0.01s WALL (      62 calls)
     fftw         :     17.53s CPU     16.97s WALL (  409490 calls)
     interpolate  :      0.02s CPU      0.02s WALL (      62 calls)
     davcio       :      0.00s CPU      0.00s WALL (     500 calls)

     Parallel routines
     fft_scatter  :      2.84s CPU      3.33s WALL (  410090 calls)

     PWSCF        :    32.04s CPU        33.15s WALL


   This run was terminated on:  17: 4:19  20Dec2017            

=------------------------------------------------------------------------------=
   JOB DONE.
=------------------------------------------------------------------------------=
