
     Program PWSCF v.6.1 (svn rev. 13369) starts on 20Dec2017 at 16:59:24 

     This program is part of the open-source Quantum ESPRESSO suite
     for quantum simulation of materials; please cite
         "P. Giannozzi et al., J. Phys.:Condens. Matter 21 395502 (2009);
          URL http://www.quantum-espresso.org", 
     in publications or presentations arising from this work. More details at
     http://www.quantum-espresso.org/quote

     Parallel version (MPI), running on     4 processors
     R & G space division:  proc/nbgrp/npool/nimage =       4
     Waiting for input...
     Reading input from standard input

     Current dimensions of program PWSCF are:
     Max number of different atomic species (ntypx) = 10
     Max number of k-points (npk) =  40000
     Max angular momentum in pseudopotentials (lmaxx) =  3

     Subspace diagonalization in iterative solution of the eigenvalue problem:
     a serial algorithm will be used


     Parallelization info
     --------------------
     sticks:   dense  smooth     PW     G-vecs:    dense   smooth      PW
     Min         226     112     34                 4279     1511     265
     Max         227     113     35                 4280     1514     266
     Sum         905     451    139                17117     6051    1061



     bravais-lattice index     =            3
     lattice parameter (alat)  =       7.0751  a.u.
     unit-cell volume          =     177.0830 (a.u.)^3
     number of atoms/cell      =            1
     number of atomic types    =            1
     number of electrons       =         9.00
     number of Kohn-Sham states=            9
     kinetic-energy cutoff     =      40.0000  Ry
     charge density cutoff     =     320.0000  Ry
     convergence threshold     =      1.0E-08
     mixing beta               =       0.7000
     number of iterations used =            8  plain     mixing
     Exchange-correlation      = SLA  PW   PBE  PBE ( 1  4  3  4 0 0)
     nstep                     =           50


     celldm(1)=   7.075149  celldm(2)=   0.000000  celldm(3)=   0.000000
     celldm(4)=   0.000000  celldm(5)=   0.000000  celldm(6)=   0.000000

     crystal axes: (cart. coord. in units of alat)
               a(1) = (   0.500000   0.500000   0.500000 )  
               a(2) = (  -0.500000   0.500000   0.500000 )  
               a(3) = (  -0.500000  -0.500000   0.500000 )  

     reciprocal axes: (cart. coord. in units 2 pi/alat)
               b(1) = (  1.000000  0.000000  1.000000 )  
               b(2) = ( -1.000000  1.000000  0.000000 )  
               b(3) = (  0.000000 -1.000000  1.000000 )  


     PseudoPot. # 1 for Na read from file:
     /home/s1333534/quantum_espresso/qe-6.1/pseudo/Na_pbe_v1.uspp.F.UPF
     MD5 check sum: 76a99c7e9422403d3e93cbc85ab7bccb
     Pseudo is Ultrasoft, Zval =  9.0
     Generated by new atomic code, or converted to UPF format
     Using radial grid of  819 points,  5 beta functions with: 
                l(1) =   0
                l(2) =   0
                l(3) =   1
                l(4) =   1
                l(5) =   2
     Q(r) pseudized with  8 coefficients,  rinner =    1.250   1.250   1.250
                                                       1.250   1.250

     atomic species   valence    mass     pseudopotential
        Na             9.00    22.99000     Na( 1.00)

     48 Sym. Ops., with inversion, found



   Cartesian axes

     site n.     atom                  positions (alat units)
         1           Na  tau(   1) = (   0.0000000   0.0000000   0.0000000  )

     number of k points=   250  Marzari-Vanderbilt smearing, width (Ry)=  0.0200

     Number of k-points >= 100: set verbosity='high' to print them.

     Dense  grid:    17117 G-vectors     FFT dimensions: (  36,  36,  36)

     Smooth grid:     6051 G-vectors     FFT dimensions: (  25,  25,  25)

     Estimated max dynamical RAM per process >       9.29MB

     Estimated total allocated dynamical RAM >      37.18MB

     Initial potential from superposition of free atoms

     starting charge    8.99371, renormalised to    9.00000
     Starting wfc are    5 randomized atomic wfcs +    4 random wfc

     total cpu time spent up to now is        0.7 secs

     per-process dynamical memory:    15.5 Mb

     Self-consistent Calculation

     iteration #  1     ecut=    40.00 Ry     beta=0.70
     Davidson diagonalization with overlap
     ethr =  1.00E-02,  avg # of iterations =  5.6

     Threshold (ethr) on eigenvalues was too large:
     Diagonalizing with lowered threshold

     Davidson diagonalization with overlap
     ethr =  1.35E-05,  avg # of iterations =  3.7

     total cpu time spent up to now is        3.5 secs

     total energy              =     -95.09691210 Ry
     Harris-Foulkes estimate   =     -95.09734029 Ry
     estimated scf accuracy    <       0.00121056 Ry

     iteration #  2     ecut=    40.00 Ry     beta=0.70
     Davidson diagonalization with overlap
     ethr =  1.35E-05,  avg # of iterations =  2.0

     total cpu time spent up to now is        4.4 secs

     total energy              =     -95.09707087 Ry
     Harris-Foulkes estimate   =     -95.09710605 Ry
     estimated scf accuracy    <       0.00013739 Ry

     iteration #  3     ecut=    40.00 Ry     beta=0.70
     Davidson diagonalization with overlap
     ethr =  1.53E-06,  avg # of iterations =  2.1

     total cpu time spent up to now is        5.4 secs

     total energy              =     -95.09708722 Ry
     Harris-Foulkes estimate   =     -95.09708841 Ry
     estimated scf accuracy    <       0.00000817 Ry

     iteration #  4     ecut=    40.00 Ry     beta=0.70
     Davidson diagonalization with overlap
     ethr =  9.08E-08,  avg # of iterations =  1.0

     total cpu time spent up to now is        6.2 secs

     total energy              =     -95.09708794 Ry
     Harris-Foulkes estimate   =     -95.09708788 Ry
     estimated scf accuracy    <       0.00000001 Ry

     iteration #  5     ecut=    40.00 Ry     beta=0.70
     Davidson diagonalization with overlap
     ethr =  1.20E-10,  avg # of iterations =  3.0

     total cpu time spent up to now is        7.4 secs

     End of self-consistent calculation

     Number of k-points >= 100: set verbosity='high' to print the bands.

     the Fermi energy is     3.3479 ev

!    total energy              =     -95.09708797 Ry
     Harris-Foulkes estimate   =     -95.09708796 Ry
     estimated scf accuracy    <          1.5E-09 Ry

     The total energy is the sum of the following terms:

     one-electron contribution =     -80.22509777 Ry
     hartree contribution      =      41.11017762 Ry
     xc contribution           =     -14.31822046 Ry
     ewald contribution        =     -41.66384205 Ry
     smearing contrib. (-TS)   =      -0.00010531 Ry

     convergence has been achieved in   5 iterations

     Forces acting on atoms (cartesian axes, Ry/au):

     atom    1 type  1   force =     0.00000000    0.00000000    0.00000000

     Total force =     0.000000     Total SCF correction =     0.000000


     Computing stress (Cartesian axis) and pressure

          total   stress  (Ry/bohr**3)                   (kbar)     P=   46.52
   0.00031624   0.00000000  -0.00000000         46.52      0.00     -0.00
   0.00000000   0.00031624   0.00000000          0.00     46.52      0.00
  -0.00000000   0.00000000   0.00031624         -0.00      0.00     46.52


     BFGS Geometry Optimization

     number of scf cycles    =   1
     number of bfgs steps    =   0

     enthalpy new            =     -95.0368986712 Ry

     new trust radius        =       0.0015735484 bohr
     new conv_thr            =       0.0000000100 Ry

     new unit-cell volume =    176.76909 a.u.^3 (    26.19448 Ang^3 )
     density =      1.45740 g/cm^3

CELL_PARAMETERS (alat=  7.07514946)
   0.499704381   0.499704381   0.499704381
  -0.499704381   0.499704381   0.499704381
  -0.499704381  -0.499704381   0.499704381

ATOMIC_POSITIONS (crystal)
Na       0.000000000   0.000000000   0.000000000



     Writing output data file na.bcc.save
     NEW-OLD atomic charge density approx. for the potential
     extrapolated charge    8.98403, renormalised to    9.00000

     total cpu time spent up to now is        8.4 secs

     per-process dynamical memory:    23.7 Mb

     Self-consistent Calculation

     iteration #  1     ecut=    40.00 Ry     beta=0.70
     Davidson diagonalization with overlap
     ethr =  1.00E-06,  avg # of iterations =  2.0

     total cpu time spent up to now is        9.5 secs

     total energy              =     -95.09682628 Ry
     Harris-Foulkes estimate   =     -95.20979024 Ry
     estimated scf accuracy    <       0.00009092 Ry

     iteration #  2     ecut=    40.00 Ry     beta=0.70
     Davidson diagonalization with overlap
     ethr =  1.01E-06,  avg # of iterations =  2.9

     total cpu time spent up to now is       10.7 secs

     total energy              =     -95.09699108 Ry
     Harris-Foulkes estimate   =     -95.09705792 Ry
     estimated scf accuracy    <       0.00015225 Ry

     iteration #  3     ecut=    40.00 Ry     beta=0.70
     Davidson diagonalization with overlap
     ethr =  1.01E-06,  avg # of iterations =  1.5

     total cpu time spent up to now is       11.6 secs

     total energy              =     -95.09699347 Ry
     Harris-Foulkes estimate   =     -95.09700111 Ry
     estimated scf accuracy    <       0.00002955 Ry

     iteration #  4     ecut=    40.00 Ry     beta=0.70
     Davidson diagonalization with overlap
     ethr =  3.28E-07,  avg # of iterations =  1.0

     total cpu time spent up to now is       12.4 secs

     total energy              =     -95.09699059 Ry
     Harris-Foulkes estimate   =     -95.09699441 Ry
     estimated scf accuracy    <       0.00001335 Ry

     iteration #  5     ecut=    40.00 Ry     beta=0.70
     Davidson diagonalization with overlap
     ethr =  1.48E-07,  avg # of iterations =  1.0

     total cpu time spent up to now is       13.2 secs

     total energy              =     -95.09698859 Ry
     Harris-Foulkes estimate   =     -95.09699091 Ry
     estimated scf accuracy    <       0.00000589 Ry

     iteration #  6     ecut=    40.00 Ry     beta=0.70
     Davidson diagonalization with overlap
     ethr =  6.55E-08,  avg # of iterations =  1.0

     total cpu time spent up to now is       14.0 secs

     total energy              =     -95.09698812 Ry
     Harris-Foulkes estimate   =     -95.09698888 Ry
     estimated scf accuracy    <       0.00000153 Ry

     iteration #  7     ecut=    40.00 Ry     beta=0.70
     Davidson diagonalization with overlap
     ethr =  1.70E-08,  avg # of iterations =  1.3

     total cpu time spent up to now is       14.9 secs

     total energy              =     -95.09698815 Ry
     Harris-Foulkes estimate   =     -95.09698827 Ry
     estimated scf accuracy    <       0.00000018 Ry

     iteration #  8     ecut=    40.00 Ry     beta=0.70
     Davidson diagonalization with overlap
     ethr =  1.97E-09,  avg # of iterations =  2.0

     total cpu time spent up to now is       15.9 secs

     End of self-consistent calculation

     Number of k-points >= 100: set verbosity='high' to print the bands.

     the Fermi energy is     3.3586 ev

!    total energy              =     -95.09698819 Ry
     Harris-Foulkes estimate   =     -95.09698819 Ry
     estimated scf accuracy    <          1.1E-10 Ry

     The total energy is the sum of the following terms:

     one-electron contribution =     -80.18233473 Ry
     hartree contribution      =      41.09245375 Ry
     xc contribution           =     -14.31851205 Ry
     ewald contribution        =     -41.68848983 Ry
     smearing contrib. (-TS)   =      -0.00010533 Ry

     convergence has been achieved in   8 iterations

     Forces acting on atoms (cartesian axes, Ry/au):

     atom    1 type  1   force =     0.00000000    0.00000000    0.00000000

     Total force =     0.000000     Total SCF correction =     0.000000


     Computing stress (Cartesian axis) and pressure

          total   stress  (Ry/bohr**3)                   (kbar)     P=   46.94
   0.00031907   0.00000000  -0.00000000         46.94      0.00     -0.00
   0.00000000   0.00031907   0.00000000          0.00     46.94      0.00
  -0.00000000   0.00000000   0.00031907         -0.00      0.00     46.94


     number of scf cycles    =   2
     number of bfgs steps    =   1

     enthalpy old            =     -95.0368986712 Ry
     enthalpy new            =     -95.0369055934 Ry

     CASE: enthalpy_new < enthalpy_old


     WARNING: bfgs curvature condition failed, Theta= 0.910
     new trust radius        =       0.0023596248 bohr
     new conv_thr            =            1.0E-10 Ry

     new unit-cell volume =    176.29892 a.u.^3 (    26.12480 Ang^3 )
     density =      1.46129 g/cm^3

CELL_PARAMETERS (alat=  7.07514946)
   0.499260954   0.499260954   0.499260954
  -0.499260954   0.499260954   0.499260954
  -0.499260954  -0.499260954   0.499260954

ATOMIC_POSITIONS (crystal)
Na       0.000000000   0.000000000   0.000000000



     Writing output data file na.bcc.save
     NEW-OLD atomic charge density approx. for the potential
     extrapolated charge    8.97601, renormalised to    9.00000

     total cpu time spent up to now is       16.9 secs

     per-process dynamical memory:    23.7 Mb

     Self-consistent Calculation

     iteration #  1     ecut=    40.00 Ry     beta=0.70
     Davidson diagonalization with overlap
     ethr =  1.00E-06,  avg # of iterations =  2.0

     total cpu time spent up to now is       18.1 secs

     total energy              =     -95.09647302 Ry
     Harris-Foulkes estimate   =     -95.26607487 Ry
     estimated scf accuracy    <       0.00020429 Ry

     iteration #  2     ecut=    40.00 Ry     beta=0.70
     Davidson diagonalization with overlap
     ethr =  2.27E-06,  avg # of iterations =  2.9

     total cpu time spent up to now is       19.3 secs

     total energy              =     -95.09684330 Ry
     Harris-Foulkes estimate   =     -95.09699352 Ry
     estimated scf accuracy    <       0.00034223 Ry

     iteration #  3     ecut=    40.00 Ry     beta=0.70
     Davidson diagonalization with overlap
     ethr =  2.27E-06,  avg # of iterations =  1.5

     total cpu time spent up to now is       20.2 secs

     total energy              =     -95.09684725 Ry
     Harris-Foulkes estimate   =     -95.09686599 Ry
     estimated scf accuracy    <       0.00006598 Ry

     iteration #  4     ecut=    40.00 Ry     beta=0.70
     Davidson diagonalization with overlap
     ethr =  7.33E-07,  avg # of iterations =  1.0

     total cpu time spent up to now is       21.0 secs

     total energy              =     -95.09684148 Ry
     Harris-Foulkes estimate   =     -95.09684949 Ry
     estimated scf accuracy    <       0.00002722 Ry

     iteration #  5     ecut=    40.00 Ry     beta=0.70
     Davidson diagonalization with overlap
     ethr =  3.02E-07,  avg # of iterations =  1.0

     total cpu time spent up to now is       21.8 secs

     total energy              =     -95.09683817 Ry
     Harris-Foulkes estimate   =     -95.09684222 Ry
     estimated scf accuracy    <       0.00001148 Ry

     iteration #  6     ecut=    40.00 Ry     beta=0.70
     Davidson diagonalization with overlap
     ethr =  1.28E-07,  avg # of iterations =  1.0

     total cpu time spent up to now is       22.7 secs

     total energy              =     -95.09683671 Ry
     Harris-Foulkes estimate   =     -95.09683861 Ry
     estimated scf accuracy    <       0.00000376 Ry

     iteration #  7     ecut=    40.00 Ry     beta=0.70
     Davidson diagonalization with overlap
     ethr =  4.18E-08,  avg # of iterations =  1.2

     total cpu time spent up to now is       23.5 secs

     total energy              =     -95.09683681 Ry
     Harris-Foulkes estimate   =     -95.09683707 Ry
     estimated scf accuracy    <       0.00000040 Ry

     iteration #  8     ecut=    40.00 Ry     beta=0.70
     Davidson diagonalization with overlap
     ethr =  4.50E-09,  avg # of iterations =  2.0

     total cpu time spent up to now is       24.5 secs

     total energy              =     -95.09683690 Ry
     Harris-Foulkes estimate   =     -95.09683690 Ry
     estimated scf accuracy    <          4.2E-09 Ry

     iteration #  9     ecut=    40.00 Ry     beta=0.70
     Davidson diagonalization with overlap
     ethr =  4.69E-11,  avg # of iterations =  1.2

     total cpu time spent up to now is       25.3 secs

     total energy              =     -95.09683690 Ry
     Harris-Foulkes estimate   =     -95.09683690 Ry
     estimated scf accuracy    <          3.6E-09 Ry

     iteration # 10     ecut=    40.00 Ry     beta=0.70
     Davidson diagonalization with overlap
     ethr =  3.99E-11,  avg # of iterations =  1.0

     total cpu time spent up to now is       26.1 secs

     total energy              =     -95.09683690 Ry
     Harris-Foulkes estimate   =     -95.09683690 Ry
     estimated scf accuracy    <          4.6E-09 Ry

     iteration # 11     ecut=    40.00 Ry     beta=0.70
     Davidson diagonalization with overlap
     ethr =  3.99E-11,  avg # of iterations =  2.0

     total cpu time spent up to now is       27.1 secs

     total energy              =     -95.09683690 Ry
     Harris-Foulkes estimate   =     -95.09683690 Ry
     estimated scf accuracy    <          7.6E-10 Ry

     iteration # 12     ecut=    40.00 Ry     beta=0.70
     Davidson diagonalization with overlap
     ethr =  8.40E-12,  avg # of iterations =  1.0

     total cpu time spent up to now is       28.0 secs

     total energy              =     -95.09683690 Ry
     Harris-Foulkes estimate   =     -95.09683690 Ry
     estimated scf accuracy    <          3.2E-10 Ry

     iteration # 13     ecut=    40.00 Ry     beta=0.70
     Davidson diagonalization with overlap
     ethr =  3.53E-12,  avg # of iterations =  2.0

     total cpu time spent up to now is       28.9 secs

     End of self-consistent calculation

     Number of k-points >= 100: set verbosity='high' to print the bands.

     the Fermi energy is     3.3748 ev

!    total energy              =     -95.09683690 Ry
     Harris-Foulkes estimate   =     -95.09683690 Ry
     estimated scf accuracy    <          7.4E-12 Ry

     The total energy is the sum of the following terms:

     one-electron contribution =     -80.11811774 Ry
     hartree contribution      =      41.06585451 Ry
     xc contribution           =     -14.31895208 Ry
     ewald contribution        =     -41.72551623 Ry
     smearing contrib. (-TS)   =      -0.00010535 Ry

     convergence has been achieved in  13 iterations

     Forces acting on atoms (cartesian axes, Ry/au):

     atom    1 type  1   force =     0.00000000    0.00000000    0.00000000

     Total force =     0.000000     Total SCF correction =     0.000000


     Computing stress (Cartesian axis) and pressure

          total   stress  (Ry/bohr**3)                   (kbar)     P=   47.67
   0.00032406   0.00000000  -0.00000000         47.67      0.00     -0.00
   0.00000000   0.00032406   0.00000000          0.00     47.67      0.00
  -0.00000000   0.00000000   0.00032406         -0.00      0.00     47.67


     number of scf cycles    =   3
     number of bfgs steps    =   2

     enthalpy old            =     -95.0369055934 Ry
     enthalpy new            =     -95.0369141036 Ry

     CASE: enthalpy_new < enthalpy_old

     new trust radius        =       0.0035378664 bohr
     new conv_thr            =            1.0E-10 Ry

     new unit-cell volume =    175.59523 a.u.^3 (    26.02053 Ang^3 )
     density =      1.46714 g/cm^3

CELL_PARAMETERS (alat=  7.07514946)
   0.498595812   0.498595812   0.498595812
  -0.498595812   0.498595812   0.498595812
  -0.498595812  -0.498595812   0.498595812

ATOMIC_POSITIONS (crystal)
Na       0.000000000   0.000000000   0.000000000



     Writing output data file na.bcc.save
     NEW-OLD atomic charge density approx. for the potential
     extrapolated charge    8.96396, renormalised to    9.00000

     total cpu time spent up to now is       30.0 secs

     per-process dynamical memory:    23.7 Mb

     Self-consistent Calculation

     iteration #  1     ecut=    40.00 Ry     beta=0.70
     Davidson diagonalization with overlap
     ethr =  1.00E-06,  avg # of iterations =  2.0

     total cpu time spent up to now is       31.1 secs

     total energy              =     -95.09578884 Ry
     Harris-Foulkes estimate   =     -95.35054083 Ry
     estimated scf accuracy    <       0.00045892 Ry

     iteration #  2     ecut=    40.00 Ry     beta=0.70
     Davidson diagonalization with overlap
     ethr =  5.10E-06,  avg # of iterations =  2.9

     total cpu time spent up to now is       32.4 secs

     total energy              =     -95.09662030 Ry
     Harris-Foulkes estimate   =     -95.09695782 Ry
     estimated scf accuracy    <       0.00076898 Ry

     iteration #  3     ecut=    40.00 Ry     beta=0.70
     Davidson diagonalization with overlap
     ethr =  5.10E-06,  avg # of iterations =  1.5

     total cpu time spent up to now is       33.3 secs

     total energy              =     -95.09662977 Ry
     Harris-Foulkes estimate   =     -95.09667141 Ry
     estimated scf accuracy    <       0.00014789 Ry

     iteration #  4     ecut=    40.00 Ry     beta=0.70
     Davidson diagonalization with overlap
     ethr =  1.64E-06,  avg # of iterations =  1.0

     total cpu time spent up to now is       34.1 secs

     total energy              =     -95.09661655 Ry
     Harris-Foulkes estimate   =     -95.09663472 Ry
     estimated scf accuracy    <       0.00006158 Ry

     iteration #  5     ecut=    40.00 Ry     beta=0.70
     Davidson diagonalization with overlap
     ethr =  6.84E-07,  avg # of iterations =  1.0

     total cpu time spent up to now is       34.9 secs

     total energy              =     -95.09660918 Ry
     Harris-Foulkes estimate   =     -95.09661822 Ry
     estimated scf accuracy    <       0.00002587 Ry

     iteration #  6     ecut=    40.00 Ry     beta=0.70
     Davidson diagonalization with overlap
     ethr =  2.87E-07,  avg # of iterations =  1.0

     total cpu time spent up to now is       35.8 secs

     total energy              =     -95.09660575 Ry
     Harris-Foulkes estimate   =     -95.09661016 Ry
     estimated scf accuracy    <       0.00000858 Ry

     iteration #  7     ecut=    40.00 Ry     beta=0.70
     Davidson diagonalization with overlap
     ethr =  9.53E-08,  avg # of iterations =  1.2

     total cpu time spent up to now is       36.6 secs

     total energy              =     -95.09660607 Ry
     Harris-Foulkes estimate   =     -95.09660660 Ry
     estimated scf accuracy    <       0.00000086 Ry

     iteration #  8     ecut=    40.00 Ry     beta=0.70
     Davidson diagonalization with overlap
     ethr =  9.55E-09,  avg # of iterations =  2.0

     total cpu time spent up to now is       37.6 secs

     total energy              =     -95.09660625 Ry
     Harris-Foulkes estimate   =     -95.09660625 Ry
     estimated scf accuracy    <          8.5E-09 Ry

     iteration #  9     ecut=    40.00 Ry     beta=0.70
     Davidson diagonalization with overlap
     ethr =  9.40E-11,  avg # of iterations =  1.2

     total cpu time spent up to now is       38.4 secs

     total energy              =     -95.09660625 Ry
     Harris-Foulkes estimate   =     -95.09660625 Ry
     estimated scf accuracy    <          8.0E-09 Ry

     iteration # 10     ecut=    40.00 Ry     beta=0.70
     Davidson diagonalization with overlap
     ethr =  8.90E-11,  avg # of iterations =  1.0

     total cpu time spent up to now is       39.3 secs

     total energy              =     -95.09660625 Ry
     Harris-Foulkes estimate   =     -95.09660625 Ry
     estimated scf accuracy    <          8.4E-09 Ry

     iteration # 11     ecut=    40.00 Ry     beta=0.70
     Davidson diagonalization with overlap
     ethr =  8.90E-11,  avg # of iterations =  2.0

     total cpu time spent up to now is       40.3 secs

     total energy              =     -95.09660625 Ry
     Harris-Foulkes estimate   =     -95.09660625 Ry
     estimated scf accuracy    <          4.5E-10 Ry

     iteration # 12     ecut=    40.00 Ry     beta=0.70
     Davidson diagonalization with overlap
     ethr =  4.99E-12,  avg # of iterations =  2.7

     total cpu time spent up to now is       41.3 secs

     total energy              =     -95.09660625 Ry
     Harris-Foulkes estimate   =     -95.09660625 Ry
     estimated scf accuracy    <          6.9E-09 Ry

     iteration # 13     ecut=    40.00 Ry     beta=0.70
     Davidson diagonalization with overlap
     ethr =  4.99E-12,  avg # of iterations =  2.6

     total cpu time spent up to now is       42.4 secs

     End of self-consistent calculation

     Number of k-points >= 100: set verbosity='high' to print the bands.

     the Fermi energy is     3.3992 ev

!    total energy              =     -95.09660625 Ry
     Harris-Foulkes estimate   =     -95.09660625 Ry
     estimated scf accuracy    <          5.1E-11 Ry

     The total energy is the sum of the following terms:

     one-electron contribution =     -80.02158446 Ry
     hartree contribution      =      41.02587597 Ry
     xc contribution           =     -14.31961305 Ry
     ewald contribution        =     -41.78117932 Ry
     smearing contrib. (-TS)   =      -0.00010539 Ry

     convergence has been achieved in  13 iterations

     Forces acting on atoms (cartesian axes, Ry/au):

     atom    1 type  1   force =     0.00000000    0.00000000    0.00000000

     Total force =     0.000000     Total SCF correction =     0.000000


     Computing stress (Cartesian axis) and pressure

          total   stress  (Ry/bohr**3)                   (kbar)     P=   48.82
   0.00033184  -0.00000000   0.00000000         48.82     -0.00      0.00
  -0.00000000   0.00033184   0.00000000         -0.00     48.82      0.00
   0.00000000  -0.00000000   0.00033184          0.00     -0.00     48.82


     number of scf cycles    =   4
     number of bfgs steps    =   3

     enthalpy old            =     -95.0369141036 Ry
     enthalpy new            =     -95.0369226307 Ry

     CASE: enthalpy_new < enthalpy_old

     new trust radius        =       0.0036371351 bohr
     new conv_thr            =            1.0E-10 Ry

     new unit-cell volume =    174.87328 a.u.^3 (    25.91355 Ang^3 )
     density =      1.47320 g/cm^3

CELL_PARAMETERS (alat=  7.07514946)
   0.497911551   0.497911551   0.497911551
  -0.497911551   0.497911551   0.497911551
  -0.497911551  -0.497911551   0.497911551

ATOMIC_POSITIONS (crystal)
Na       0.000000000   0.000000000   0.000000000



     Writing output data file na.bcc.save
     NEW-OLD atomic charge density approx. for the potential
     extrapolated charge    8.96287, renormalised to    9.00000

     total cpu time spent up to now is       43.5 secs

     per-process dynamical memory:    23.7 Mb

     Self-consistent Calculation

     iteration #  1     ecut=    40.00 Ry     beta=0.70
     Davidson diagonalization with overlap
     ethr =  1.00E-06,  avg # of iterations =  2.0

     total cpu time spent up to now is       44.6 secs

     total energy              =     -95.09549770 Ry
     Harris-Foulkes estimate   =     -95.35761921 Ry
     estimated scf accuracy    <       0.00048643 Ry

     iteration #  2     ecut=    40.00 Ry     beta=0.70
     Davidson diagonalization with overlap
     ethr =  5.40E-06,  avg # of iterations =  2.9

     total cpu time spent up to now is       45.9 secs

     total energy              =     -95.09637918 Ry
     Harris-Foulkes estimate   =     -95.09673703 Ry
     estimated scf accuracy    <       0.00081537 Ry

     iteration #  3     ecut=    40.00 Ry     beta=0.70
     Davidson diagonalization with overlap
     ethr =  5.40E-06,  avg # of iterations =  1.5

     total cpu time spent up to now is       46.8 secs

     total energy              =     -95.09638938 Ry
     Harris-Foulkes estimate   =     -95.09643338 Ry
     estimated scf accuracy    <       0.00015681 Ry

     iteration #  4     ecut=    40.00 Ry     beta=0.70
     Davidson diagonalization with overlap
     ethr =  1.74E-06,  avg # of iterations =  1.0

     total cpu time spent up to now is       47.6 secs

     total energy              =     -95.09637532 Ry
     Harris-Foulkes estimate   =     -95.09639459 Ry
     estimated scf accuracy    <       0.00006554 Ry

     iteration #  5     ecut=    40.00 Ry     beta=0.70
     Davidson diagonalization with overlap
     ethr =  7.28E-07,  avg # of iterations =  1.0

     total cpu time spent up to now is       48.4 secs

     total energy              =     -95.09636744 Ry
     Harris-Foulkes estimate   =     -95.09637708 Ry
     estimated scf accuracy    <       0.00002766 Ry

     iteration #  6     ecut=    40.00 Ry     beta=0.70
     Davidson diagonalization with overlap
     ethr =  3.07E-07,  avg # of iterations =  1.0

     total cpu time spent up to now is       49.2 secs

     total energy              =     -95.09636378 Ry
     Harris-Foulkes estimate   =     -95.09636848 Ry
     estimated scf accuracy    <       0.00000920 Ry

     iteration #  7     ecut=    40.00 Ry     beta=0.70
     Davidson diagonalization with overlap
     ethr =  1.02E-07,  avg # of iterations =  1.2

     total cpu time spent up to now is       50.1 secs

     total energy              =     -95.09636408 Ry
     Harris-Foulkes estimate   =     -95.09636468 Ry
     estimated scf accuracy    <       0.00000096 Ry

     iteration #  8     ecut=    40.00 Ry     beta=0.70
     Davidson diagonalization with overlap
     ethr =  1.06E-08,  avg # of iterations =  2.0

     total cpu time spent up to now is       51.0 secs

     total energy              =     -95.09636429 Ry
     Harris-Foulkes estimate   =     -95.09636429 Ry
     estimated scf accuracy    <          9.1E-09 Ry

     iteration #  9     ecut=    40.00 Ry     beta=0.70
     Davidson diagonalization with overlap
     ethr =  1.02E-10,  avg # of iterations =  1.2

     total cpu time spent up to now is       51.9 secs

     total energy              =     -95.09636429 Ry
     Harris-Foulkes estimate   =     -95.09636429 Ry
     estimated scf accuracy    <          8.6E-09 Ry

     iteration # 10     ecut=    40.00 Ry     beta=0.70
     Davidson diagonalization with overlap
     ethr =  9.52E-11,  avg # of iterations =  1.0

     total cpu time spent up to now is       52.7 secs

     total energy              =     -95.09636428 Ry
     Harris-Foulkes estimate   =     -95.09636429 Ry
     estimated scf accuracy    <          9.3E-09 Ry

     iteration # 11     ecut=    40.00 Ry     beta=0.70
     Davidson diagonalization with overlap
     ethr =  9.52E-11,  avg # of iterations =  2.0

     total cpu time spent up to now is       53.7 secs

     total energy              =     -95.09636429 Ry
     Harris-Foulkes estimate   =     -95.09636429 Ry
     estimated scf accuracy    <          5.4E-10 Ry

     iteration # 12     ecut=    40.00 Ry     beta=0.70
     Davidson diagonalization with overlap
     ethr =  5.96E-12,  avg # of iterations =  2.3

     total cpu time spent up to now is       54.7 secs

     total energy              =     -95.09636428 Ry
     Harris-Foulkes estimate   =     -95.09636429 Ry
     estimated scf accuracy    <          8.4E-09 Ry

     iteration # 13     ecut=    40.00 Ry     beta=0.70
     Davidson diagonalization with overlap
     ethr =  5.96E-12,  avg # of iterations =  2.2

     total cpu time spent up to now is       55.8 secs

     End of self-consistent calculation

     Number of k-points >= 100: set verbosity='high' to print the bands.

     the Fermi energy is     3.4245 ev

!    total energy              =     -95.09636429 Ry
     Harris-Foulkes estimate   =     -95.09636429 Ry
     estimated scf accuracy    <          3.3E-11 Ry

     The total energy is the sum of the following terms:

     one-electron contribution =     -79.92198896 Ry
     hartree contribution      =      40.98461630 Ry
     xc contribution           =     -14.32028859 Ry
     ewald contribution        =     -41.83859761 Ry
     smearing contrib. (-TS)   =      -0.00010543 Ry

     convergence has been achieved in  13 iterations

     Forces acting on atoms (cartesian axes, Ry/au):

     atom    1 type  1   force =     0.00000000    0.00000000    0.00000000

     Total force =     0.000000     Total SCF correction =     0.000000


     Computing stress (Cartesian axis) and pressure

          total   stress  (Ry/bohr**3)                   (kbar)     P=   49.91
   0.00033928  -0.00000000   0.00000000         49.91     -0.00      0.00
   0.00000000   0.00033928  -0.00000000          0.00     49.91     -0.00
   0.00000000  -0.00000000   0.00033928          0.00     -0.00     49.91


     bfgs converged in   5 scf cycles and   4 bfgs steps
     (criteria: energy <  1.0E-04 Ry, force <  1.0E-03Ry/Bohr, cell <  5.0E-01kbar)

     End of BFGS Geometry Optimization

     Final enthalpy =     -95.0369260564 Ry
Begin final coordinates
     new unit-cell volume =    174.87328 a.u.^3 (    25.91355 Ang^3 )
     density =      1.47320 g/cm^3

CELL_PARAMETERS (alat=  7.07514946)
   0.497911551   0.497911551   0.497911551
  -0.497911551   0.497911551   0.497911551
  -0.497911551  -0.497911551   0.497911551

ATOMIC_POSITIONS (crystal)
Na       0.000000000   0.000000000   0.000000000
End final coordinates



     A final scf calculation at the relaxed structure.
     The G-vectors are recalculated for the final unit cell
     Results may differ from those at the preceding step.

     Parallelization info
     --------------------
     sticks:   dense  smooth     PW     G-vecs:    dense   smooth      PW
     Min         226     112     34                 4237     1494     265
     Max         227     113     35                 4238     1496     266
     Sum         905     451    139                16949     5979    1061



     bravais-lattice index     =            3
     lattice parameter (alat)  =       7.0751  a.u.
     unit-cell volume          =     174.8733 (a.u.)^3
     number of atoms/cell      =            1
     number of atomic types    =            1
     number of electrons       =         9.00
     number of Kohn-Sham states=            9
     kinetic-energy cutoff     =      40.0000  Ry
     charge density cutoff     =     320.0000  Ry
     convergence threshold     =      1.0E-10
     mixing beta               =       0.7000
     number of iterations used =            8  plain     mixing
     Exchange-correlation      = SLA  PW   PBE  PBE ( 1  4  3  4 0 0)

     celldm(1)=   7.075149  celldm(2)=   0.000000  celldm(3)=   0.000000
     celldm(4)=   0.000000  celldm(5)=   0.000000  celldm(6)=   0.000000

     crystal axes: (cart. coord. in units of alat)
               a(1) = (   0.497912   0.497912   0.497912 )  
               a(2) = (  -0.497912   0.497912   0.497912 )  
               a(3) = (  -0.497912  -0.497912   0.497912 )  

     reciprocal axes: (cart. coord. in units 2 pi/alat)
               b(1) = (  1.004194  0.000000  1.004194 )  
               b(2) = ( -1.004194  1.004194  0.000000 )  
               b(3) = (  0.000000 -1.004194  1.004194 )  


     PseudoPot. # 1 for Na read from file:
     /home/s1333534/quantum_espresso/qe-6.1/pseudo/Na_pbe_v1.uspp.F.UPF
     MD5 check sum: 76a99c7e9422403d3e93cbc85ab7bccb
     Pseudo is Ultrasoft, Zval =  9.0
     Generated by new atomic code, or converted to UPF format
     Using radial grid of  819 points,  5 beta functions with: 
                l(1) =   0
                l(2) =   0
                l(3) =   1
                l(4) =   1
                l(5) =   2
     Q(r) pseudized with  8 coefficients,  rinner =    1.250   1.250   1.250
                                                       1.250   1.250

     atomic species   valence    mass     pseudopotential
        Na             9.00    22.99000     Na( 1.00)

     48 Sym. Ops., with inversion, found



   Cartesian axes

     site n.     atom                  positions (alat units)
         1           Na  tau(   1) = (   0.0000000   0.0000000   0.0000000  )

     number of k points=   250  Marzari-Vanderbilt smearing, width (Ry)=  0.0200

     Number of k-points >= 100: set verbosity='high' to print them.

     Dense  grid:    16949 G-vectors     FFT dimensions: (  36,  36,  36)

     Smooth grid:     5979 G-vectors     FFT dimensions: (  25,  25,  25)

     Estimated max dynamical RAM per process >       9.17MB

     Estimated total allocated dynamical RAM >      36.69MB

     Initial potential from superposition of free atoms

     starting charge    8.99371, renormalised to    9.00000
     Starting wfc are    5 randomized atomic wfcs +    4 random wfc

     Writing output data file na.bcc.save

     total cpu time spent up to now is       57.2 secs

     per-process dynamical memory:    20.7 Mb

     Self-consistent Calculation

     iteration #  1     ecut=    40.00 Ry     beta=0.70
     Davidson diagonalization with overlap
     c_bands:  1 eigenvalues not converged
     c_bands:  1 eigenvalues not converged
     ethr =  1.00E-06,  avg # of iterations = 11.0

     total cpu time spent up to now is       60.1 secs

     total energy              =     -95.09612463 Ry
     Harris-Foulkes estimate   =     -95.09656674 Ry
     estimated scf accuracy    <       0.00123874 Ry

     iteration #  2     ecut=    40.00 Ry     beta=0.70
     Davidson diagonalization with overlap
     ethr =  1.38E-05,  avg # of iterations =  2.0

     total cpu time spent up to now is       61.0 secs

     total energy              =     -95.09629233 Ry
     Harris-Foulkes estimate   =     -95.09633021 Ry
     estimated scf accuracy    <       0.00014398 Ry

     iteration #  3     ecut=    40.00 Ry     beta=0.70
     Davidson diagonalization with overlap
     ethr =  1.60E-06,  avg # of iterations =  2.0

     total cpu time spent up to now is       62.0 secs

     total energy              =     -95.09630907 Ry
     Harris-Foulkes estimate   =     -95.09631037 Ry
     estimated scf accuracy    <       0.00000867 Ry

     iteration #  4     ecut=    40.00 Ry     beta=0.70
     Davidson diagonalization with overlap
     ethr =  9.63E-08,  avg # of iterations =  1.0

     total cpu time spent up to now is       62.8 secs

     total energy              =     -95.09630982 Ry
     Harris-Foulkes estimate   =     -95.09630976 Ry
     estimated scf accuracy    <       0.00000001 Ry

     iteration #  5     ecut=    40.00 Ry     beta=0.70
     Davidson diagonalization with overlap
     ethr =  1.20E-10,  avg # of iterations =  3.0

     total cpu time spent up to now is       64.0 secs

     total energy              =     -95.09630984 Ry
     Harris-Foulkes estimate   =     -95.09630984 Ry
     estimated scf accuracy    <          1.0E-09 Ry

     iteration #  6     ecut=    40.00 Ry     beta=0.70
     Davidson diagonalization with overlap
     ethr =  1.17E-11,  avg # of iterations =  1.5

     total cpu time spent up to now is       64.8 secs

     End of self-consistent calculation

     Number of k-points >= 100: set verbosity='high' to print the bands.

     the Fermi energy is     3.4244 ev

!    total energy              =     -95.09630984 Ry
     Harris-Foulkes estimate   =     -95.09630984 Ry
     estimated scf accuracy    <          3.5E-11 Ry

     The total energy is the sum of the following terms:

     one-electron contribution =     -79.92190465 Ry
     hartree contribution      =      40.98456862 Ry
     xc contribution           =     -14.32027079 Ry
     ewald contribution        =     -41.83859761 Ry
     smearing contrib. (-TS)   =      -0.00010542 Ry

     convergence has been achieved in   6 iterations

     Forces acting on atoms (cartesian axes, Ry/au):

     atom    1 type  1   force =     0.00000000    0.00000000    0.00000000

     Total force =     0.000000     Total SCF correction =     0.000000


     Computing stress (Cartesian axis) and pressure

          total   stress  (Ry/bohr**3)                   (kbar)     P=   49.62
   0.00033729  -0.00000000   0.00000000         49.62     -0.00      0.00
  -0.00000000   0.00033729  -0.00000000         -0.00     49.62     -0.00
   0.00000000  -0.00000000   0.00033729          0.00     -0.00     49.62


     Writing output data file na.bcc.save

     init_run     :      1.18s CPU      1.22s WALL (       2 calls)
     electrons    :     56.51s CPU     58.46s WALL (       6 calls)
     update_pot   :      0.64s CPU      0.65s WALL (       4 calls)
     forces       :      0.63s CPU      0.64s WALL (       6 calls)
     stress       :      3.02s CPU      3.03s WALL (       6 calls)

     Called by init_run:
     wfcinit      :      0.61s CPU      0.63s WALL (       2 calls)
     potinit      :      0.07s CPU      0.07s WALL (       2 calls)

     Called by electrons:
     c_bands      :     45.59s CPU     47.26s WALL (      59 calls)
     sum_band     :      9.79s CPU     10.05s WALL (      59 calls)
     v_of_rho     :      0.50s CPU      0.51s WALL (      64 calls)
     newd         :      0.64s CPU      0.65s WALL (      64 calls)
     mix_rho      :      0.04s CPU      0.04s WALL (      59 calls)

     Called by c_bands:
     init_us_2    :      2.81s CPU      2.73s WALL (   33000 calls)
     cegterg      :     42.87s CPU     44.53s WALL (   14750 calls)

     Called by sum_band:
     sum_band:bec :      0.04s CPU      0.04s WALL (   14750 calls)
     addusdens    :      0.77s CPU      0.78s WALL (      59 calls)

     Called by *egterg:
     h_psi        :     33.62s CPU     34.94s WALL (   43682 calls)
     s_psi        :      0.64s CPU      0.50s WALL (   43682 calls)
     g_psi        :      0.31s CPU      0.30s WALL (   28432 calls)
     cdiaghg      :      5.32s CPU      5.46s WALL (   41932 calls)

     Called by h_psi:
     h_psi:pot    :     33.48s CPU     34.73s WALL (   43682 calls)
     h_psi:calbec :      1.03s CPU      0.81s WALL (   43682 calls)
     vloc_psi     :     32.04s CPU     33.27s WALL (   43682 calls)
     add_vuspsi   :      0.35s CPU      0.55s WALL (   43682 calls)

     General routines
     calbec       :      1.54s CPU      1.34s WALL (   65932 calls)
     fft          :      0.27s CPU      0.27s WALL (    1056 calls)
     ffts         :      0.01s CPU      0.01s WALL (     123 calls)
     fftw         :     35.43s CPU     34.52s WALL (  780066 calls)
     interpolate  :      0.04s CPU      0.04s WALL (     123 calls)
     davcio       :      0.00s CPU      0.00s WALL (     500 calls)

     Parallel routines
     fft_scatter  :      6.69s CPU      7.69s WALL (  781245 calls)

     PWSCF        :  1m 3.49s CPU     1m 5.59s WALL


   This run was terminated on:  17: 0:29  20Dec2017            

=------------------------------------------------------------------------------=
   JOB DONE.
=------------------------------------------------------------------------------=
