
     Program MATDYN v.6.1 (svn rev. 13369) starts on 31Oct2017 at  0:44:42 

     This program is part of the open-source Quantum ESPRESSO suite
     for quantum simulation of materials; please cite
         "P. Giannozzi et al., J. Phys.:Condens. Matter 21 395502 (2009);
          URL http://www.quantum-espresso.org", 
     in publications or presentations arising from this work. More details at
     http://www.quantum-espresso.org/quote

     Parallel version (MPI), running on     1 processors
 mass for atomic type   1 not given; uses mass from file silicon.444.fc                                                                                                                                                                                                                                                  

     MATDYN       :     0.10s CPU         0.11s WALL


   This run was terminated on:   0:44:42  31Oct2017            

=------------------------------------------------------------------------------=
   JOB DONE.
=------------------------------------------------------------------------------=
