
     Program PHONON v.6.1 (svn rev. 13369) starts on 30Oct2017 at 14:28:15 

     This program is part of the open-source Quantum ESPRESSO suite
     for quantum simulation of materials; please cite
         "P. Giannozzi et al., J. Phys.:Condens. Matter 21 395502 (2009);
          URL http://www.quantum-espresso.org", 
     in publications or presentations arising from this work. More details at
     http://www.quantum-espresso.org/quote

     Parallel version (MPI), running on     1 processors

     Reading data from directory:
     ./silicon.save

   Info: using nr1, nr2, nr3 values from input

   Info: using nr1, nr2, nr3 values from input

     IMPORTANT: XC functional enforced from input :
     Exchange-correlation      =  SLA  PW   PBX  PBC ( 1  4  3  4 0 0)
     Any further DFT definition will be discarded
     Please, verify this is what you really want


     G-vector sticks info
     --------------------
     sticks:   dense  smooth     PW     G-vecs:    dense   smooth      PW
     Sum         253     253     91                 2741     2741     561


     Check: negative/imaginary core charge=   -0.000043    0.000000


     Dynamical matrices for ( 4, 4, 4)  uniform grid of q-points
     (   8q-points):
       N         xq(1)         xq(2)         xq(3) 
       1   0.000000000   0.000000000   0.000000000
       2  -0.250000000   0.250000000  -0.250000000
       3   0.500000000  -0.500000000   0.500000000
       4   0.000000000   0.500000000   0.000000000
       5   0.750000000  -0.250000000   0.750000000
       6   0.500000000   0.000000000   0.500000000
       7   0.000000000  -1.000000000   0.000000000
       8  -0.500000000  -1.000000000   0.000000000

     Calculation of q =    0.0000000   0.0000000   0.0000000

                                                                                

     bravais-lattice index     =            2
     lattice parameter (alat)  =      10.3400  a.u.
     unit-cell volume          =     276.3768 (a.u.)^3
     number of atoms/cell      =            2
     number of atomic types    =            1
     kinetic-energy cut-off    =      18.0000  Ry
     charge density cut-off    =      72.0000  Ry
     convergence threshold     =      1.0E-12
     beta                      =       0.7000
     number of iterations used =            4
     Exchange-correlation      =  SLA  PW   PBX  PBC ( 1  4  3  4 0 0)


     celldm(1)=   10.34000  celldm(2)=    0.00000  celldm(3)=    0.00000
     celldm(4)=    0.00000  celldm(5)=    0.00000  celldm(6)=    0.00000

     crystal axes: (cart. coord. in units of alat)
               a(1) = ( -0.5000  0.0000  0.5000 )  
               a(2) = (  0.0000  0.5000  0.5000 )  
               a(3) = ( -0.5000  0.5000  0.0000 )  

     reciprocal axes: (cart. coord. in units 2 pi/alat)
               b(1) = ( -1.0000 -1.0000  1.0000 )  
               b(2) = (  1.0000  1.0000  1.0000 )  
               b(3) = ( -1.0000  1.0000 -1.0000 )  


     Atoms inside the unit cell: 

     Cartesian axes

     site n.  atom      mass           positions (alat units)
        1     Si  28.0860   tau(    1) = (    0.00000    0.00000    0.00000  )
        2     Si  28.0860   tau(    2) = (    0.25000    0.25000    0.25000  )

     Computing dynamical matrix for 
                    q = (   0.0000000   0.0000000   0.0000000 )

     49 Sym.Ops. (with q -> -q+G )


     G cutoff =  194.9907  (   2741 G-vectors)     FFT grid: ( 20, 20, 20)
     number of k points=    10

     PseudoPot. # 1 for Si read from file:
     /home/max/quantum_espresso/qe-6.1/pseudo/Si.pbe-n-otfg.UPF
     MD5 check sum: 9493d466ad9c9e9c15d0f22cc9849f54
     Pseudo is Ultrasoft + core correction, Zval =  4.0
     Generated by new atomic code, or converted to UPF format
     Using radial grid of  899 points,  6 beta functions with: 
                l(1) =   0
                l(2) =   0
                l(3) =   1
                l(4) =   1
                l(5) =   2
                l(6) =   2
     Q(r) pseudized with  8 coefficients,  rinner =    1.250   1.250   1.250
                                                       1.250   1.250

     Mode symmetry, O_h (m-3m)  point group:


     Electric field:
     Dielectric constant
     Born effective charges in two ways 


     Atomic displacements:
     There are   2 irreducible representations

     Representation     1      3 modes -T_2g G_25' G_5+  To be done

     Representation     2      3 modes -T_1u G_15  G_4-  To be done



     Alpha used in Ewald sum =   0.7000
     PHONON       :     1.39s CPU         1.44s WALL


     Electric Fields Calculation

      iter #   1 total cpu time :     2.5 secs   av.it.:   5.6
      thresh= 1.000E-02 alpha_mix =  0.700 |ddv_scf|^2 =  8.076E-07

      iter #   2 total cpu time :     2.9 secs   av.it.:   9.8
      thresh= 8.986E-05 alpha_mix =  0.700 |ddv_scf|^2 =  4.735E-08

      iter #   3 total cpu time :     3.5 secs   av.it.:   9.6
      thresh= 2.176E-05 alpha_mix =  0.700 |ddv_scf|^2 =  3.456E-09

      iter #   4 total cpu time :     4.0 secs   av.it.:   9.2
      thresh= 5.879E-06 alpha_mix =  0.700 |ddv_scf|^2 =  1.976E-11

      iter #   5 total cpu time :     4.6 secs   av.it.:   9.2
      thresh= 4.445E-07 alpha_mix =  0.700 |ddv_scf|^2 =  1.752E-14

     End of electric fields calculation

          Dielectric constant in cartesian axis 

          (      13.914910013       0.000000000       0.000000000 )
          (       0.000000000      13.914910013      -0.000000000 )
          (       0.000000000      -0.000000000      13.914910013 )

          Effective charges (d Force / dE) in cartesian axis

           atom      1   Si 
      Ex  (       -0.00996        0.00000        0.00000 )
      Ey  (        0.00000       -0.00996        0.00000 )
      Ez  (        0.00000        0.00000       -0.00996 )
           atom      2   Si 
      Ex  (       -0.00996        0.00000       -0.00000 )
      Ey  (        0.00000       -0.00996       -0.00000 )
      Ez  (       -0.00000        0.00000       -0.00996 )


     Representation #  1 modes #   1  2  3

     Self-consistent Calculation

      iter #   1 total cpu time :     5.5 secs   av.it.:   4.9
      thresh= 1.000E-02 alpha_mix =  0.700 |ddv_scf|^2 =  2.499E-07

      iter #   2 total cpu time :     6.0 secs   av.it.:   9.4
      thresh= 4.999E-05 alpha_mix =  0.700 |ddv_scf|^2 =  1.819E-08

      iter #   3 total cpu time :     6.6 secs   av.it.:   9.1
      thresh= 1.349E-05 alpha_mix =  0.700 |ddv_scf|^2 =  6.674E-10

      iter #   4 total cpu time :     7.1 secs   av.it.:   9.1
      thresh= 2.583E-06 alpha_mix =  0.700 |ddv_scf|^2 =  1.481E-12

      iter #   5 total cpu time :     7.6 secs   av.it.:   9.5
      thresh= 1.217E-07 alpha_mix =  0.700 |ddv_scf|^2 =  1.611E-14

     End of self-consistent calculation

     Convergence has been achieved 


     Representation #  2 modes #   4  5  6

     Self-consistent Calculation

      iter #   1 total cpu time :     8.2 secs   av.it.:   5.1
      thresh= 1.000E-02 alpha_mix =  0.700 |ddv_scf|^2 =  2.304E-07

      iter #   2 total cpu time :     8.8 secs   av.it.:   9.2
      thresh= 4.800E-05 alpha_mix =  0.700 |ddv_scf|^2 =  1.887E-08

      iter #   3 total cpu time :     9.2 secs   av.it.:   9.0
      thresh= 1.374E-05 alpha_mix =  0.700 |ddv_scf|^2 =  5.957E-10

      iter #   4 total cpu time :     9.6 secs   av.it.:   9.6
      thresh= 2.441E-06 alpha_mix =  0.700 |ddv_scf|^2 =  2.767E-12

      iter #   5 total cpu time :    10.0 secs   av.it.:   9.2
      thresh= 1.663E-07 alpha_mix =  0.700 |ddv_scf|^2 =  7.544E-15

     End of self-consistent calculation

     Convergence has been achieved 

     Number of q in the star =    1
     List of q in the star:
          1   0.000000000   0.000000000   0.000000000

          Dielectric constant in cartesian axis 

          (      13.914910013       0.000000000       0.000000000 )
          (       0.000000000      13.914910013      -0.000000000 )
          (       0.000000000      -0.000000000      13.914910013 )

          Effective charges (d Force / dE) in cartesian axis

           atom      1   Si 
      Ex  (       -0.00996        0.00000        0.00000 )
      Ey  (        0.00000       -0.00996        0.00000 )
      Ez  (        0.00000        0.00000       -0.00996 )
           atom      2   Si 
      Ex  (       -0.00996        0.00000       -0.00000 )
      Ey  (        0.00000       -0.00996       -0.00000 )
      Ez  (       -0.00000        0.00000       -0.00996 )

          Effective charges (d P / du) in cartesian axis 

           atom      1   Si 
      Px  (       -0.06156        0.00000        0.00000 )
      Py  (        0.00000       -0.06156       -0.00000 )
      Pz  (        0.00000       -0.00000       -0.06156 )
           atom      2   Si 
      Px  (       -0.06156        0.00000        0.00000 )
      Py  (        0.00000       -0.06156       -0.00000 )
      Pz  (        0.00000        0.00000       -0.06156 )

     Diagonalizing the dynamical matrix

     q = (    0.000000000   0.000000000   0.000000000 ) 

 **************************************************************************
     freq (    1) =       1.609870 [THz] =      53.699490 [cm-1]
     freq (    2) =       1.609870 [THz] =      53.699490 [cm-1]
     freq (    3) =       1.609870 [THz] =      53.699490 [cm-1]
     freq (    4) =      15.082744 [THz] =     503.106174 [cm-1]
     freq (    5) =      15.082744 [THz] =     503.106174 [cm-1]
     freq (    6) =      15.082744 [THz] =     503.106174 [cm-1]
 **************************************************************************

     Mode symmetry, O_h (m-3m)  point group:

     freq (  1 -  3) =         53.7  [cm-1]   --> T_1u G_15  G_4- I  
     freq (  4 -  6) =        503.1  [cm-1]   --> T_2g G_25' G_5+ R  

     Calculation of q =   -0.2500000   0.2500000  -0.2500000

   Info: using nr1, nr2, nr3 values from input

   Info: using nr1, nr2, nr3 values from input

     G-vector sticks info
     --------------------
     sticks:   dense  smooth     PW     G-vecs:    dense   smooth      PW
     Sum         253     253     97                 2741     2741     645



     bravais-lattice index     =            2
     lattice parameter (alat)  =      10.3400  a.u.
     unit-cell volume          =     276.3768 (a.u.)^3
     number of atoms/cell      =            2
     number of atomic types    =            1
     number of electrons       =         8.00
     number of Kohn-Sham states=            4
     kinetic-energy cutoff     =      18.0000  Ry
     charge density cutoff     =      72.0000  Ry
     Exchange-correlation      =  SLA  PW   PBX  PBC ( 1  4  3  4 0 0)

     celldm(1)=  10.340000  celldm(2)=   0.000000  celldm(3)=   0.000000
     celldm(4)=   0.000000  celldm(5)=   0.000000  celldm(6)=   0.000000

     crystal axes: (cart. coord. in units of alat)
               a(1) = (  -0.500000   0.000000   0.500000 )  
               a(2) = (   0.000000   0.500000   0.500000 )  
               a(3) = (  -0.500000   0.500000   0.000000 )  

     reciprocal axes: (cart. coord. in units 2 pi/alat)
               b(1) = ( -1.000000 -1.000000  1.000000 )  
               b(2) = (  1.000000  1.000000  1.000000 )  
               b(3) = ( -1.000000  1.000000 -1.000000 )  


     PseudoPot. # 1 for Si read from file:
     /home/max/quantum_espresso/qe-6.1/pseudo/Si.pbe-n-otfg.UPF
     MD5 check sum: 9493d466ad9c9e9c15d0f22cc9849f54
     Pseudo is Ultrasoft + core correction, Zval =  4.0
     Generated by new atomic code, or converted to UPF format
     Using radial grid of  899 points,  6 beta functions with: 
                l(1) =   0
                l(2) =   0
                l(3) =   1
                l(4) =   1
                l(5) =   2
                l(6) =   2
     Q(r) pseudized with  8 coefficients,  rinner =    1.250   1.250   1.250
                                                       1.250   1.250

     atomic species   valence    mass     pseudopotential
        Si             4.00    28.08600     Si( 1.00)

     48 Sym. Ops., with inversion, found



   Cartesian axes

     site n.     atom                  positions (alat units)
         1           Si  tau(   1) = (   0.0000000   0.0000000   0.0000000  )
         2           Si  tau(   2) = (   0.2500000   0.2500000   0.2500000  )

     number of k points=   120

     Number of k-points >= 100: set verbosity='high' to print them.

     Dense  grid:     2741 G-vectors     FFT dimensions: (  20,  20,  20)

     Estimated max dynamical RAM per process >       1.28MB

     Check: negative/imaginary core charge=   -0.000043    0.000000

     The potential is recalculated from file :
     ./_ph0/silicon.save/charge-density.dat

     Starting wfc are    8 atomic wfcs

     Band Structure Calculation
     Davidson diagonalization with overlap

     ethr =  1.25E-10,  avg # of iterations = 11.7

     total cpu time spent up to now is        2.0 secs

     End of band structure calculation

     Number of k-points >= 100: set verbosity='high' to print the bands.

     highest occupied level (ev):     5.6889

     Writing output data file silicon.save

                                                                                

     bravais-lattice index     =            2
     lattice parameter (alat)  =      10.3400  a.u.
     unit-cell volume          =     276.3768 (a.u.)^3
     number of atoms/cell      =            2
     number of atomic types    =            1
     kinetic-energy cut-off    =      18.0000  Ry
     charge density cut-off    =      72.0000  Ry
     convergence threshold     =      1.0E-12
     beta                      =       0.7000
     number of iterations used =            4
     Exchange-correlation      =  SLA  PW   PBX  PBC ( 1  4  3  4 0 0)


     celldm(1)=   10.34000  celldm(2)=    0.00000  celldm(3)=    0.00000
     celldm(4)=    0.00000  celldm(5)=    0.00000  celldm(6)=    0.00000

     crystal axes: (cart. coord. in units of alat)
               a(1) = ( -0.5000  0.0000  0.5000 )  
               a(2) = (  0.0000  0.5000  0.5000 )  
               a(3) = ( -0.5000  0.5000  0.0000 )  

     reciprocal axes: (cart. coord. in units 2 pi/alat)
               b(1) = ( -1.0000 -1.0000  1.0000 )  
               b(2) = (  1.0000  1.0000  1.0000 )  
               b(3) = ( -1.0000  1.0000 -1.0000 )  


     Atoms inside the unit cell: 

     Cartesian axes

     site n.  atom      mass           positions (alat units)
        1     Si  28.0860   tau(    1) = (    0.00000    0.00000    0.00000  )
        2     Si  28.0860   tau(    2) = (    0.25000    0.25000    0.25000  )

     Computing dynamical matrix for 
                    q = (  -0.2500000   0.2500000  -0.2500000 )

      6 Sym.Ops. (no q -> -q+G )


     G cutoff =  194.9907  (   2741 G-vectors)     FFT grid: ( 20, 20, 20)
     number of k points=   120

     PseudoPot. # 1 for Si read from file:
     /home/max/quantum_espresso/qe-6.1/pseudo/Si.pbe-n-otfg.UPF
     MD5 check sum: 9493d466ad9c9e9c15d0f22cc9849f54
     Pseudo is Ultrasoft + core correction, Zval =  4.0
     Generated by new atomic code, or converted to UPF format
     Using radial grid of  899 points,  6 beta functions with: 
                l(1) =   0
                l(2) =   0
                l(3) =   1
                l(4) =   1
                l(5) =   2
                l(6) =   2
     Q(r) pseudized with  8 coefficients,  rinner =    1.250   1.250   1.250
                                                       1.250   1.250

     Mode symmetry, C_3v (3m)   point group:


     Atomic displacements:
     There are   4 irreducible representations

     Representation     1      1 modes -A_1  L_1  To be done

     Representation     2      1 modes -A_1  L_1  To be done

     Representation     3      2 modes -E    L_3  To be done

     Representation     4      2 modes -E    L_3  To be done



     Alpha used in Ewald sum =   0.7000
     PHONON       :    13.14s CPU        13.65s WALL



     Representation #  1 mode #   1

     Self-consistent Calculation

      iter #   1 total cpu time :    14.5 secs   av.it.:   5.5
      thresh= 1.000E-02 alpha_mix =  0.700 |ddv_scf|^2 =  2.476E-03

      iter #   2 total cpu time :    15.5 secs   av.it.:   7.2
      thresh= 4.976E-03 alpha_mix =  0.700 |ddv_scf|^2 =  3.762E-02

      iter #   3 total cpu time :    16.0 secs   av.it.:   6.2
      thresh= 1.000E-02 alpha_mix =  0.700 |ddv_scf|^2 =  1.735E-06

      iter #   4 total cpu time :    16.8 secs   av.it.:   7.9
      thresh= 1.317E-04 alpha_mix =  0.700 |ddv_scf|^2 =  1.086E-07

      iter #   5 total cpu time :    17.3 secs   av.it.:   7.7
      thresh= 3.295E-05 alpha_mix =  0.700 |ddv_scf|^2 =  5.544E-09

      iter #   6 total cpu time :    18.0 secs   av.it.:   7.6
      thresh= 7.445E-06 alpha_mix =  0.700 |ddv_scf|^2 =  5.587E-10

      iter #   7 total cpu time :    18.8 secs   av.it.:   7.1
      thresh= 2.364E-06 alpha_mix =  0.700 |ddv_scf|^2 =  1.022E-09

      iter #   8 total cpu time :    19.3 secs   av.it.:   6.2
      thresh= 3.196E-06 alpha_mix =  0.700 |ddv_scf|^2 =  4.286E-12

      iter #   9 total cpu time :    20.0 secs   av.it.:   7.1
      thresh= 2.070E-07 alpha_mix =  0.700 |ddv_scf|^2 =  5.812E-13

     End of self-consistent calculation

     Convergence has been achieved 


     Representation #  2 mode #   2

     Self-consistent Calculation

      iter #   1 total cpu time :    20.8 secs   av.it.:   5.5
      thresh= 1.000E-02 alpha_mix =  0.700 |ddv_scf|^2 =  2.476E-03

      iter #   2 total cpu time :    21.4 secs   av.it.:   7.2
      thresh= 4.976E-03 alpha_mix =  0.700 |ddv_scf|^2 =  3.762E-02

      iter #   3 total cpu time :    21.9 secs   av.it.:   6.2
      thresh= 1.000E-02 alpha_mix =  0.700 |ddv_scf|^2 =  1.735E-06

      iter #   4 total cpu time :    22.8 secs   av.it.:   7.9
      thresh= 1.317E-04 alpha_mix =  0.700 |ddv_scf|^2 =  1.086E-07

      iter #   5 total cpu time :    23.3 secs   av.it.:   7.7
      thresh= 3.295E-05 alpha_mix =  0.700 |ddv_scf|^2 =  5.544E-09

      iter #   6 total cpu time :    23.9 secs   av.it.:   7.6
      thresh= 7.445E-06 alpha_mix =  0.700 |ddv_scf|^2 =  5.587E-10

      iter #   7 total cpu time :    24.6 secs   av.it.:   7.1
      thresh= 2.364E-06 alpha_mix =  0.700 |ddv_scf|^2 =  1.022E-09

      iter #   8 total cpu time :    25.5 secs   av.it.:   6.2
      thresh= 3.196E-06 alpha_mix =  0.700 |ddv_scf|^2 =  4.286E-12

      iter #   9 total cpu time :    26.5 secs   av.it.:   7.1
      thresh= 2.070E-07 alpha_mix =  0.700 |ddv_scf|^2 =  5.812E-13

     End of self-consistent calculation

     Convergence has been achieved 


     Representation #  3 modes #   3  4

     Self-consistent Calculation

      iter #   1 total cpu time :    27.6 secs   av.it.:   5.0
      thresh= 1.000E-02 alpha_mix =  0.700 |ddv_scf|^2 =  6.458E-07

      iter #   2 total cpu time :    29.3 secs   av.it.:   9.1
      thresh= 8.036E-05 alpha_mix =  0.700 |ddv_scf|^2 =  5.325E-08

      iter #   3 total cpu time :    30.7 secs   av.it.:   9.0
      thresh= 2.308E-05 alpha_mix =  0.700 |ddv_scf|^2 =  3.390E-09

      iter #   4 total cpu time :    31.9 secs   av.it.:   9.0
      thresh= 5.822E-06 alpha_mix =  0.700 |ddv_scf|^2 =  6.869E-12

      iter #   5 total cpu time :    33.6 secs   av.it.:   9.2
      thresh= 2.621E-07 alpha_mix =  0.700 |ddv_scf|^2 =  4.263E-13

     End of self-consistent calculation

     Convergence has been achieved 


     Representation #  4 modes #   5  6

     Self-consistent Calculation

      iter #   1 total cpu time :    34.8 secs   av.it.:   5.1
      thresh= 1.000E-02 alpha_mix =  0.700 |ddv_scf|^2 =  6.454E-07

      iter #   2 total cpu time :    36.2 secs   av.it.:   9.2
      thresh= 8.034E-05 alpha_mix =  0.700 |ddv_scf|^2 =  5.312E-08

      iter #   3 total cpu time :    37.8 secs   av.it.:   9.1
      thresh= 2.305E-05 alpha_mix =  0.700 |ddv_scf|^2 =  3.378E-09

      iter #   4 total cpu time :    39.6 secs   av.it.:   9.1
      thresh= 5.812E-06 alpha_mix =  0.700 |ddv_scf|^2 =  6.878E-12

      iter #   5 total cpu time :    41.0 secs   av.it.:   9.2
      thresh= 2.623E-07 alpha_mix =  0.700 |ddv_scf|^2 =  4.253E-13

     End of self-consistent calculation

     Convergence has been achieved 

     Number of q in the star =    8
     List of q in the star:
          1  -0.250000000   0.250000000  -0.250000000
          2   0.250000000  -0.250000000  -0.250000000
          3   0.250000000  -0.250000000   0.250000000
          4   0.250000000   0.250000000   0.250000000
          5  -0.250000000  -0.250000000  -0.250000000
          6  -0.250000000  -0.250000000   0.250000000
          7  -0.250000000   0.250000000   0.250000000
          8   0.250000000   0.250000000  -0.250000000

     Diagonalizing the dynamical matrix

     q = (   -0.250000000   0.250000000  -0.250000000 ) 

 **************************************************************************
     freq (    1) =       3.087981 [THz] =     103.003950 [cm-1]
     freq (    2) =       3.087981 [THz] =     103.003950 [cm-1]
     freq (    3) =       6.679232 [THz] =     222.795184 [cm-1]
     freq (    4) =      14.082022 [THz] =     469.725684 [cm-1]
     freq (    5) =      14.448956 [THz] =     481.965296 [cm-1]
     freq (    6) =      14.448956 [THz] =     481.965296 [cm-1]
 **************************************************************************

     Mode symmetry, C_3v (3m)   point group:

     freq (  1 -  2) =        103.0  [cm-1]   --> E    L_3           
     freq (  3 -  3) =        222.8  [cm-1]   --> A_1  L_1           
     freq (  4 -  4) =        469.7  [cm-1]   --> A_1  L_1           
     freq (  5 -  6) =        482.0  [cm-1]   --> E    L_3           

     Calculation of q =    0.5000000  -0.5000000   0.5000000

   Info: using nr1, nr2, nr3 values from input

   Info: using nr1, nr2, nr3 values from input

     G-vector sticks info
     --------------------
     sticks:   dense  smooth     PW     G-vecs:    dense   smooth      PW
     Sum         253     253    109                 2741     2741     749



     bravais-lattice index     =            2
     lattice parameter (alat)  =      10.3400  a.u.
     unit-cell volume          =     276.3768 (a.u.)^3
     number of atoms/cell      =            2
     number of atomic types    =            1
     number of electrons       =         8.00
     number of Kohn-Sham states=            4
     kinetic-energy cutoff     =      18.0000  Ry
     charge density cutoff     =      72.0000  Ry
     Exchange-correlation      =  SLA  PW   PBX  PBC ( 1  4  3  4 0 0)

     celldm(1)=  10.340000  celldm(2)=   0.000000  celldm(3)=   0.000000
     celldm(4)=   0.000000  celldm(5)=   0.000000  celldm(6)=   0.000000

     crystal axes: (cart. coord. in units of alat)
               a(1) = (  -0.500000   0.000000   0.500000 )  
               a(2) = (   0.000000   0.500000   0.500000 )  
               a(3) = (  -0.500000   0.500000   0.000000 )  

     reciprocal axes: (cart. coord. in units 2 pi/alat)
               b(1) = ( -1.000000 -1.000000  1.000000 )  
               b(2) = (  1.000000  1.000000  1.000000 )  
               b(3) = ( -1.000000  1.000000 -1.000000 )  


     PseudoPot. # 1 for Si read from file:
     /home/max/quantum_espresso/qe-6.1/pseudo/Si.pbe-n-otfg.UPF
     MD5 check sum: 9493d466ad9c9e9c15d0f22cc9849f54
     Pseudo is Ultrasoft + core correction, Zval =  4.0
     Generated by new atomic code, or converted to UPF format
     Using radial grid of  899 points,  6 beta functions with: 
                l(1) =   0
                l(2) =   0
                l(3) =   1
                l(4) =   1
                l(5) =   2
                l(6) =   2
     Q(r) pseudized with  8 coefficients,  rinner =    1.250   1.250   1.250
                                                       1.250   1.250

     atomic species   valence    mass     pseudopotential
        Si             4.00    28.08600     Si( 1.00)

     48 Sym. Ops., with inversion, found



   Cartesian axes

     site n.     atom                  positions (alat units)
         1           Si  tau(   1) = (   0.0000000   0.0000000   0.0000000  )
         2           Si  tau(   2) = (   0.2500000   0.2500000   0.2500000  )

     number of k points=    60
                       cart. coord. in units 2pi/alat
        k(    1) = (  -0.1250000   0.1250000   0.1250000), wk =   0.0468750
        k(    2) = (   0.3750000  -0.3750000   0.6250000), wk =   0.0000000
        k(    3) = (  -0.3750000   0.3750000  -0.1250000), wk =   0.0468750
        k(    4) = (   0.1250000  -0.1250000   0.3750000), wk =   0.0000000
        k(    5) = (   0.3750000  -0.3750000   0.6250000), wk =   0.0468750
        k(    6) = (   0.8750000  -0.8750000   1.1250000), wk =   0.0000000
        k(    7) = (   0.1250000  -0.1250000   0.3750000), wk =   0.0468750
        k(    8) = (   0.6250000  -0.6250000   0.8750000), wk =   0.0000000
        k(    9) = (  -0.1250000   0.6250000   0.1250000), wk =   0.0937500
        k(   10) = (   0.3750000   0.1250000   0.6250000), wk =   0.0000000
        k(   11) = (   0.6250000  -0.1250000   0.8750000), wk =   0.0937500
        k(   12) = (   1.1250000  -0.6250000   1.3750000), wk =   0.0000000
        k(   13) = (   0.3750000   0.1250000   0.6250000), wk =   0.0937500
        k(   14) = (   0.8750000  -0.3750000   1.1250000), wk =   0.0000000
        k(   15) = (  -0.1250000  -0.8750000   0.1250000), wk =   0.0937500
        k(   16) = (   0.3750000  -1.3750000   0.6250000), wk =   0.0000000
        k(   17) = (  -0.3750000   0.3750000   0.3750000), wk =   0.0468750
        k(   18) = (   0.1250000  -0.1250000   0.8750000), wk =   0.0000000
        k(   19) = (   0.3750000  -0.3750000   1.1250000), wk =   0.0468750
        k(   20) = (   0.8750000  -0.8750000   1.6250000), wk =   0.0000000
        k(   21) = (   0.1250000  -0.1250000   0.1250000), wk =   0.0156250
        k(   22) = (   0.6250000  -0.6250000   0.6250000), wk =   0.0000000
        k(   23) = (  -0.3750000  -0.3750000  -0.1250000), wk =   0.0937500
        k(   24) = (   0.1250000  -0.8750000   0.3750000), wk =   0.0000000
        k(   25) = (  -0.1250000  -0.3750000   0.3750000), wk =   0.0468750
        k(   26) = (   0.3750000  -0.8750000   0.8750000), wk =   0.0000000
        k(   27) = (   0.3750000   0.3750000   0.6250000), wk =   0.0937500
        k(   28) = (   0.8750000  -0.1250000   1.1250000), wk =   0.0000000
        k(   29) = (   0.6250000   0.3750000  -0.3750000), wk =   0.0468750
        k(   30) = (   1.1250000  -0.1250000   0.1250000), wk =   0.0000000
        k(   31) = (   0.1250000   0.1250000   0.3750000), wk =   0.0937500
        k(   32) = (   0.6250000  -0.3750000   0.8750000), wk =   0.0000000
        k(   33) = (   0.3750000   0.1250000  -0.1250000), wk =   0.0468750
        k(   34) = (   0.8750000  -0.3750000   0.3750000), wk =   0.0000000
        k(   35) = (  -0.1250000  -0.6250000  -0.1250000), wk =   0.0468750
        k(   36) = (   0.3750000  -1.1250000   0.3750000), wk =   0.0000000
        k(   37) = (   0.1250000  -0.6250000   0.1250000), wk =   0.0468750
        k(   38) = (   0.6250000  -1.1250000   0.6250000), wk =   0.0000000
        k(   39) = (   0.6250000   0.1250000   0.8750000), wk =   0.0937500
        k(   40) = (   1.1250000  -0.3750000   1.3750000), wk =   0.0000000
        k(   41) = (  -0.8750000   0.1250000   0.6250000), wk =   0.0937500
        k(   42) = (  -0.3750000  -0.3750000   1.1250000), wk =   0.0000000
        k(   43) = (   0.8750000   0.1250000  -0.6250000), wk =   0.0937500
        k(   44) = (   1.3750000  -0.3750000  -0.1250000), wk =   0.0000000
        k(   45) = (   0.3750000  -0.1250000   0.6250000), wk =   0.0937500
        k(   46) = (   0.8750000  -0.6250000   1.1250000), wk =   0.0000000
        k(   47) = (  -0.6250000  -0.1250000   0.3750000), wk =   0.0937500
        k(   48) = (  -0.1250000  -0.6250000   0.8750000), wk =   0.0000000
        k(   49) = (   0.6250000  -0.1250000  -0.3750000), wk =   0.0937500
        k(   50) = (   1.1250000  -0.6250000   0.1250000), wk =   0.0000000
        k(   51) = (  -0.1250000   0.8750000  -0.1250000), wk =   0.0468750
        k(   52) = (   0.3750000   0.3750000   0.3750000), wk =   0.0000000
        k(   53) = (   0.1250000   0.8750000   0.1250000), wk =   0.0468750
        k(   54) = (   0.6250000   0.3750000   0.6250000), wk =   0.0000000
        k(   55) = (   0.3750000  -0.3750000   0.3750000), wk =   0.0156250
        k(   56) = (   0.8750000  -0.8750000   0.8750000), wk =   0.0000000
        k(   57) = (   0.3750000   0.3750000   1.1250000), wk =   0.0937500
        k(   58) = (   0.8750000  -0.1250000   1.6250000), wk =   0.0000000
        k(   59) = (   1.1250000   0.3750000  -0.3750000), wk =   0.0468750
        k(   60) = (   1.6250000  -0.1250000   0.1250000), wk =   0.0000000

     Dense  grid:     2741 G-vectors     FFT dimensions: (  20,  20,  20)

     Estimated max dynamical RAM per process >       1.28MB

     Check: negative/imaginary core charge=   -0.000043    0.000000

     The potential is recalculated from file :
     ./_ph0/silicon.save/charge-density.dat

     Starting wfc are    8 atomic wfcs

     Band Structure Calculation
     Davidson diagonalization with overlap

     ethr =  1.25E-10,  avg # of iterations = 11.7

     total cpu time spent up to now is        3.4 secs

     End of band structure calculation

          k =-0.1250 0.1250 0.1250 (   338 PWs)   bands (ev):

    -5.6327   4.3798   5.6889   5.6889

          k = 0.3750-0.3750 0.6250 (   361 PWs)   bands (ev):

    -3.4742  -0.6802   3.7271   4.4389

          k =-0.3750 0.3750-0.1250 (   352 PWs)   bands (ev):

    -4.6091   1.3909   3.7080   5.2084

          k = 0.1250-0.1250 0.3750 (   353 PWs)   bands (ev):

    -5.1064   2.7639   4.6829   4.7460

          k = 0.3750-0.3750 0.6250 (   361 PWs)   bands (ev):

    -3.4742  -0.6802   3.7271   4.4389

          k = 0.8750-0.8750 1.1250 (   338 PWs)   bands (ev):

    -5.6327   4.3798   5.6889   5.6889

          k = 0.1250-0.1250 0.3750 (   353 PWs)   bands (ev):

    -5.1064   2.7639   4.6829   4.7460

          k = 0.6250-0.6250 0.8750 (   352 PWs)   bands (ev):

    -4.6091   1.3909   3.7080   5.2084

          k =-0.1250 0.6250 0.1250 (   351 PWs)   bands (ev):

    -4.0778   1.0537   3.3609   3.8106

          k = 0.3750 0.1250 0.6250 (   357 PWs)   bands (ev):

    -3.6640   0.1847   2.7210   4.0854

          k = 0.6250-0.1250 0.8750 (   361 PWs)   bands (ev):

    -2.4435  -0.9047   2.0128   3.0845

          k = 1.1250-0.6250 1.3750 (   352 PWs)   bands (ev):

    -4.6091   1.3909   3.7080   5.2084

          k = 0.3750 0.1250 0.6250 (   357 PWs)   bands (ev):

    -3.6640   0.1847   2.7210   4.0854

          k = 0.8750-0.3750 1.1250 (   351 PWs)   bands (ev):

    -4.0778   1.0537   3.3609   3.8106

          k =-0.1250-0.8750 0.1250 (   358 PWs)   bands (ev):

    -2.6098  -0.8079   2.6194   3.3447

          k = 0.3750-1.3750 0.6250 (   361 PWs)   bands (ev):

    -3.4742  -0.6802   3.7271   4.4389

          k =-0.3750 0.3750 0.3750 (   353 PWs)   bands (ev):

    -4.1780   0.1059   4.9022   4.9022

          k = 0.1250-0.1250 0.8750 (   358 PWs)   bands (ev):

    -2.6098  -0.8079   2.6194   3.3447

          k = 0.3750-0.3750 1.1250 (   361 PWs)   bands (ev):

    -2.9795  -0.5997   2.0697   4.1230

          k = 0.8750-0.8750 1.6250 (   351 PWs)   bands (ev):

    -4.0778   1.0537   3.3609   3.8106

          k = 0.1250-0.1250 0.1250 (   338 PWs)   bands (ev):

    -5.6327   4.3798   5.6889   5.6889

          k = 0.6250-0.6250 0.6250 (   353 PWs)   bands (ev):

    -4.1780   0.1059   4.9022   4.9022

          k =-0.3750-0.3750-0.1250 (   352 PWs)   bands (ev):

    -4.6091   1.3909   3.7080   5.2084

          k = 0.1250-0.8750 0.3750 (   361 PWs)   bands (ev):

    -2.4435  -0.9047   2.0128   3.0845

          k =-0.1250-0.3750 0.3750 (   352 PWs)   bands (ev):

    -4.6091   1.3909   3.7080   5.2084

          k = 0.3750-0.8750 0.8750 (   351 PWs)   bands (ev):

    -4.0778   1.0537   3.3609   3.8106

          k = 0.3750 0.3750 0.6250 (   361 PWs)   bands (ev):

    -3.4742  -0.6802   3.7271   4.4389

          k = 0.8750-0.1250 1.1250 (   358 PWs)   bands (ev):

    -2.6098  -0.8079   2.6194   3.3447

          k = 0.6250 0.3750-0.3750 (   361 PWs)   bands (ev):

    -3.4742  -0.6802   3.7271   4.4389

          k = 1.1250-0.1250 0.1250 (   358 PWs)   bands (ev):

    -2.6098  -0.8079   2.6194   3.3447

          k = 0.1250 0.1250 0.3750 (   353 PWs)   bands (ev):

    -5.1064   2.7639   4.6829   4.7460

          k = 0.6250-0.3750 0.8750 (   357 PWs)   bands (ev):

    -3.6640   0.1847   2.7210   4.0854

          k = 0.3750 0.1250-0.1250 (   353 PWs)   bands (ev):

    -5.1064   2.7639   4.6829   4.7460

          k = 0.8750-0.3750 0.3750 (   361 PWs)   bands (ev):

    -2.9795  -0.5997   2.0697   4.1230

          k =-0.1250-0.6250-0.1250 (   351 PWs)   bands (ev):

    -4.0778   1.0537   3.3609   3.8106

          k = 0.3750-1.1250 0.3750 (   361 PWs)   bands (ev):

    -2.9795  -0.5997   2.0697   4.1230

          k = 0.1250-0.6250 0.1250 (   351 PWs)   bands (ev):

    -4.0778   1.0537   3.3609   3.8106

          k = 0.6250-1.1250 0.6250 (   352 PWs)   bands (ev):

    -4.6091   1.3909   3.7080   5.2084

          k = 0.6250 0.1250 0.8750 (   361 PWs)   bands (ev):

    -2.4435  -0.9047   2.0128   3.0845

          k = 1.1250-0.3750 1.3750 (   357 PWs)   bands (ev):

    -3.6640   0.1847   2.7210   4.0854

          k =-0.8750 0.1250 0.6250 (   361 PWs)   bands (ev):

    -2.4435  -0.9047   2.0128   3.0845

          k =-0.3750-0.3750 1.1250 (   361 PWs)   bands (ev):

    -2.9795  -0.5997   2.0697   4.1230

          k = 0.8750 0.1250-0.6250 (   361 PWs)   bands (ev):

    -2.4435  -0.9047   2.0128   3.0845

          k = 1.3750-0.3750-0.1250 (   357 PWs)   bands (ev):

    -3.6640   0.1847   2.7210   4.0854

          k = 0.3750-0.1250 0.6250 (   357 PWs)   bands (ev):

    -3.6640   0.1847   2.7210   4.0854

          k = 0.8750-0.6250 1.1250 (   353 PWs)   bands (ev):

    -5.1064   2.7639   4.6829   4.7460

          k =-0.6250-0.1250 0.3750 (   357 PWs)   bands (ev):

    -3.6640   0.1847   2.7210   4.0854

          k =-0.1250-0.6250 0.8750 (   361 PWs)   bands (ev):

    -2.4435  -0.9047   2.0128   3.0845

          k = 0.6250-0.1250-0.3750 (   357 PWs)   bands (ev):

    -3.6640   0.1847   2.7210   4.0854

          k = 1.1250-0.6250 0.1250 (   361 PWs)   bands (ev):

    -2.4435  -0.9047   2.0128   3.0845

          k =-0.1250 0.8750-0.1250 (   358 PWs)   bands (ev):

    -2.6098  -0.8079   2.6194   3.3447

          k = 0.3750 0.3750 0.3750 (   353 PWs)   bands (ev):

    -4.1780   0.1059   4.9022   4.9022

          k = 0.1250 0.8750 0.1250 (   358 PWs)   bands (ev):

    -2.6098  -0.8079   2.6194   3.3447

          k = 0.6250 0.3750 0.6250 (   361 PWs)   bands (ev):

    -3.4742  -0.6802   3.7271   4.4389

          k = 0.3750-0.3750 0.3750 (   353 PWs)   bands (ev):

    -4.1780   0.1059   4.9022   4.9022

          k = 0.8750-0.8750 0.8750 (   338 PWs)   bands (ev):

    -5.6327   4.3798   5.6889   5.6889

          k = 0.3750 0.3750 1.1250 (   361 PWs)   bands (ev):

    -2.9795  -0.5997   2.0697   4.1230

          k = 0.8750-0.1250 1.6250 (   361 PWs)   bands (ev):

    -2.4435  -0.9047   2.0128   3.0845

          k = 1.1250 0.3750-0.3750 (   361 PWs)   bands (ev):

    -2.9795  -0.5997   2.0697   4.1230

          k = 1.6250-0.1250 0.1250 (   353 PWs)   bands (ev):

    -5.1064   2.7639   4.6829   4.7460

     highest occupied level (ev):     5.6889

     Writing output data file silicon.save

                                                                                

     bravais-lattice index     =            2
     lattice parameter (alat)  =      10.3400  a.u.
     unit-cell volume          =     276.3768 (a.u.)^3
     number of atoms/cell      =            2
     number of atomic types    =            1
     kinetic-energy cut-off    =      18.0000  Ry
     charge density cut-off    =      72.0000  Ry
     convergence threshold     =      1.0E-12
     beta                      =       0.7000
     number of iterations used =            4
     Exchange-correlation      =  SLA  PW   PBX  PBC ( 1  4  3  4 0 0)


     celldm(1)=   10.34000  celldm(2)=    0.00000  celldm(3)=    0.00000
     celldm(4)=    0.00000  celldm(5)=    0.00000  celldm(6)=    0.00000

     crystal axes: (cart. coord. in units of alat)
               a(1) = ( -0.5000  0.0000  0.5000 )  
               a(2) = (  0.0000  0.5000  0.5000 )  
               a(3) = ( -0.5000  0.5000  0.0000 )  

     reciprocal axes: (cart. coord. in units 2 pi/alat)
               b(1) = ( -1.0000 -1.0000  1.0000 )  
               b(2) = (  1.0000  1.0000  1.0000 )  
               b(3) = ( -1.0000  1.0000 -1.0000 )  


     Atoms inside the unit cell: 

     Cartesian axes

     site n.  atom      mass           positions (alat units)
        1     Si  28.0860   tau(    1) = (    0.00000    0.00000    0.00000  )
        2     Si  28.0860   tau(    2) = (    0.25000    0.25000    0.25000  )

     Computing dynamical matrix for 
                    q = (   0.5000000  -0.5000000   0.5000000 )

     13 Sym.Ops. (with q -> -q+G )


     G cutoff =  194.9907  (   2741 G-vectors)     FFT grid: ( 20, 20, 20)
     number of k points=    60

     PseudoPot. # 1 for Si read from file:
     /home/max/quantum_espresso/qe-6.1/pseudo/Si.pbe-n-otfg.UPF
     MD5 check sum: 9493d466ad9c9e9c15d0f22cc9849f54
     Pseudo is Ultrasoft + core correction, Zval =  4.0
     Generated by new atomic code, or converted to UPF format
     Using radial grid of  899 points,  6 beta functions with: 
                l(1) =   0
                l(2) =   0
                l(3) =   1
                l(4) =   1
                l(5) =   2
                l(6) =   2
     Q(r) pseudized with  8 coefficients,  rinner =    1.250   1.250   1.250
                                                       1.250   1.250


     Atomic displacements:
     There are   4 irreducible representations

     Representation     1      1 modes -  To be done

     Representation     2      1 modes -  To be done

     Representation     3      2 modes -  To be done

     Representation     4      2 modes -  To be done



     Alpha used in Ewald sum =   0.7000
     PHONON       :    41.30s CPU        43.34s WALL



     Representation #  1 mode #   1

     Self-consistent Calculation

      iter #   1 total cpu time :    43.6 secs   av.it.:   4.9
      thresh= 1.000E-02 alpha_mix =  0.700 |ddv_scf|^2 =  2.583E-05

      iter #   2 total cpu time :    43.9 secs   av.it.:   7.9
      thresh= 5.083E-04 alpha_mix =  0.700 |ddv_scf|^2 =  2.291E-05

      iter #   3 total cpu time :    44.3 secs   av.it.:   7.1
      thresh= 4.786E-04 alpha_mix =  0.700 |ddv_scf|^2 =  5.630E-08

      iter #   4 total cpu time :    44.8 secs   av.it.:   7.4
      thresh= 2.373E-05 alpha_mix =  0.700 |ddv_scf|^2 =  2.001E-10

      iter #   5 total cpu time :    45.3 secs   av.it.:   7.7
      thresh= 1.415E-06 alpha_mix =  0.700 |ddv_scf|^2 =  3.707E-12

      iter #   6 total cpu time :    45.6 secs   av.it.:   7.9
      thresh= 1.925E-07 alpha_mix =  0.700 |ddv_scf|^2 =  8.595E-14

     End of self-consistent calculation

     Convergence has been achieved 


     Representation #  2 mode #   2

     Self-consistent Calculation

      iter #   1 total cpu time :    45.9 secs   av.it.:   5.5
      thresh= 1.000E-02 alpha_mix =  0.700 |ddv_scf|^2 =  3.422E-04

      iter #   2 total cpu time :    46.2 secs   av.it.:   8.1
      thresh= 1.850E-03 alpha_mix =  0.700 |ddv_scf|^2 =  1.061E-03

      iter #   3 total cpu time :    46.7 secs   av.it.:   7.0
      thresh= 3.258E-03 alpha_mix =  0.700 |ddv_scf|^2 =  1.379E-07

      iter #   4 total cpu time :    47.2 secs   av.it.:   8.1
      thresh= 3.714E-05 alpha_mix =  0.700 |ddv_scf|^2 =  1.015E-08

      iter #   5 total cpu time :    47.5 secs   av.it.:   8.1
      thresh= 1.007E-05 alpha_mix =  0.700 |ddv_scf|^2 =  1.140E-10

      iter #   6 total cpu time :    47.8 secs   av.it.:   8.0
      thresh= 1.068E-06 alpha_mix =  0.700 |ddv_scf|^2 =  3.161E-12

      iter #   7 total cpu time :    48.2 secs   av.it.:   7.9
      thresh= 1.778E-07 alpha_mix =  0.700 |ddv_scf|^2 =  9.555E-15

     End of self-consistent calculation

     Convergence has been achieved 


     Representation #  3 modes #   3  4

     Self-consistent Calculation

      iter #   1 total cpu time :    49.0 secs   av.it.:   4.7
      thresh= 1.000E-02 alpha_mix =  0.700 |ddv_scf|^2 =  4.669E-07

      iter #   2 total cpu time :    49.7 secs   av.it.:   8.5
      thresh= 6.833E-05 alpha_mix =  0.700 |ddv_scf|^2 =  3.662E-08

      iter #   3 total cpu time :    50.4 secs   av.it.:   8.3
      thresh= 1.914E-05 alpha_mix =  0.700 |ddv_scf|^2 =  2.410E-10

      iter #   4 total cpu time :    51.4 secs   av.it.:   9.1
      thresh= 1.552E-06 alpha_mix =  0.700 |ddv_scf|^2 =  4.633E-12

      iter #   5 total cpu time :    52.0 secs   av.it.:   8.8
      thresh= 2.152E-07 alpha_mix =  0.700 |ddv_scf|^2 =  5.545E-14

     End of self-consistent calculation

     Convergence has been achieved 


     Representation #  4 modes #   5  6

     Self-consistent Calculation

      iter #   1 total cpu time :    52.9 secs   av.it.:   5.0
      thresh= 1.000E-02 alpha_mix =  0.700 |ddv_scf|^2 =  1.012E-06

      iter #   2 total cpu time :    53.7 secs   av.it.:   9.2
      thresh= 1.006E-04 alpha_mix =  0.700 |ddv_scf|^2 =  9.391E-08

      iter #   3 total cpu time :    54.6 secs   av.it.:   9.0
      thresh= 3.064E-05 alpha_mix =  0.700 |ddv_scf|^2 =  5.713E-09

      iter #   4 total cpu time :    55.2 secs   av.it.:   8.7
      thresh= 7.558E-06 alpha_mix =  0.700 |ddv_scf|^2 =  4.707E-12

      iter #   5 total cpu time :    55.9 secs   av.it.:   8.6
      thresh= 2.170E-07 alpha_mix =  0.700 |ddv_scf|^2 =  3.527E-14

     End of self-consistent calculation

     Convergence has been achieved 

     Number of q in the star =    4
     List of q in the star:
          1   0.500000000  -0.500000000   0.500000000
          2   0.500000000   0.500000000   0.500000000
          3  -0.500000000   0.500000000   0.500000000
          4   0.500000000   0.500000000  -0.500000000

     Diagonalizing the dynamical matrix

     q = (    0.500000000  -0.500000000   0.500000000 ) 

 **************************************************************************
     freq (    1) =       3.174724 [THz] =     105.897390 [cm-1]
     freq (    2) =       3.174724 [THz] =     105.897390 [cm-1]
     freq (    3) =      10.684315 [THz] =     356.390401 [cm-1]
     freq (    4) =      11.321942 [THz] =     377.659322 [cm-1]
     freq (    5) =      14.117678 [THz] =     470.915045 [cm-1]
     freq (    6) =      14.117678 [THz] =     470.915045 [cm-1]
 **************************************************************************

     Calculation of q =    0.0000000   0.5000000   0.0000000

   Info: using nr1, nr2, nr3 values from input

   Info: using nr1, nr2, nr3 values from input

     G-vector sticks info
     --------------------
     sticks:   dense  smooth     PW     G-vecs:    dense   smooth      PW
     Sum         253     253    109                 2741     2741     701



     bravais-lattice index     =            2
     lattice parameter (alat)  =      10.3400  a.u.
     unit-cell volume          =     276.3768 (a.u.)^3
     number of atoms/cell      =            2
     number of atomic types    =            1
     number of electrons       =         8.00
     number of Kohn-Sham states=            4
     kinetic-energy cutoff     =      18.0000  Ry
     charge density cutoff     =      72.0000  Ry
     Exchange-correlation      =  SLA  PW   PBX  PBC ( 1  4  3  4 0 0)

     celldm(1)=  10.340000  celldm(2)=   0.000000  celldm(3)=   0.000000
     celldm(4)=   0.000000  celldm(5)=   0.000000  celldm(6)=   0.000000

     crystal axes: (cart. coord. in units of alat)
               a(1) = (  -0.500000   0.000000   0.500000 )  
               a(2) = (   0.000000   0.500000   0.500000 )  
               a(3) = (  -0.500000   0.500000   0.000000 )  

     reciprocal axes: (cart. coord. in units 2 pi/alat)
               b(1) = ( -1.000000 -1.000000  1.000000 )  
               b(2) = (  1.000000  1.000000  1.000000 )  
               b(3) = ( -1.000000  1.000000 -1.000000 )  


     PseudoPot. # 1 for Si read from file:
     /home/max/quantum_espresso/qe-6.1/pseudo/Si.pbe-n-otfg.UPF
     MD5 check sum: 9493d466ad9c9e9c15d0f22cc9849f54
     Pseudo is Ultrasoft + core correction, Zval =  4.0
     Generated by new atomic code, or converted to UPF format
     Using radial grid of  899 points,  6 beta functions with: 
                l(1) =   0
                l(2) =   0
                l(3) =   1
                l(4) =   1
                l(5) =   2
                l(6) =   2
     Q(r) pseudized with  8 coefficients,  rinner =    1.250   1.250   1.250
                                                       1.250   1.250

     atomic species   valence    mass     pseudopotential
        Si             4.00    28.08600     Si( 1.00)

     48 Sym. Ops., with inversion, found



   Cartesian axes

     site n.     atom                  positions (alat units)
         1           Si  tau(   1) = (   0.0000000   0.0000000   0.0000000  )
         2           Si  tau(   2) = (   0.2500000   0.2500000   0.2500000  )

     number of k points=    80
                       cart. coord. in units 2pi/alat
        k(    1) = (  -0.1250000   0.1250000   0.1250000), wk =   0.0312500
        k(    2) = (  -0.1250000   0.6250000   0.1250000), wk =   0.0000000
        k(    3) = (  -0.3750000   0.3750000  -0.1250000), wk =   0.0625000
        k(    4) = (  -0.3750000   0.8750000  -0.1250000), wk =   0.0000000
        k(    5) = (   0.3750000  -0.3750000   0.6250000), wk =   0.0625000
        k(    6) = (   0.3750000   0.1250000   0.6250000), wk =   0.0000000
        k(    7) = (   0.1250000  -0.1250000   0.3750000), wk =   0.0625000
        k(    8) = (   0.1250000   0.3750000   0.3750000), wk =   0.0000000
        k(    9) = (  -0.1250000   0.6250000   0.1250000), wk =   0.0312500
        k(   10) = (  -0.1250000   1.1250000   0.1250000), wk =   0.0000000
        k(   11) = (   0.6250000  -0.1250000   0.8750000), wk =   0.0625000
        k(   12) = (   0.6250000   0.3750000   0.8750000), wk =   0.0000000
        k(   13) = (   0.3750000   0.1250000   0.6250000), wk =   0.0625000
        k(   14) = (   0.3750000   0.6250000   0.6250000), wk =   0.0000000
        k(   15) = (  -0.1250000  -0.8750000   0.1250000), wk =   0.0312500
        k(   16) = (  -0.1250000  -0.3750000   0.1250000), wk =   0.0000000
        k(   17) = (  -0.3750000   0.3750000   0.3750000), wk =   0.0312500
        k(   18) = (  -0.3750000   0.8750000   0.3750000), wk =   0.0000000
        k(   19) = (   0.3750000  -0.3750000   1.1250000), wk =   0.0625000
        k(   20) = (   0.3750000   0.1250000   1.1250000), wk =   0.0000000
        k(   21) = (  -0.1250000  -0.1250000   0.1250000), wk =   0.0312500
        k(   22) = (  -0.1250000   0.3750000   0.1250000), wk =   0.0000000
        k(   23) = (   0.1250000  -0.3750000   0.3750000), wk =   0.0625000
        k(   24) = (   0.1250000   0.1250000   0.3750000), wk =   0.0000000
        k(   25) = (   0.3750000  -0.1250000   0.3750000), wk =   0.0312500
        k(   26) = (   0.3750000   0.3750000   0.3750000), wk =   0.0000000
        k(   27) = (   0.3750000   0.1250000   0.3750000), wk =   0.0312500
        k(   28) = (   0.3750000   0.6250000   0.3750000), wk =   0.0000000
        k(   29) = (  -0.6250000   0.3750000  -0.3750000), wk =   0.0625000
        k(   30) = (  -0.6250000   0.8750000  -0.3750000), wk =   0.0000000
        k(   31) = (  -0.3750000   0.6250000  -0.3750000), wk =   0.0312500
        k(   32) = (  -0.3750000   1.1250000  -0.3750000), wk =   0.0000000
        k(   33) = (  -0.3750000  -0.6250000  -0.3750000), wk =   0.0312500
        k(   34) = (  -0.3750000  -0.1250000  -0.3750000), wk =   0.0000000
        k(   35) = (  -0.3750000   0.1250000  -0.1250000), wk =   0.0625000
        k(   36) = (  -0.3750000   0.6250000  -0.1250000), wk =   0.0000000
        k(   37) = (  -0.1250000   0.3750000  -0.1250000), wk =   0.0312500
        k(   38) = (  -0.1250000   0.8750000  -0.1250000), wk =   0.0000000
        k(   39) = (  -0.1250000  -0.3750000  -0.1250000), wk =   0.0312500
        k(   40) = (  -0.1250000   0.1250000  -0.1250000), wk =   0.0000000
        k(   41) = (  -0.1250000  -0.6250000   0.1250000), wk =   0.0312500
        k(   42) = (  -0.1250000  -0.1250000   0.1250000), wk =   0.0000000
        k(   43) = (   0.6250000  -0.1250000  -0.1250000), wk =   0.0625000
        k(   44) = (   0.6250000   0.3750000  -0.1250000), wk =   0.0000000
        k(   45) = (   0.6250000   0.1250000   0.1250000), wk =   0.0625000
        k(   46) = (   0.6250000   0.6250000   0.1250000), wk =   0.0000000
        k(   47) = (  -0.8750000   0.1250000  -0.6250000), wk =   0.0625000
        k(   48) = (  -0.8750000   0.6250000  -0.6250000), wk =   0.0000000
        k(   49) = (  -0.1250000   0.6250000  -0.8750000), wk =   0.0625000
        k(   50) = (  -0.1250000   1.1250000  -0.8750000), wk =   0.0000000
        k(   51) = (  -0.1250000   0.8750000  -0.6250000), wk =   0.0625000
        k(   52) = (  -0.1250000   1.3750000  -0.6250000), wk =   0.0000000
        k(   53) = (  -0.1250000  -0.8750000  -0.6250000), wk =   0.0625000
        k(   54) = (  -0.1250000  -0.3750000  -0.6250000), wk =   0.0000000
        k(   55) = (   0.8750000  -0.6250000   0.1250000), wk =   0.0625000
        k(   56) = (   0.8750000  -0.1250000   0.1250000), wk =   0.0000000
        k(   57) = (  -0.6250000  -0.1250000  -0.3750000), wk =   0.0625000
        k(   58) = (  -0.6250000   0.3750000  -0.3750000), wk =   0.0000000
        k(   59) = (   0.1250000   0.3750000  -0.6250000), wk =   0.0625000
        k(   60) = (   0.1250000   0.8750000  -0.6250000), wk =   0.0000000
        k(   61) = (   0.1250000   0.6250000  -0.3750000), wk =   0.0625000
        k(   62) = (   0.1250000   1.1250000  -0.3750000), wk =   0.0000000
        k(   63) = (   0.1250000  -0.6250000  -0.3750000), wk =   0.0625000
        k(   64) = (   0.1250000  -0.1250000  -0.3750000), wk =   0.0000000
        k(   65) = (   0.6250000  -0.3750000  -0.1250000), wk =   0.0625000
        k(   66) = (   0.6250000   0.1250000  -0.1250000), wk =   0.0000000
        k(   67) = (  -0.1250000   0.8750000   0.1250000), wk =   0.0312500
        k(   68) = (  -0.1250000   1.3750000   0.1250000), wk =   0.0000000
        k(   69) = (  -0.8750000  -0.1250000  -0.1250000), wk =   0.0625000
        k(   70) = (  -0.8750000   0.3750000  -0.1250000), wk =   0.0000000
        k(   71) = (  -0.8750000   0.1250000   0.1250000), wk =   0.0625000
        k(   72) = (  -0.8750000   0.6250000   0.1250000), wk =   0.0000000
        k(   73) = (  -0.3750000  -0.3750000   0.3750000), wk =   0.0312500
        k(   74) = (  -0.3750000   0.1250000   0.3750000), wk =   0.0000000
        k(   75) = (  -1.1250000   0.3750000  -0.3750000), wk =   0.0625000
        k(   76) = (  -1.1250000   0.8750000  -0.3750000), wk =   0.0000000
        k(   77) = (  -0.3750000   1.1250000  -0.3750000), wk =   0.0312500
        k(   78) = (  -0.3750000   1.6250000  -0.3750000), wk =   0.0000000
        k(   79) = (  -0.3750000  -1.1250000  -0.3750000), wk =   0.0312500
        k(   80) = (  -0.3750000  -0.6250000  -0.3750000), wk =   0.0000000

     Dense  grid:     2741 G-vectors     FFT dimensions: (  20,  20,  20)

     Estimated max dynamical RAM per process >       1.28MB

     Check: negative/imaginary core charge=   -0.000043    0.000000

     The potential is recalculated from file :
     ./_ph0/silicon.save/charge-density.dat

     Starting wfc are    8 atomic wfcs

     Band Structure Calculation
     Davidson diagonalization with overlap

     ethr =  1.25E-10,  avg # of iterations = 11.7

     total cpu time spent up to now is        5.2 secs

     End of band structure calculation

          k =-0.1250 0.1250 0.1250 (   338 PWs)   bands (ev):

    -5.6327   4.3798   5.6889   5.6889

          k =-0.1250 0.6250 0.1250 (   351 PWs)   bands (ev):

    -4.0778   1.0537   3.3609   3.8106

          k =-0.3750 0.3750-0.1250 (   352 PWs)   bands (ev):

    -4.6091   1.3909   3.7080   5.2084

          k =-0.3750 0.8750-0.1250 (   361 PWs)   bands (ev):

    -2.4435  -0.9047   2.0128   3.0845

          k = 0.3750-0.3750 0.6250 (   361 PWs)   bands (ev):

    -3.4742  -0.6802   3.7271   4.4389

          k = 0.3750 0.1250 0.6250 (   357 PWs)   bands (ev):

    -3.6640   0.1847   2.7210   4.0854

          k = 0.1250-0.1250 0.3750 (   353 PWs)   bands (ev):

    -5.1064   2.7639   4.6829   4.7460

          k = 0.1250 0.3750 0.3750 (   352 PWs)   bands (ev):

    -4.6091   1.3909   3.7080   5.2084

          k =-0.1250 0.6250 0.1250 (   351 PWs)   bands (ev):

    -4.0778   1.0537   3.3609   3.8106

          k =-0.1250 1.1250 0.1250 (   358 PWs)   bands (ev):

    -2.6098  -0.8079   2.6194   3.3447

          k = 0.6250-0.1250 0.8750 (   361 PWs)   bands (ev):

    -2.4435  -0.9047   2.0128   3.0845

          k = 0.6250 0.3750 0.8750 (   357 PWs)   bands (ev):

    -3.6640   0.1847   2.7210   4.0854

          k = 0.3750 0.1250 0.6250 (   357 PWs)   bands (ev):

    -3.6640   0.1847   2.7210   4.0854

          k = 0.3750 0.6250 0.6250 (   361 PWs)   bands (ev):

    -3.4742  -0.6802   3.7271   4.4389

          k =-0.1250-0.8750 0.1250 (   358 PWs)   bands (ev):

    -2.6098  -0.8079   2.6194   3.3447

          k =-0.1250-0.3750 0.1250 (   353 PWs)   bands (ev):

    -5.1064   2.7639   4.6829   4.7460

          k =-0.3750 0.3750 0.3750 (   353 PWs)   bands (ev):

    -4.1780   0.1059   4.9022   4.9022

          k =-0.3750 0.8750 0.3750 (   361 PWs)   bands (ev):

    -2.9795  -0.5997   2.0697   4.1230

          k = 0.3750-0.3750 1.1250 (   361 PWs)   bands (ev):

    -2.9795  -0.5997   2.0697   4.1230

          k = 0.3750 0.1250 1.1250 (   361 PWs)   bands (ev):

    -2.4435  -0.9047   2.0128   3.0845

          k =-0.1250-0.1250 0.1250 (   338 PWs)   bands (ev):

    -5.6327   4.3798   5.6889   5.6889

          k =-0.1250 0.3750 0.1250 (   353 PWs)   bands (ev):

    -5.1064   2.7639   4.6829   4.7460

          k = 0.1250-0.3750 0.3750 (   352 PWs)   bands (ev):

    -4.6091   1.3909   3.7080   5.2084

          k = 0.1250 0.1250 0.3750 (   353 PWs)   bands (ev):

    -5.1064   2.7639   4.6829   4.7460

          k = 0.3750-0.1250 0.3750 (   352 PWs)   bands (ev):

    -4.6091   1.3909   3.7080   5.2084

          k = 0.3750 0.3750 0.3750 (   353 PWs)   bands (ev):

    -4.1780   0.1059   4.9022   4.9022

          k = 0.3750 0.1250 0.3750 (   352 PWs)   bands (ev):

    -4.6091   1.3909   3.7080   5.2084

          k = 0.3750 0.6250 0.3750 (   361 PWs)   bands (ev):

    -3.4742  -0.6802   3.7271   4.4389

          k =-0.6250 0.3750-0.3750 (   361 PWs)   bands (ev):

    -3.4742  -0.6802   3.7271   4.4389

          k =-0.6250 0.8750-0.3750 (   357 PWs)   bands (ev):

    -3.6640   0.1847   2.7210   4.0854

          k =-0.3750 0.6250-0.3750 (   361 PWs)   bands (ev):

    -3.4742  -0.6802   3.7271   4.4389

          k =-0.3750 1.1250-0.3750 (   361 PWs)   bands (ev):

    -2.9795  -0.5997   2.0697   4.1230

          k =-0.3750-0.6250-0.3750 (   361 PWs)   bands (ev):

    -3.4742  -0.6802   3.7271   4.4389

          k =-0.3750-0.1250-0.3750 (   352 PWs)   bands (ev):

    -4.6091   1.3909   3.7080   5.2084

          k =-0.3750 0.1250-0.1250 (   353 PWs)   bands (ev):

    -5.1064   2.7639   4.6829   4.7460

          k =-0.3750 0.6250-0.1250 (   357 PWs)   bands (ev):

    -3.6640   0.1847   2.7210   4.0854

          k =-0.1250 0.3750-0.1250 (   353 PWs)   bands (ev):

    -5.1064   2.7639   4.6829   4.7460

          k =-0.1250 0.8750-0.1250 (   358 PWs)   bands (ev):

    -2.6098  -0.8079   2.6194   3.3447

          k =-0.1250-0.3750-0.1250 (   353 PWs)   bands (ev):

    -5.1064   2.7639   4.6829   4.7460

          k =-0.1250 0.1250-0.1250 (   338 PWs)   bands (ev):

    -5.6327   4.3798   5.6889   5.6889

          k =-0.1250-0.6250 0.1250 (   351 PWs)   bands (ev):

    -4.0778   1.0537   3.3609   3.8106

          k =-0.1250-0.1250 0.1250 (   338 PWs)   bands (ev):

    -5.6327   4.3798   5.6889   5.6889

          k = 0.6250-0.1250-0.1250 (   351 PWs)   bands (ev):

    -4.0778   1.0537   3.3609   3.8106

          k = 0.6250 0.3750-0.1250 (   357 PWs)   bands (ev):

    -3.6640   0.1847   2.7210   4.0854

          k = 0.6250 0.1250 0.1250 (   351 PWs)   bands (ev):

    -4.0778   1.0537   3.3609   3.8106

          k = 0.6250 0.6250 0.1250 (   361 PWs)   bands (ev):

    -2.9795  -0.5997   2.0697   4.1230

          k =-0.8750 0.1250-0.6250 (   361 PWs)   bands (ev):

    -2.4435  -0.9047   2.0128   3.0845

          k =-0.8750 0.6250-0.6250 (   352 PWs)   bands (ev):

    -4.6091   1.3909   3.7080   5.2084

          k =-0.1250 0.6250-0.8750 (   361 PWs)   bands (ev):

    -2.4435  -0.9047   2.0128   3.0845

          k =-0.1250 1.1250-0.8750 (   358 PWs)   bands (ev):

    -2.6098  -0.8079   2.6194   3.3447

          k =-0.1250 0.8750-0.6250 (   361 PWs)   bands (ev):

    -2.4435  -0.9047   2.0128   3.0845

          k =-0.1250 1.3750-0.6250 (   361 PWs)   bands (ev):

    -2.9795  -0.5997   2.0697   4.1230

          k =-0.1250-0.8750-0.6250 (   361 PWs)   bands (ev):

    -2.4435  -0.9047   2.0128   3.0845

          k =-0.1250-0.3750-0.6250 (   357 PWs)   bands (ev):

    -3.6640   0.1847   2.7210   4.0854

          k = 0.8750-0.6250 0.1250 (   361 PWs)   bands (ev):

    -2.4435  -0.9047   2.0128   3.0845

          k = 0.8750-0.1250 0.1250 (   358 PWs)   bands (ev):

    -2.6098  -0.8079   2.6194   3.3447

          k =-0.6250-0.1250-0.3750 (   357 PWs)   bands (ev):

    -3.6640   0.1847   2.7210   4.0854

          k =-0.6250 0.3750-0.3750 (   361 PWs)   bands (ev):

    -3.4742  -0.6802   3.7271   4.4389

          k = 0.1250 0.3750-0.6250 (   357 PWs)   bands (ev):

    -3.6640   0.1847   2.7210   4.0854

          k = 0.1250 0.8750-0.6250 (   361 PWs)   bands (ev):

    -2.4435  -0.9047   2.0128   3.0845

          k = 0.1250 0.6250-0.3750 (   357 PWs)   bands (ev):

    -3.6640   0.1847   2.7210   4.0854

          k = 0.1250 1.1250-0.3750 (   361 PWs)   bands (ev):

    -2.4435  -0.9047   2.0128   3.0845

          k = 0.1250-0.6250-0.3750 (   357 PWs)   bands (ev):

    -3.6640   0.1847   2.7210   4.0854

          k = 0.1250-0.1250-0.3750 (   353 PWs)   bands (ev):

    -5.1064   2.7639   4.6829   4.7460

          k = 0.6250-0.3750-0.1250 (   357 PWs)   bands (ev):

    -3.6640   0.1847   2.7210   4.0854

          k = 0.6250 0.1250-0.1250 (   351 PWs)   bands (ev):

    -4.0778   1.0537   3.3609   3.8106

          k =-0.1250 0.8750 0.1250 (   358 PWs)   bands (ev):

    -2.6098  -0.8079   2.6194   3.3447

          k =-0.1250 1.3750 0.1250 (   351 PWs)   bands (ev):

    -4.0778   1.0537   3.3609   3.8106

          k =-0.8750-0.1250-0.1250 (   358 PWs)   bands (ev):

    -2.6098  -0.8079   2.6194   3.3447

          k =-0.8750 0.3750-0.1250 (   361 PWs)   bands (ev):

    -2.4435  -0.9047   2.0128   3.0845

          k =-0.8750 0.1250 0.1250 (   358 PWs)   bands (ev):

    -2.6098  -0.8079   2.6194   3.3447

          k =-0.8750 0.6250 0.1250 (   361 PWs)   bands (ev):

    -2.4435  -0.9047   2.0128   3.0845

          k =-0.3750-0.3750 0.3750 (   353 PWs)   bands (ev):

    -4.1780   0.1059   4.9022   4.9022

          k =-0.3750 0.1250 0.3750 (   352 PWs)   bands (ev):

    -4.6091   1.3909   3.7080   5.2084

          k =-1.1250 0.3750-0.3750 (   361 PWs)   bands (ev):

    -2.9795  -0.5997   2.0697   4.1230

          k =-1.1250 0.8750-0.3750 (   351 PWs)   bands (ev):

    -4.0778   1.0537   3.3609   3.8106

          k =-0.3750 1.1250-0.3750 (   361 PWs)   bands (ev):

    -2.9795  -0.5997   2.0697   4.1230

          k =-0.3750 1.6250-0.3750 (   353 PWs)   bands (ev):

    -4.1780   0.1059   4.9022   4.9022

          k =-0.3750-1.1250-0.3750 (   361 PWs)   bands (ev):

    -2.9795  -0.5997   2.0697   4.1230

          k =-0.3750-0.6250-0.3750 (   361 PWs)   bands (ev):

    -3.4742  -0.6802   3.7271   4.4389

     highest occupied level (ev):     5.6889

     Writing output data file silicon.save

                                                                                

     bravais-lattice index     =            2
     lattice parameter (alat)  =      10.3400  a.u.
     unit-cell volume          =     276.3768 (a.u.)^3
     number of atoms/cell      =            2
     number of atomic types    =            1
     kinetic-energy cut-off    =      18.0000  Ry
     charge density cut-off    =      72.0000  Ry
     convergence threshold     =      1.0E-12
     beta                      =       0.7000
     number of iterations used =            4
     Exchange-correlation      =  SLA  PW   PBX  PBC ( 1  4  3  4 0 0)


     celldm(1)=   10.34000  celldm(2)=    0.00000  celldm(3)=    0.00000
     celldm(4)=    0.00000  celldm(5)=    0.00000  celldm(6)=    0.00000

     crystal axes: (cart. coord. in units of alat)
               a(1) = ( -0.5000  0.0000  0.5000 )  
               a(2) = (  0.0000  0.5000  0.5000 )  
               a(3) = ( -0.5000  0.5000  0.0000 )  

     reciprocal axes: (cart. coord. in units 2 pi/alat)
               b(1) = ( -1.0000 -1.0000  1.0000 )  
               b(2) = (  1.0000  1.0000  1.0000 )  
               b(3) = ( -1.0000  1.0000 -1.0000 )  


     Atoms inside the unit cell: 

     Cartesian axes

     site n.  atom      mass           positions (alat units)
        1     Si  28.0860   tau(    1) = (    0.00000    0.00000    0.00000  )
        2     Si  28.0860   tau(    2) = (    0.25000    0.25000    0.25000  )

     Computing dynamical matrix for 
                    q = (   0.0000000   0.5000000   0.0000000 )

      8 Sym.Ops. (no q -> -q+G )


     G cutoff =  194.9907  (   2741 G-vectors)     FFT grid: ( 20, 20, 20)
     number of k points=    80

     PseudoPot. # 1 for Si read from file:
     /home/max/quantum_espresso/qe-6.1/pseudo/Si.pbe-n-otfg.UPF
     MD5 check sum: 9493d466ad9c9e9c15d0f22cc9849f54
     Pseudo is Ultrasoft + core correction, Zval =  4.0
     Generated by new atomic code, or converted to UPF format
     Using radial grid of  899 points,  6 beta functions with: 
                l(1) =   0
                l(2) =   0
                l(3) =   1
                l(4) =   1
                l(5) =   2
                l(6) =   2
     Q(r) pseudized with  8 coefficients,  rinner =    1.250   1.250   1.250
                                                       1.250   1.250

     Mode symmetry, C_4v (4mm)  point group:


     Atomic displacements:
     There are   4 irreducible representations

     Representation     1      1 modes -A_1  G_1 D_1  To be done

     Representation     2      1 modes -B_2  G_4 D_2'  To be done

     Representation     3      2 modes -E    G_5 D_5  To be done

     Representation     4      2 modes -E    G_5 D_5  To be done



     Alpha used in Ewald sum =   0.7000
     PHONON       :    56.17s CPU        58.92s WALL



     Representation #  1 mode #   1

     Self-consistent Calculation

      iter #   1 total cpu time :    59.3 secs   av.it.:   5.8
      thresh= 1.000E-02 alpha_mix =  0.700 |ddv_scf|^2 =  2.979E-03

      iter #   2 total cpu time :    59.7 secs   av.it.:   7.5
      thresh= 5.458E-03 alpha_mix =  0.700 |ddv_scf|^2 =  3.946E-02

      iter #   3 total cpu time :    60.1 secs   av.it.:   6.6
      thresh= 1.000E-02 alpha_mix =  0.700 |ddv_scf|^2 =  1.764E-07

      iter #   4 total cpu time :    60.7 secs   av.it.:   8.1
      thresh= 4.200E-05 alpha_mix =  0.700 |ddv_scf|^2 =  1.757E-08

      iter #   5 total cpu time :    61.4 secs   av.it.:   7.6
      thresh= 1.325E-05 alpha_mix =  0.700 |ddv_scf|^2 =  5.708E-10

      iter #   6 total cpu time :    61.8 secs   av.it.:   7.8
      thresh= 2.389E-06 alpha_mix =  0.700 |ddv_scf|^2 =  2.202E-12

      iter #   7 total cpu time :    62.2 secs   av.it.:   8.0
      thresh= 1.484E-07 alpha_mix =  0.700 |ddv_scf|^2 =  1.776E-13

     End of self-consistent calculation

     Convergence has been achieved 


     Representation #  2 mode #   2

     Self-consistent Calculation

      iter #   1 total cpu time :    62.7 secs   av.it.:   5.0
      thresh= 1.000E-02 alpha_mix =  0.700 |ddv_scf|^2 =  5.739E-06

      iter #   2 total cpu time :    63.1 secs   av.it.:   8.2
      thresh= 2.396E-04 alpha_mix =  0.700 |ddv_scf|^2 =  1.416E-06

      iter #   3 total cpu time :    63.5 secs   av.it.:   8.0
      thresh= 1.190E-04 alpha_mix =  0.700 |ddv_scf|^2 =  5.289E-08

      iter #   4 total cpu time :    63.9 secs   av.it.:   7.8
      thresh= 2.300E-05 alpha_mix =  0.700 |ddv_scf|^2 =  5.318E-10

      iter #   5 total cpu time :    64.5 secs   av.it.:   8.4
      thresh= 2.306E-06 alpha_mix =  0.700 |ddv_scf|^2 =  5.219E-12

      iter #   6 total cpu time :    65.1 secs   av.it.:   8.1
      thresh= 2.285E-07 alpha_mix =  0.700 |ddv_scf|^2 =  6.952E-14

     End of self-consistent calculation

     Convergence has been achieved 


     Representation #  3 modes #   3  4

     Self-consistent Calculation

      iter #   1 total cpu time :    65.8 secs   av.it.:   5.0
      thresh= 1.000E-02 alpha_mix =  0.700 |ddv_scf|^2 =  1.068E-06

      iter #   2 total cpu time :    67.0 secs   av.it.:   9.2
      thresh= 1.033E-04 alpha_mix =  0.700 |ddv_scf|^2 =  1.401E-07

      iter #   3 total cpu time :    68.0 secs   av.it.:   9.1
      thresh= 3.744E-05 alpha_mix =  0.700 |ddv_scf|^2 =  7.489E-09

      iter #   4 total cpu time :    69.0 secs   av.it.:   8.9
      thresh= 8.654E-06 alpha_mix =  0.700 |ddv_scf|^2 =  6.489E-12

      iter #   5 total cpu time :    69.8 secs   av.it.:   9.2
      thresh= 2.547E-07 alpha_mix =  0.700 |ddv_scf|^2 =  2.363E-13

     End of self-consistent calculation

     Convergence has been achieved 


     Representation #  4 modes #   5  6

     Self-consistent Calculation

      iter #   1 total cpu time :    70.8 secs   av.it.:   5.1
      thresh= 1.000E-02 alpha_mix =  0.700 |ddv_scf|^2 =  1.016E-06

      iter #   2 total cpu time :    71.8 secs   av.it.:   9.2
      thresh= 1.008E-04 alpha_mix =  0.700 |ddv_scf|^2 =  1.288E-07

      iter #   3 total cpu time :    73.0 secs   av.it.:   9.1
      thresh= 3.589E-05 alpha_mix =  0.700 |ddv_scf|^2 =  7.384E-09

      iter #   4 total cpu time :    73.9 secs   av.it.:   8.9
      thresh= 8.593E-06 alpha_mix =  0.700 |ddv_scf|^2 =  8.732E-12

      iter #   5 total cpu time :    75.2 secs   av.it.:   9.2
      thresh= 2.955E-07 alpha_mix =  0.700 |ddv_scf|^2 =  8.779E-14

     End of self-consistent calculation

     Convergence has been achieved 

     Number of q in the star =    6
     List of q in the star:
          1   0.000000000   0.500000000   0.000000000
          2   0.000000000  -0.500000000   0.000000000
          3   0.500000000   0.000000000   0.000000000
          4   0.000000000   0.000000000   0.500000000
          5   0.000000000   0.000000000  -0.500000000
          6  -0.500000000   0.000000000   0.000000000

     Diagonalizing the dynamical matrix

     q = (    0.000000000   0.500000000   0.000000000 ) 

 **************************************************************************
     freq (    1) =       3.996771 [THz] =     133.317942 [cm-1]
     freq (    2) =       3.996771 [THz] =     133.317942 [cm-1]
     freq (    3) =       6.829804 [THz] =     227.817753 [cm-1]
     freq (    4) =      13.762844 [THz] =     459.079072 [cm-1]
     freq (    5) =      13.762844 [THz] =     459.079072 [cm-1]
     freq (    6) =      14.277523 [THz] =     476.246904 [cm-1]
 **************************************************************************

     Mode symmetry, C_4v (4mm)  point group:

     freq (  1 -  2) =        133.3  [cm-1]   --> E    G_5 D_5       
     freq (  3 -  3) =        227.8  [cm-1]   --> A_1  G_1 D_1       
     freq (  4 -  5) =        459.1  [cm-1]   --> E    G_5 D_5       
     freq (  6 -  6) =        476.2  [cm-1]   --> B_2  G_4 D_2'      

     Calculation of q =    0.7500000  -0.2500000   0.7500000

   Info: using nr1, nr2, nr3 values from input

   Info: using nr1, nr2, nr3 values from input

     G-vector sticks info
     --------------------
     sticks:   dense  smooth     PW     G-vecs:    dense   smooth      PW
     Sum         253     253    121                 2741     2741     869



     bravais-lattice index     =            2
     lattice parameter (alat)  =      10.3400  a.u.
     unit-cell volume          =     276.3768 (a.u.)^3
     number of atoms/cell      =            2
     number of atomic types    =            1
     number of electrons       =         8.00
     number of Kohn-Sham states=            4
     kinetic-energy cutoff     =      18.0000  Ry
     charge density cutoff     =      72.0000  Ry
     Exchange-correlation      =  SLA  PW   PBX  PBC ( 1  4  3  4 0 0)

     celldm(1)=  10.340000  celldm(2)=   0.000000  celldm(3)=   0.000000
     celldm(4)=   0.000000  celldm(5)=   0.000000  celldm(6)=   0.000000

     crystal axes: (cart. coord. in units of alat)
               a(1) = (  -0.500000   0.000000   0.500000 )  
               a(2) = (   0.000000   0.500000   0.500000 )  
               a(3) = (  -0.500000   0.500000   0.000000 )  

     reciprocal axes: (cart. coord. in units 2 pi/alat)
               b(1) = ( -1.000000 -1.000000  1.000000 )  
               b(2) = (  1.000000  1.000000  1.000000 )  
               b(3) = ( -1.000000  1.000000 -1.000000 )  


     PseudoPot. # 1 for Si read from file:
     /home/max/quantum_espresso/qe-6.1/pseudo/Si.pbe-n-otfg.UPF
     MD5 check sum: 9493d466ad9c9e9c15d0f22cc9849f54
     Pseudo is Ultrasoft + core correction, Zval =  4.0
     Generated by new atomic code, or converted to UPF format
     Using radial grid of  899 points,  6 beta functions with: 
                l(1) =   0
                l(2) =   0
                l(3) =   1
                l(4) =   1
                l(5) =   2
                l(6) =   2
     Q(r) pseudized with  8 coefficients,  rinner =    1.250   1.250   1.250
                                                       1.250   1.250

     atomic species   valence    mass     pseudopotential
        Si             4.00    28.08600     Si( 1.00)

     48 Sym. Ops., with inversion, found



   Cartesian axes

     site n.     atom                  positions (alat units)
         1           Si  tau(   1) = (   0.0000000   0.0000000   0.0000000  )
         2           Si  tau(   2) = (   0.2500000   0.2500000   0.2500000  )

     number of k points=   288

     Number of k-points >= 100: set verbosity='high' to print them.

     Dense  grid:     2741 G-vectors     FFT dimensions: (  20,  20,  20)

     Estimated max dynamical RAM per process >       1.28MB

     Check: negative/imaginary core charge=   -0.000043    0.000000

     The potential is recalculated from file :
     ./_ph0/silicon.save/charge-density.dat

     Starting wfc are    8 atomic wfcs

     Band Structure Calculation
     Davidson diagonalization with overlap

     ethr =  1.25E-10,  avg # of iterations = 11.7

     total cpu time spent up to now is        9.8 secs

     End of band structure calculation

     Number of k-points >= 100: set verbosity='high' to print the bands.

     highest occupied level (ev):     5.6889

     Writing output data file silicon.save

                                                                                

     bravais-lattice index     =            2
     lattice parameter (alat)  =      10.3400  a.u.
     unit-cell volume          =     276.3768 (a.u.)^3
     number of atoms/cell      =            2
     number of atomic types    =            1
     kinetic-energy cut-off    =      18.0000  Ry
     charge density cut-off    =      72.0000  Ry
     convergence threshold     =      1.0E-12
     beta                      =       0.7000
     number of iterations used =            4
     Exchange-correlation      =  SLA  PW   PBX  PBC ( 1  4  3  4 0 0)


     celldm(1)=   10.34000  celldm(2)=    0.00000  celldm(3)=    0.00000
     celldm(4)=    0.00000  celldm(5)=    0.00000  celldm(6)=    0.00000

     crystal axes: (cart. coord. in units of alat)
               a(1) = ( -0.5000  0.0000  0.5000 )  
               a(2) = (  0.0000  0.5000  0.5000 )  
               a(3) = ( -0.5000  0.5000  0.0000 )  

     reciprocal axes: (cart. coord. in units 2 pi/alat)
               b(1) = ( -1.0000 -1.0000  1.0000 )  
               b(2) = (  1.0000  1.0000  1.0000 )  
               b(3) = ( -1.0000  1.0000 -1.0000 )  


     Atoms inside the unit cell: 

     Cartesian axes

     site n.  atom      mass           positions (alat units)
        1     Si  28.0860   tau(    1) = (    0.00000    0.00000    0.00000  )
        2     Si  28.0860   tau(    2) = (    0.25000    0.25000    0.25000  )

     Computing dynamical matrix for 
                    q = (   0.7500000  -0.2500000   0.7500000 )

      2 Sym.Ops. (no q -> -q+G )


     G cutoff =  194.9907  (   2741 G-vectors)     FFT grid: ( 20, 20, 20)
     number of k points=   288

     PseudoPot. # 1 for Si read from file:
     /home/max/quantum_espresso/qe-6.1/pseudo/Si.pbe-n-otfg.UPF
     MD5 check sum: 9493d466ad9c9e9c15d0f22cc9849f54
     Pseudo is Ultrasoft + core correction, Zval =  4.0
     Generated by new atomic code, or converted to UPF format
     Using radial grid of  899 points,  6 beta functions with: 
                l(1) =   0
                l(2) =   0
                l(3) =   1
                l(4) =   1
                l(5) =   2
                l(6) =   2
     Q(r) pseudized with  8 coefficients,  rinner =    1.250   1.250   1.250
                                                       1.250   1.250

     Mode symmetry, C_s (m)     point group:


     Atomic displacements:
     There are   6 irreducible representations

     Representation     1      1 modes -A'  To be done

     Representation     2      1 modes -A'  To be done

     Representation     3      1 modes -A'  To be done

     Representation     4      1 modes -A'  To be done

     Representation     5      1 modes -A''  To be done

     Representation     6      1 modes -A''  To be done



     Alpha used in Ewald sum =   0.7000
     PHONON       :  1m18.29s CPU     1m21.85s WALL



     Representation #  1 mode #   1

     Self-consistent Calculation

      iter #   1 total cpu time :    83.5 secs   av.it.:   5.3
      thresh= 1.000E-02 alpha_mix =  0.700 |ddv_scf|^2 =  6.163E-05

      iter #   2 total cpu time :    85.1 secs   av.it.:   8.4
      thresh= 7.850E-04 alpha_mix =  0.700 |ddv_scf|^2 =  1.620E-04

      iter #   3 total cpu time :    86.4 secs   av.it.:   7.2
      thresh= 1.273E-03 alpha_mix =  0.700 |ddv_scf|^2 =  1.176E-06

      iter #   4 total cpu time :    88.3 secs   av.it.:   8.0
      thresh= 1.085E-04 alpha_mix =  0.700 |ddv_scf|^2 =  8.372E-08

      iter #   5 total cpu time :    89.6 secs   av.it.:   8.1
      thresh= 2.893E-05 alpha_mix =  0.700 |ddv_scf|^2 =  7.761E-09

      iter #   6 total cpu time :    91.5 secs   av.it.:   8.1
      thresh= 8.810E-06 alpha_mix =  0.700 |ddv_scf|^2 =  6.654E-11

      iter #   7 total cpu time :    93.0 secs   av.it.:   8.3
      thresh= 8.157E-07 alpha_mix =  0.700 |ddv_scf|^2 =  2.585E-12

      iter #   8 total cpu time :    94.7 secs   av.it.:   8.4
      thresh= 1.608E-07 alpha_mix =  0.700 |ddv_scf|^2 =  3.483E-13

     End of self-consistent calculation

     Convergence has been achieved 


     Representation #  2 mode #   2

     Self-consistent Calculation

      iter #   1 total cpu time :    96.1 secs   av.it.:   5.5
      thresh= 1.000E-02 alpha_mix =  0.700 |ddv_scf|^2 =  1.088E-04

      iter #   2 total cpu time :    98.0 secs   av.it.:   8.3
      thresh= 1.043E-03 alpha_mix =  0.700 |ddv_scf|^2 =  3.123E-04

      iter #   3 total cpu time :    99.4 secs   av.it.:   7.1
      thresh= 1.767E-03 alpha_mix =  0.700 |ddv_scf|^2 =  8.035E-07

      iter #   4 total cpu time :   101.2 secs   av.it.:   8.2
      thresh= 8.964E-05 alpha_mix =  0.700 |ddv_scf|^2 =  7.783E-08

      iter #   5 total cpu time :   102.8 secs   av.it.:   8.0
      thresh= 2.790E-05 alpha_mix =  0.700 |ddv_scf|^2 =  1.115E-08

      iter #   6 total cpu time :   104.4 secs   av.it.:   8.1
      thresh= 1.056E-05 alpha_mix =  0.700 |ddv_scf|^2 =  6.448E-11

      iter #   7 total cpu time :   106.1 secs   av.it.:   8.4
      thresh= 8.030E-07 alpha_mix =  0.700 |ddv_scf|^2 =  2.128E-12

      iter #   8 total cpu time :   107.9 secs   av.it.:   8.5
      thresh= 1.459E-07 alpha_mix =  0.700 |ddv_scf|^2 =  2.967E-13

     End of self-consistent calculation

     Convergence has been achieved 


     Representation #  3 mode #   3

     Self-consistent Calculation

      iter #   1 total cpu time :   109.5 secs   av.it.:   5.4
      thresh= 1.000E-02 alpha_mix =  0.700 |ddv_scf|^2 =  8.521E-05

      iter #   2 total cpu time :   111.3 secs   av.it.:   8.4
      thresh= 9.231E-04 alpha_mix =  0.700 |ddv_scf|^2 =  2.287E-04

      iter #   3 total cpu time :   112.8 secs   av.it.:   7.1
      thresh= 1.512E-03 alpha_mix =  0.700 |ddv_scf|^2 =  1.361E-06

      iter #   4 total cpu time :   114.6 secs   av.it.:   7.9
      thresh= 1.167E-04 alpha_mix =  0.700 |ddv_scf|^2 =  8.301E-08

      iter #   5 total cpu time :   115.9 secs   av.it.:   8.0
      thresh= 2.881E-05 alpha_mix =  0.700 |ddv_scf|^2 =  1.184E-08

      iter #   6 total cpu time :   117.6 secs   av.it.:   8.1
      thresh= 1.088E-05 alpha_mix =  0.700 |ddv_scf|^2 =  3.672E-11

      iter #   7 total cpu time :   119.4 secs   av.it.:   8.4
      thresh= 6.060E-07 alpha_mix =  0.700 |ddv_scf|^2 =  1.598E-12

      iter #   8 total cpu time :   121.2 secs   av.it.:   8.5
      thresh= 1.264E-07 alpha_mix =  0.700 |ddv_scf|^2 =  4.680E-13

     End of self-consistent calculation

     Convergence has been achieved 


     Representation #  4 mode #   4

     Self-consistent Calculation

      iter #   1 total cpu time :   122.6 secs   av.it.:   5.2
      thresh= 1.000E-02 alpha_mix =  0.700 |ddv_scf|^2 =  3.806E-05

      iter #   2 total cpu time :   124.4 secs   av.it.:   8.6
      thresh= 6.169E-04 alpha_mix =  0.700 |ddv_scf|^2 =  7.848E-05

      iter #   3 total cpu time :   125.7 secs   av.it.:   7.4
      thresh= 8.859E-04 alpha_mix =  0.700 |ddv_scf|^2 =  1.826E-06

      iter #   4 total cpu time :   127.5 secs   av.it.:   7.9
      thresh= 1.351E-04 alpha_mix =  0.700 |ddv_scf|^2 =  8.876E-08

      iter #   5 total cpu time :   129.2 secs   av.it.:   8.1
      thresh= 2.979E-05 alpha_mix =  0.700 |ddv_scf|^2 =  8.511E-09

      iter #   6 total cpu time :   130.8 secs   av.it.:   8.1
      thresh= 9.225E-06 alpha_mix =  0.700 |ddv_scf|^2 =  2.771E-11

      iter #   7 total cpu time :   132.3 secs   av.it.:   8.5
      thresh= 5.264E-07 alpha_mix =  0.700 |ddv_scf|^2 =  1.379E-12

      iter #   8 total cpu time :   134.1 secs   av.it.:   8.4
      thresh= 1.174E-07 alpha_mix =  0.700 |ddv_scf|^2 =  1.415E-13

     End of self-consistent calculation

     Convergence has been achieved 


     Representation #  5 mode #   5

     Self-consistent Calculation

      iter #   1 total cpu time :   135.4 secs   av.it.:   5.0
      thresh= 1.000E-02 alpha_mix =  0.700 |ddv_scf|^2 =  4.895E-06

      iter #   2 total cpu time :   137.2 secs   av.it.:   8.1
[...]
        k(   58) = (  -0.3750000  -1.8750000  -0.1250000), wk =   0.0000000
        k(   59) = (  -0.8750000   0.1250000  -0.1250000), wk =   0.0625000
        k(   60) = (  -1.3750000  -0.8750000  -0.1250000), wk =   0.0000000
        k(   61) = (  -1.1250000   0.3750000  -0.3750000), wk =   0.0625000
        k(   62) = (  -1.6250000  -0.6250000  -0.3750000), wk =   0.0000000
        k(   63) = (  -0.3750000   0.3750000   1.1250000), wk =   0.0625000
        k(   64) = (  -0.8750000  -0.6250000   1.1250000), wk =   0.0000000

     Dense  grid:     2741 G-vectors     FFT dimensions: (  20,  20,  20)

     Estimated max dynamical RAM per process >       1.28MB

     Check: negative/imaginary core charge=   -0.000043    0.000000

     The potential is recalculated from file :
     ./_ph0/silicon.save/charge-density.dat

     Starting wfc are    8 atomic wfcs

     Band Structure Calculation
     Davidson diagonalization with overlap

     ethr =  1.25E-10,  avg # of iterations = 11.7

     total cpu time spent up to now is       15.5 secs

     End of band structure calculation

          k =-0.1250 0.1250 0.1250 (   338 PWs)   bands (ev):

    -5.6327   4.3798   5.6889   5.6889

          k =-0.6250-0.8750 0.1250 (   361 PWs)   bands (ev):

    -2.4435  -0.9047   2.0128   3.0845

          k =-0.3750 0.3750-0.1250 (   352 PWs)   bands (ev):

    -4.6091   1.3909   3.7080   5.2084

          k =-0.8750-0.6250-0.1250 (   361 PWs)   bands (ev):

    -2.4435  -0.9047   2.0128   3.0845

          k = 0.3750-0.3750 0.6250 (   361 PWs)   bands (ev):

    -3.4742  -0.6802   3.7271   4.4389

          k =-0.1250-1.3750 0.6250 (   361 PWs)   bands (ev):

    -2.9795  -0.5997   2.0697   4.1230

          k = 0.1250-0.1250 0.3750 (   353 PWs)   bands (ev):

    -5.1064   2.7639   4.6829   4.7460

          k =-0.3750-1.1250 0.3750 (   361 PWs)   bands (ev):

    -2.9795  -0.5997   2.0697   4.1230

          k =-0.1250 0.6250 0.1250 (   351 PWs)   bands (ev):

    -4.0778   1.0537   3.3609   3.8106

          k =-0.6250-0.3750 0.1250 (   357 PWs)   bands (ev):

    -3.6640   0.1847   2.7210   4.0854

          k = 0.6250-0.1250 0.8750 (   361 PWs)   bands (ev):

    -2.4435  -0.9047   2.0128   3.0845

          k = 0.1250-1.1250 0.8750 (   358 PWs)   bands (ev):

    -2.6098  -0.8079   2.6194   3.3447

          k = 0.3750 0.1250 0.6250 (   357 PWs)   bands (ev):

    -3.6640   0.1847   2.7210   4.0854

          k =-0.1250-0.8750 0.6250 (   361 PWs)   bands (ev):

    -2.4435  -0.9047   2.0128   3.0845

          k =-0.1250-0.8750 0.1250 (   358 PWs)   bands (ev):

    -2.6098  -0.8079   2.6194   3.3447

          k =-0.6250-1.8750 0.1250 (   351 PWs)   bands (ev):

    -4.0778   1.0537   3.3609   3.8106

          k =-0.3750 0.3750 0.3750 (   353 PWs)   bands (ev):

    -4.1780   0.1059   4.9022   4.9022

          k =-0.8750-0.6250 0.3750 (   357 PWs)   bands (ev):

    -3.6640   0.1847   2.7210   4.0854

          k = 0.3750-0.3750 1.1250 (   361 PWs)   bands (ev):

    -2.9795  -0.5997   2.0697   4.1230

          k =-0.1250-1.3750 1.1250 (   361 PWs)   bands (ev):

    -2.4435  -0.9047   2.0128   3.0845

          k = 0.1250-0.3750 0.3750 (   352 PWs)   bands (ev):

    -4.6091   1.3909   3.7080   5.2084

          k =-0.3750-1.3750 0.3750 (   361 PWs)   bands (ev):

    -3.4742  -0.6802   3.7271   4.4389

          k = 0.3750-0.3750-0.1250 (   352 PWs)   bands (ev):

    -4.6091   1.3909   3.7080   5.2084

          k =-0.1250-1.3750-0.1250 (   351 PWs)   bands (ev):

    -4.0778   1.0537   3.3609   3.8106

          k =-0.6250 0.3750-0.3750 (   361 PWs)   bands (ev):

    -3.4742  -0.6802   3.7271   4.4389

          k =-1.1250-0.6250-0.3750 (   357 PWs)   bands (ev):

    -3.6640   0.1847   2.7210   4.0854

          k =-0.3750 0.3750 0.6250 (   361 PWs)   bands (ev):

    -3.4742  -0.6802   3.7271   4.4389

          k =-0.8750-0.6250 0.6250 (   352 PWs)   bands (ev):

    -4.6091   1.3909   3.7080   5.2084

          k =-0.3750 0.1250-0.1250 (   353 PWs)   bands (ev):

    -5.1064   2.7639   4.6829   4.7460

          k =-0.8750-0.8750-0.1250 (   358 PWs)   bands (ev):

    -2.6098  -0.8079   2.6194   3.3447

          k =-0.1250 0.1250 0.3750 (   353 PWs)   bands (ev):

    -5.1064   2.7639   4.6829   4.7460

          k =-0.6250-0.8750 0.3750 (   357 PWs)   bands (ev):

    -3.6640   0.1847   2.7210   4.0854

          k = 0.1250 0.6250-0.1250 (   351 PWs)   bands (ev):

    -4.0778   1.0537   3.3609   3.8106

          k =-0.3750-0.3750-0.1250 (   352 PWs)   bands (ev):

    -4.6091   1.3909   3.7080   5.2084

          k = 0.6250 0.1250-0.1250 (   351 PWs)   bands (ev):

    -4.0778   1.0537   3.3609   3.8106

          k = 0.1250-0.8750-0.1250 (   358 PWs)   bands (ev):

    -2.6098  -0.8079   2.6194   3.3447

          k =-0.8750 0.1250-0.6250 (   361 PWs)   bands (ev):

    -2.4435  -0.9047   2.0128   3.0845

          k =-1.3750-0.8750-0.6250 (   352 PWs)   bands (ev):

    -4.6091   1.3909   3.7080   5.2084

          k = 0.8750-0.1250 0.6250 (   361 PWs)   bands (ev):

    -2.4435  -0.9047   2.0128   3.0845

          k = 0.3750-1.1250 0.6250 (   357 PWs)   bands (ev):

    -3.6640   0.1847   2.7210   4.0854

          k =-0.6250 0.1250 0.8750 (   361 PWs)   bands (ev):

    -2.4435  -0.9047   2.0128   3.0845

          k =-1.1250-0.8750 0.8750 (   338 PWs)   bands (ev):

    -5.6327   4.3798   5.6889   5.6889

          k =-0.1250 0.8750 0.6250 (   361 PWs)   bands (ev):

    -2.4435  -0.9047   2.0128   3.0845

          k =-0.6250-0.1250 0.6250 (   361 PWs)   bands (ev):

    -2.9795  -0.5997   2.0697   4.1230

          k = 0.1250 0.8750-0.6250 (   361 PWs)   bands (ev):

    -2.4435  -0.9047   2.0128   3.0845

          k =-0.3750-0.1250-0.6250 (   357 PWs)   bands (ev):

    -3.6640   0.1847   2.7210   4.0854

          k =-0.6250-0.1250-0.3750 (   357 PWs)   bands (ev):

    -3.6640   0.1847   2.7210   4.0854

          k =-1.1250-1.1250-0.3750 (   351 PWs)   bands (ev):

    -4.0778   1.0537   3.3609   3.8106

          k = 0.6250 0.1250 0.3750 (   357 PWs)   bands (ev):

    -3.6640   0.1847   2.7210   4.0854

          k = 0.1250-0.8750 0.3750 (   361 PWs)   bands (ev):

    -2.4435  -0.9047   2.0128   3.0845

          k =-0.3750-0.1250 0.6250 (   357 PWs)   bands (ev):

    -3.6640   0.1847   2.7210   4.0854

          k =-0.8750-1.1250 0.6250 (   353 PWs)   bands (ev):

    -5.1064   2.7639   4.6829   4.7460

          k = 0.1250 0.6250 0.3750 (   357 PWs)   bands (ev):

    -3.6640   0.1847   2.7210   4.0854

          k =-0.3750-0.3750 0.3750 (   353 PWs)   bands (ev):

    -4.1780   0.1059   4.9022   4.9022

          k =-0.1250 0.6250-0.3750 (   357 PWs)   bands (ev):

    -3.6640   0.1847   2.7210   4.0854

          k =-0.6250-0.3750-0.3750 (   361 PWs)   bands (ev):

    -3.4742  -0.6802   3.7271   4.4389

          k = 0.1250-0.8750-0.1250 (   358 PWs)   bands (ev):

    -2.6098  -0.8079   2.6194   3.3447

          k =-0.3750-1.8750-0.1250 (   353 PWs)   bands (ev):

    -5.1064   2.7639   4.6829   4.7460

          k =-0.8750 0.1250-0.1250 (   358 PWs)   bands (ev):

    -2.6098  -0.8079   2.6194   3.3447

          k =-1.3750-0.8750-0.1250 (   361 PWs)   bands (ev):

    -2.4435  -0.9047   2.0128   3.0845

          k =-1.1250 0.3750-0.3750 (   361 PWs)   bands (ev):

    -2.9795  -0.5997   2.0697   4.1230

          k =-1.6250-0.6250-0.3750 (   361 PWs)   bands (ev):

    -3.4742  -0.6802   3.7271   4.4389

          k =-0.3750 0.3750 1.1250 (   361 PWs)   bands (ev):

    -2.9795  -0.5997   2.0697   4.1230

          k =-0.8750-0.6250 1.1250 (   353 PWs)   bands (ev):

    -5.1064   2.7639   4.6829   4.7460

     highest occupied level (ev):     5.6889

     Writing output data file silicon.save

                                                                                

     bravais-lattice index     =            2
     lattice parameter (alat)  =      10.3400  a.u.
     unit-cell volume          =     276.3768 (a.u.)^3
     number of atoms/cell      =            2
     number of atomic types    =            1
     kinetic-energy cut-off    =      18.0000  Ry
     charge density cut-off    =      72.0000  Ry
     convergence threshold     =      1.0E-12
     beta                      =       0.7000
     number of iterations used =            4
     Exchange-correlation      =  SLA  PW   PBX  PBC ( 1  4  3  4 0 0)


     celldm(1)=   10.34000  celldm(2)=    0.00000  celldm(3)=    0.00000
     celldm(4)=    0.00000  celldm(5)=    0.00000  celldm(6)=    0.00000

     crystal axes: (cart. coord. in units of alat)
               a(1) = ( -0.5000  0.0000  0.5000 )  
               a(2) = (  0.0000  0.5000  0.5000 )  
               a(3) = ( -0.5000  0.5000  0.0000 )  

     reciprocal axes: (cart. coord. in units 2 pi/alat)
               b(1) = ( -1.0000 -1.0000  1.0000 )  
               b(2) = (  1.0000  1.0000  1.0000 )  
               b(3) = ( -1.0000  1.0000 -1.0000 )  


     Atoms inside the unit cell: 

     Cartesian axes

     site n.  atom      mass           positions (alat units)
        1     Si  28.0860   tau(    1) = (    0.00000    0.00000    0.00000  )
        2     Si  28.0860   tau(    2) = (    0.25000    0.25000    0.25000  )

     Computing dynamical matrix for 
                    q = (  -0.5000000  -1.0000000   0.0000000 )

      8 Sym.Ops. (no q -> -q+G )


     G cutoff =  194.9907  (   2741 G-vectors)     FFT grid: ( 20, 20, 20)
     number of k points=    64

     PseudoPot. # 1 for Si read from file:
     /home/max/quantum_espresso/qe-6.1/pseudo/Si.pbe-n-otfg.UPF
     MD5 check sum: 9493d466ad9c9e9c15d0f22cc9849f54
     Pseudo is Ultrasoft + core correction, Zval =  4.0
     Generated by new atomic code, or converted to UPF format
     Using radial grid of  899 points,  6 beta functions with: 
                l(1) =   0
                l(2) =   0
                l(3) =   1
                l(4) =   1
                l(5) =   2
                l(6) =   2
     Q(r) pseudized with  8 coefficients,  rinner =    1.250   1.250   1.250
                                                       1.250   1.250


     Atomic displacements:
     There are   3 irreducible representations

     Representation     1      2 modes -  To be done

     Representation     2      2 modes -  To be done

     Representation     3      2 modes -  To be done



     Alpha used in Ewald sum =   0.7000
     PHONON       :  3m10.17s CPU     3m18.11s WALL



     Representation #  1 modes #   1  2

     Self-consistent Calculation

      iter #   1 total cpu time :   199.0 secs   av.it.:   5.4
      thresh= 1.000E-02 alpha_mix =  0.700 |ddv_scf|^2 =  6.364E-06

      iter #   2 total cpu time :   199.9 secs   av.it.:   9.5
      thresh= 2.523E-04 alpha_mix =  0.700 |ddv_scf|^2 =  3.438E-06

      iter #   3 total cpu time :   200.8 secs   av.it.:   8.9
      thresh= 1.854E-04 alpha_mix =  0.700 |ddv_scf|^2 =  1.481E-08

      iter #   4 total cpu time :   201.5 secs   av.it.:   8.9
      thresh= 1.217E-05 alpha_mix =  0.700 |ddv_scf|^2 =  1.480E-11

      iter #   5 total cpu time :   202.3 secs   av.it.:   9.2
      thresh= 3.848E-07 alpha_mix =  0.700 |ddv_scf|^2 =  6.736E-13

     End of self-consistent calculation

     Convergence has been achieved 


     Representation #  2 modes #   3  4

     Self-consistent Calculation

      iter #   1 total cpu time :   203.2 secs   av.it.:   5.3
      thresh= 1.000E-02 alpha_mix =  0.700 |ddv_scf|^2 =  9.962E-06

      iter #   2 total cpu time :   203.9 secs   av.it.:   9.6
      thresh= 3.156E-04 alpha_mix =  0.700 |ddv_scf|^2 =  1.325E-05

      iter #   3 total cpu time :   205.1 secs   av.it.:   8.7
      thresh= 3.641E-04 alpha_mix =  0.700 |ddv_scf|^2 =  1.797E-08

      iter #   4 total cpu time :   206.3 secs   av.it.:   8.9
      thresh= 1.340E-05 alpha_mix =  0.700 |ddv_scf|^2 =  4.592E-11

      iter #   5 total cpu time :   207.1 secs   av.it.:   9.3
      thresh= 6.776E-07 alpha_mix =  0.700 |ddv_scf|^2 =  1.602E-12

      iter #   6 total cpu time :   207.7 secs   av.it.:   9.2
      thresh= 1.266E-07 alpha_mix =  0.700 |ddv_scf|^2 =  2.205E-14

     End of self-consistent calculation

     Convergence has been achieved 


     Representation #  3 modes #   5  6

     Self-consistent Calculation

      iter #   1 total cpu time :   208.4 secs   av.it.:   5.1
      thresh= 1.000E-02 alpha_mix =  0.700 |ddv_scf|^2 =  2.774E-06

      iter #   2 total cpu time :   209.4 secs   av.it.:   9.2
      thresh= 1.666E-04 alpha_mix =  0.700 |ddv_scf|^2 =  1.463E-06

      iter #   3 total cpu time :   210.1 secs   av.it.:   8.7
      thresh= 1.209E-04 alpha_mix =  0.700 |ddv_scf|^2 =  1.382E-08

      iter #   4 total cpu time :   211.2 secs   av.it.:   8.7
      thresh= 1.175E-05 alpha_mix =  0.700 |ddv_scf|^2 =  3.007E-11

      iter #   5 total cpu time :   211.9 secs   av.it.:   9.1
      thresh= 5.484E-07 alpha_mix =  0.700 |ddv_scf|^2 =  6.955E-13

     End of self-consistent calculation

     Convergence has been achieved 

     Number of q in the star =    6
     List of q in the star:
          1  -0.500000000  -1.000000000   0.000000000
          2   0.000000000   1.000000000   0.500000000
          3   0.000000000  -1.000000000  -0.500000000
          4   0.500000000   1.000000000   0.000000000
          5  -1.000000000  -0.500000000   0.000000000
          6   0.000000000  -0.500000000  -1.000000000

     Diagonalizing the dynamical matrix

     q = (   -0.500000000  -1.000000000   0.000000000 ) 

 **************************************************************************
     freq (    1) =       5.291644 [THz] =     176.510229 [cm-1]
     freq (    2) =       5.291644 [THz] =     176.510229 [cm-1]
     freq (    3) =       9.706833 [THz] =     323.785093 [cm-1]
     freq (    4) =       9.706833 [THz] =     323.785093 [cm-1]
     freq (    5) =      13.017136 [THz] =     434.204924 [cm-1]
     freq (    6) =      13.017136 [THz] =     434.204924 [cm-1]
 **************************************************************************

     init_run     :      2.33s CPU      2.38s WALL (       7 calls)
     electrons    :     11.23s CPU     11.65s WALL (       7 calls)

     Called by init_run:
     wfcinit      :      0.00s CPU      0.00s WALL (       7 calls)
     potinit      :      0.05s CPU      0.05s WALL (       7 calls)

     Called by electrons:
     c_bands      :     11.23s CPU     11.65s WALL (       7 calls)
     v_of_rho     :      0.05s CPU      0.05s WALL (       8 calls)
     newd         :      0.07s CPU      0.08s WALL (       8 calls)

     Called by c_bands:
     init_us_2    :      3.36s CPU      3.52s WALL (   17588 calls)
     cegterg      :      9.13s CPU      9.48s WALL (     796 calls)

     Called by sum_band:

     Called by *egterg:
     h_psi        :     91.75s CPU     95.64s WALL (  149504 calls)
     s_psi        :     29.23s CPU     30.47s WALL (  303688 calls)
     g_psi        :      0.11s CPU      0.11s WALL (    9308 calls)
     cdiaghg      :      0.62s CPU      0.65s WALL (   10104 calls)

     Called by h_psi:
     h_psi:pot    :     91.03s CPU     94.89s WALL (  149504 calls)
     h_psi:calbec :     15.69s CPU     16.34s WALL (  149504 calls)
     vloc_psi     :     60.44s CPU     63.03s WALL (  149504 calls)
     add_vuspsi   :     14.52s CPU     15.16s WALL (  149504 calls)

     General routines
     calbec       :     35.24s CPU     36.77s WALL (  340060 calls)
     fft          :      0.32s CPU      0.33s WALL (    5239 calls)
     ffts         :      0.15s CPU      0.16s WALL (    2748 calls)
     fftw         :     60.35s CPU     62.96s WALL ( 1354000 calls)
     davcio       :      1.10s CPU      1.17s WALL (   79045 calls)

     Parallel routines
     fft_scatter  :      8.49s CPU      8.83s WALL ( 1361987 calls)

     PHONON       :  3m23.29s CPU     3m31.92s WALL

     INITIALIZATION: 
     phq_setup    :      0.21s CPU      0.47s WALL (       8 calls)
     phq_init     :      7.70s CPU      7.87s WALL (       8 calls)

     phq_init     :      7.70s CPU      7.87s WALL (       8 calls)
     set_drhoc    :      1.46s CPU      1.48s WALL (      24 calls)
     init_vloc    :      0.01s CPU      0.01s WALL (       8 calls)
     init_us_1    :      2.37s CPU      2.41s WALL (       8 calls)
     newd         :      0.07s CPU      0.08s WALL (       8 calls)
     dvanqq       :      1.47s CPU      1.51s WALL (       8 calls)
     drho         :      3.29s CPU      3.36s WALL (       8 calls)

     DYNAMICAL MATRIX:
     dynmat0      :      1.58s CPU      1.60s WALL (       8 calls)
     phqscf       :    175.89s CPU    183.34s WALL (       8 calls)
     dynmatrix    :      0.02s CPU      0.02s WALL (       8 calls)

     phqscf       :    175.89s CPU    183.34s WALL (       8 calls)
     solve_linter :    173.17s CPU    180.57s WALL (      32 calls)
     drhodv       :      2.09s CPU      2.11s WALL (      32 calls)

     dynmat0      :      1.58s CPU      1.60s WALL (       8 calls)
     dynmat_us    :      0.59s CPU      0.60s WALL (       8 calls)
     d2ionq       :      0.02s CPU      0.02s WALL (       8 calls)
     dynmatcc     :      0.96s CPU      0.97s WALL (       8 calls)

     dynmat_us    :      0.59s CPU      0.60s WALL (       8 calls)
     addusdynmat  :      0.00s CPU      0.00s WALL (       8 calls)

     phqscf       :    175.89s CPU    183.34s WALL (       8 calls)
     solve_linter :    173.17s CPU    180.57s WALL (      32 calls)

     solve_linter :    173.17s CPU    180.57s WALL (      32 calls)
     dvqpsi_us    :      3.53s CPU      3.71s WALL (    2508 calls)
     ortho        :      3.88s CPU      4.09s WALL (   15550 calls)
     cgsolve      :    134.51s CPU    140.20s WALL (   15550 calls)
     incdrhoscf   :      9.38s CPU      9.79s WALL (   15550 calls)
     addusddens   :      5.68s CPU      5.84s WALL (     228 calls)
     vpsifft      :      6.05s CPU      6.36s WALL (   12922 calls)
     dv_of_drho   :      0.45s CPU      0.46s WALL (     295 calls)
     mix_pot      :      0.16s CPU      0.19s WALL (     201 calls)
     psymdvscf    :      1.08s CPU      1.10s WALL (     196 calls)
     newdq        :      6.13s CPU      6.34s WALL (     201 calls)
     adddvscf     :      1.59s CPU      1.67s WALL (   13042 calls)
     drhodvus     :      0.01s CPU      0.01s WALL (      32 calls)

     dvqpsi_us    :      3.53s CPU      3.71s WALL (    2508 calls)
     dvqpsi_us_on :      2.04s CPU      2.13s WALL (    2508 calls)

     cgsolve      :    134.51s CPU    140.20s WALL (   15550 calls)
     ch_psi       :    131.21s CPU    136.73s WALL (  138604 calls)

     ch_psi       :    131.21s CPU    136.73s WALL (  138604 calls)
     h_psi        :     91.75s CPU     95.64s WALL (  149504 calls)
     last         :     32.05s CPU     33.41s WALL (  138604 calls)

     h_psi        :     91.75s CPU     95.64s WALL (  149504 calls)
     add_vuspsi   :     14.52s CPU     15.16s WALL (  149504 calls)

     incdrhoscf   :      9.38s CPU      9.79s WALL (   15550 calls)
     addusdbec    :      2.32s CPU      2.43s WALL (   17998 calls)

     drhodvus     :      0.01s CPU      0.01s WALL (      32 calls)

      General routines
     calbec       :     35.24s CPU     36.77s WALL (  340060 calls)
     fft          :      0.32s CPU      0.33s WALL (    5239 calls)
     ffts         :      0.15s CPU      0.16s WALL (    2748 calls)
     fftw         :     60.35s CPU     62.96s WALL ( 1354000 calls)
     davcio       :      1.10s CPU      1.17s WALL (   79045 calls)
     write_rec    :      0.34s CPU      0.41s WALL (     233 calls)


     PHONON       :  3m23.29s CPU     3m31.92s WALL


   This run was terminated on:  14:31:47  30Oct2017            

=------------------------------------------------------------------------------=
   JOB DONE.
=------------------------------------------------------------------------------=
