
     Program PWSCF v.6.1 (svn rev. 13369) starts on  1Feb2018 at  3:40:55 

     This program is part of the open-source Quantum ESPRESSO suite
     for quantum simulation of materials; please cite
         "P. Giannozzi et al., J. Phys.:Condens. Matter 21 395502 (2009);
          URL http://www.quantum-espresso.org", 
     in publications or presentations arising from this work. More details at
     http://www.quantum-espresso.org/quote

     Parallel version (MPI), running on    64 processors
     K-points division:     npool     =       4
     R & G space division:  proc/nbgrp/npool/nimage =      16
     Waiting for input...
     Reading input from standard input

     Current dimensions of program PWSCF are:
     Max number of different atomic species (ntypx) = 10
     Max number of k-points (npk) =  80000
     Max angular momentum in pseudopotentials (lmaxx) =  3

     Subspace diagonalization in iterative solution of the eigenvalue problem:
     a serial algorithm will be used


     Parallelization info
     --------------------
     sticks:   dense  smooth     PW     G-vecs:    dense   smooth      PW
     Min          71      35     10                 1553      547      91
     Max          72      36     11                 1556      550      95
     Sum        1151     571    173                24883     8781    1505



     bravais-lattice index     =            3
     lattice parameter (alat)  =       8.0100  a.u.
     unit-cell volume          =     256.9612 (a.u.)^3
     number of atoms/cell      =            1
     number of atomic types    =            1
     number of electrons       =         9.00
     number of Kohn-Sham states=            9
     kinetic-energy cutoff     =      40.0000  Ry
     charge density cutoff     =     320.0000  Ry
     convergence threshold     =      1.0E-10
     mixing beta               =       0.7000
     number of iterations used =            8  plain     mixing
     Exchange-correlation      = SLA  PW   PBE  PBE ( 1  4  3  4 0 0)

     celldm(1)=   8.010000  celldm(2)=   0.000000  celldm(3)=   0.000000
     celldm(4)=   0.000000  celldm(5)=   0.000000  celldm(6)=   0.000000

     crystal axes: (cart. coord. in units of alat)
               a(1) = (   0.500000   0.500000   0.500000 )  
               a(2) = (  -0.500000   0.500000   0.500000 )  
               a(3) = (  -0.500000  -0.500000   0.500000 )  

     reciprocal axes: (cart. coord. in units 2 pi/alat)
               b(1) = (  1.000000  0.000000  1.000000 )  
               b(2) = ( -1.000000  1.000000  0.000000 )  
               b(3) = (  0.000000 -1.000000  1.000000 )  


     PseudoPot. # 1 for Na read from file:
     /home/s1333534/quantum_espresso/qe-6.1/pseudo/Na_pbe_v1.uspp.F.UPF
     MD5 check sum: 76a99c7e9422403d3e93cbc85ab7bccb
     Pseudo is Ultrasoft, Zval =  9.0
     Generated by new atomic code, or converted to UPF format
     Using radial grid of  819 points,  5 beta functions with: 
                l(1) =   0
                l(2) =   0
                l(3) =   1
                l(4) =   1
                l(5) =   2
     Q(r) pseudized with  8 coefficients,  rinner =    1.250   1.250   1.250
                                                       1.250   1.250

     atomic species   valence    mass     pseudopotential
        Na             9.00    22.99000     Na( 1.00)

     48 Sym. Ops., with inversion, found



   Cartesian axes

     site n.     atom                  positions (alat units)
         1           Na  tau(   1) = (   0.0000000   0.0000000   0.0000000  )

     number of k points=   250  Marzari-Vanderbilt smearing, width (Ry)=  0.0200

     Number of k-points >= 100: set verbosity='high' to print them.

     Dense  grid:    24883 G-vectors     FFT dimensions: (  40,  40,  40)

     Smooth grid:     8781 G-vectors     FFT dimensions: (  27,  27,  27)

     Estimated max dynamical RAM per process >       1.67MB

     Estimated total allocated dynamical RAM >     107.03MB

     Initial potential from superposition of free atoms

     starting charge    8.99371, renormalised to    9.00000
     Starting wfc are    5 randomized atomic wfcs +    4 random wfc

     total cpu time spent up to now is        0.6 secs

     per-process dynamical memory:     7.3 Mb

     Self-consistent Calculation

     iteration #  1     ecut=    40.00 Ry     beta=0.70
     Davidson diagonalization with overlap
     ethr =  1.00E-02,  avg # of iterations =  5.7

     Threshold (ethr) on eigenvalues was too large:
     Diagonalizing with lowered threshold

     Davidson diagonalization with overlap
     ethr =  9.82E-06,  avg # of iterations =  4.9

     total cpu time spent up to now is        3.1 secs

     total energy              =     -95.10636583 Ry
     Harris-Foulkes estimate   =     -95.10655605 Ry
     estimated scf accuracy    <       0.00088292 Ry

     iteration #  2     ecut=    40.00 Ry     beta=0.70
     Davidson diagonalization with overlap
     ethr =  9.81E-06,  avg # of iterations =  2.0

     total cpu time spent up to now is        3.9 secs

     total energy              =     -95.10646372 Ry
     Harris-Foulkes estimate   =     -95.10648386 Ry
     estimated scf accuracy    <       0.00009718 Ry

     iteration #  3     ecut=    40.00 Ry     beta=0.70
     Davidson diagonalization with overlap
     ethr =  1.08E-06,  avg # of iterations =  2.2

     total cpu time spent up to now is        4.6 secs

     total energy              =     -95.10647518 Ry
     Harris-Foulkes estimate   =     -95.10647618 Ry
     estimated scf accuracy    <       0.00000601 Ry

     iteration #  4     ecut=    40.00 Ry     beta=0.70
     Davidson diagonalization with overlap
     ethr =  6.68E-08,  avg # of iterations =  1.0

     total cpu time spent up to now is        5.2 secs

     total energy              =     -95.10647575 Ry
     Harris-Foulkes estimate   =     -95.10647571 Ry
     estimated scf accuracy    <       0.00000001 Ry

     iteration #  5     ecut=    40.00 Ry     beta=0.70
     Davidson diagonalization with overlap
     ethr =  1.42E-10,  avg # of iterations =  3.0

     total cpu time spent up to now is        6.1 secs

     total energy              =     -95.10647579 Ry
     Harris-Foulkes estimate   =     -95.10647578 Ry
     estimated scf accuracy    <          1.7E-09 Ry

     iteration #  6     ecut=    40.00 Ry     beta=0.70
     Davidson diagonalization with overlap
     ethr =  1.93E-11,  avg # of iterations =  1.5

     total cpu time spent up to now is        6.8 secs

     End of self-consistent calculation

     Number of k-points >= 100: set verbosity='high' to print the bands.

     the Fermi energy is     1.4967 ev

!    total energy              =     -95.10647579 Ry
     Harris-Foulkes estimate   =     -95.10647579 Ry
     estimated scf accuracy    <          5.7E-11 Ry

     The total energy is the sum of the following terms:

     one-electron contribution =     -88.71846703 Ry
     hartree contribution      =      44.67835389 Ry
     xc contribution           =     -14.26503429 Ry
     ewald contribution        =     -36.80123713 Ry
     smearing contrib. (-TS)   =      -0.00009122 Ry

     convergence has been achieved in   6 iterations


     Computing stress (Cartesian axis) and pressure

          total   stress  (Ry/bohr**3)                   (kbar)     P=   -4.81
  -0.00003267   0.00000000  -0.00000000         -4.81      0.00     -0.00
   0.00000000  -0.00003267   0.00000000          0.00     -4.81      0.00
  -0.00000000   0.00000000  -0.00003267         -0.00      0.00     -4.81


     Writing output data file na.bcc.save

     init_run     :      0.34s CPU      0.41s WALL (       1 calls)
     electrons    :      5.78s CPU      6.20s WALL (       1 calls)
     stress       :      0.20s CPU      0.20s WALL (       1 calls)

     Called by init_run:
     wfcinit      :      0.16s CPU      0.20s WALL (       1 calls)
     potinit      :      0.03s CPU      0.04s WALL (       1 calls)

     Called by electrons:
     c_bands      :      4.86s CPU      5.21s WALL (       7 calls)
     sum_band     :      0.75s CPU      0.81s WALL (       7 calls)
     v_of_rho     :      0.08s CPU      0.08s WALL (       7 calls)
     newd         :      0.07s CPU      0.07s WALL (       7 calls)
     mix_rho      :      0.01s CPU      0.02s WALL (       7 calls)

     Called by c_bands:
     init_us_2    :      0.08s CPU      0.09s WALL (    1008 calls)
     cegterg      :      4.29s CPU      4.62s WALL (     441 calls)

     Called by sum_band:
     sum_band:bec :      0.00s CPU      0.01s WALL (     441 calls)
     addusdens    :      0.08s CPU      0.09s WALL (       7 calls)

     Called by *egterg:
     h_psi        :      3.08s CPU      3.27s WALL (    1813 calls)
     s_psi        :      0.04s CPU      0.04s WALL (    1813 calls)
     g_psi        :      0.01s CPU      0.01s WALL (    1309 calls)
     cdiaghg      :      0.77s CPU      0.87s WALL (    1687 calls)

     Called by h_psi:
     h_psi:pot    :      3.06s CPU      3.25s WALL (    1813 calls)
     h_psi:calbec :      0.13s CPU      0.14s WALL (    1813 calls)
     vloc_psi     :      2.87s CPU      3.05s WALL (    1813 calls)
     add_vuspsi   :      0.04s CPU      0.04s WALL (    1813 calls)

     General routines
     calbec       :      0.17s CPU      0.18s WALL (    2317 calls)
     fft          :      0.08s CPU      0.10s WALL (     117 calls)
     ffts         :      0.01s CPU      0.01s WALL (      14 calls)
     fftw         :      3.05s CPU      3.23s WALL (   26085 calls)
     interpolate  :      0.02s CPU      0.02s WALL (      14 calls)
     davcio       :      0.00s CPU      0.01s WALL (      63 calls)

     Parallel routines
     fft_scatter  :      1.43s CPU      1.52s WALL (   26216 calls)

     PWSCF        :     7.45s CPU         8.07s WALL


   This run was terminated on:   3:41: 3   1Feb2018            

=------------------------------------------------------------------------------=
   JOB DONE.
=------------------------------------------------------------------------------=
