
     Program PWSCF v.6.1 (svn rev. 13369) starts on 21Dec2017 at 12:16:25 

     This program is part of the open-source Quantum ESPRESSO suite
     for quantum simulation of materials; please cite
         "P. Giannozzi et al., J. Phys.:Condens. Matter 21 395502 (2009);
          URL http://www.quantum-espresso.org", 
     in publications or presentations arising from this work. More details at
     http://www.quantum-espresso.org/quote

     Parallel version (MPI), running on     4 processors
     R & G space division:  proc/nbgrp/npool/nimage =       4
     Waiting for input...
     Reading input from standard input

     Current dimensions of program PWSCF are:
     Max number of different atomic species (ntypx) = 10
     Max number of k-points (npk) =  40000
     Max angular momentum in pseudopotentials (lmaxx) =  3

     Subspace diagonalization in iterative solution of the eigenvalue problem:
     a serial algorithm will be used


     Parallelization info
     --------------------
     sticks:   dense  smooth     PW     G-vecs:    dense   smooth      PW
     Min         201      99     34                 3710     1302     266
     Max         202     100     35                 3711     1303     267
     Sum         805     397    139                14841     5209    1067



     bravais-lattice index     =            2
     lattice parameter (alat)  =       8.4913  a.u.
     unit-cell volume          =     153.0595 (a.u.)^3
     number of atoms/cell      =            1
     number of atomic types    =            1
     number of electrons       =         9.00
     number of Kohn-Sham states=            9
     kinetic-energy cutoff     =      40.0000  Ry
     charge density cutoff     =     320.0000  Ry
     convergence threshold     =      1.0E-08
     mixing beta               =       0.7000
     number of iterations used =            8  plain     mixing
     Exchange-correlation      = SLA  PW   PBE  PBE ( 1  4  3  4 0 0)

     celldm(1)=   8.491286  celldm(2)=   0.000000  celldm(3)=   0.000000
     celldm(4)=   0.000000  celldm(5)=   0.000000  celldm(6)=   0.000000

     crystal axes: (cart. coord. in units of alat)
               a(1) = (  -0.500000   0.000000   0.500000 )  
               a(2) = (   0.000000   0.500000   0.500000 )  
               a(3) = (  -0.500000   0.500000   0.000000 )  

     reciprocal axes: (cart. coord. in units 2 pi/alat)
               b(1) = ( -1.000000 -1.000000  1.000000 )  
               b(2) = (  1.000000  1.000000  1.000000 )  
               b(3) = ( -1.000000  1.000000 -1.000000 )  


     PseudoPot. # 1 for Na read from file:
     /home/s1333534/quantum_espresso/qe-6.1/pseudo/Na_pbe_v1.uspp.F.UPF
     MD5 check sum: 76a99c7e9422403d3e93cbc85ab7bccb
     Pseudo is Ultrasoft, Zval =  9.0
     Generated by new atomic code, or converted to UPF format
     Using radial grid of  819 points,  5 beta functions with: 
                l(1) =   0
                l(2) =   0
                l(3) =   1
                l(4) =   1
                l(5) =   2
     Q(r) pseudized with  8 coefficients,  rinner =    1.250   1.250   1.250
                                                       1.250   1.250

     atomic species   valence    mass     pseudopotential
        Na             9.00    22.99000     Na( 1.00)

     48 Sym. Ops., with inversion, found



   Cartesian axes

     site n.     atom                  positions (alat units)
         1           Na  tau(   1) = (   0.0000000   0.0000000   0.0000000  )

     number of k points=   280  Marzari-Vanderbilt smearing, width (Ry)=  0.0200

     Number of k-points >= 100: set verbosity='high' to print them.

     Dense  grid:    14841 G-vectors     FFT dimensions: (  36,  36,  36)

     Smooth grid:     5209 G-vectors     FFT dimensions: (  25,  25,  25)

     Estimated max dynamical RAM per process >       8.81MB

     Estimated total allocated dynamical RAM >      35.25MB

     Initial potential from superposition of free atoms

     starting charge    8.99371, renormalised to    9.00000
     Starting wfc are    5 randomized atomic wfcs +    4 random wfc

     total cpu time spent up to now is        0.8 secs

     per-process dynamical memory:    14.3 Mb

     Self-consistent Calculation

     iteration #  1     ecut=    40.00 Ry     beta=0.70
     Davidson diagonalization with overlap
     ethr =  1.00E-02,  avg # of iterations =  5.3

     Threshold (ethr) on eigenvalues was too large:
     Diagonalizing with lowered threshold

     Davidson diagonalization with overlap
     ethr =  1.76E-05,  avg # of iterations =  2.9

     total cpu time spent up to now is        3.7 secs

     total energy              =     -95.08531449 Ry
     Harris-Foulkes estimate   =     -95.08587545 Ry
     estimated scf accuracy    <       0.00157747 Ry

     iteration #  2     ecut=    40.00 Ry     beta=0.70
     Davidson diagonalization with overlap
     ethr =  1.75E-05,  avg # of iterations =  2.0

     total cpu time spent up to now is        4.8 secs

     total energy              =     -95.08552203 Ry
     Harris-Foulkes estimate   =     -95.08556772 Ry
     estimated scf accuracy    <       0.00017771 Ry

     iteration #  3     ecut=    40.00 Ry     beta=0.70
     Davidson diagonalization with overlap
     ethr =  1.97E-06,  avg # of iterations =  2.2

     total cpu time spent up to now is        5.9 secs

     total energy              =     -95.08554497 Ry
     Harris-Foulkes estimate   =     -95.08554618 Ry
     estimated scf accuracy    <       0.00001025 Ry

     iteration #  4     ecut=    40.00 Ry     beta=0.70
     Davidson diagonalization with overlap
     ethr =  1.14E-07,  avg # of iterations =  1.0

     total cpu time spent up to now is        6.8 secs

     total energy              =     -95.08554592 Ry
     Harris-Foulkes estimate   =     -95.08554584 Ry
     estimated scf accuracy    <       0.00000001 Ry

     iteration #  5     ecut=    40.00 Ry     beta=0.70
     Davidson diagonalization with overlap
     ethr =  1.59E-10,  avg # of iterations =  3.0

     total cpu time spent up to now is        8.1 secs

     End of self-consistent calculation

     Number of k-points >= 100: set verbosity='high' to print the bands.

     the Fermi energy is     4.2990 ev

!    total energy              =     -95.08554596 Ry
     Harris-Foulkes estimate   =     -95.08554595 Ry
     estimated scf accuracy    <          2.1E-09 Ry

     The total energy is the sum of the following terms:

     one-electron contribution =     -76.63953279 Ry
     hartree contribution      =      39.63298656 Ry
     xc contribution           =     -14.34305567 Ry
     ewald contribution        =     -43.73587548 Ry
     smearing contrib. (-TS)   =      -0.00006858 Ry

     convergence has been achieved in   5 iterations


     Computing stress (Cartesian axis) and pressure

          total   stress  (Ry/bohr**3)                   (kbar)     P=   90.12
   0.00061264   0.00000000   0.00000000         90.12      0.00      0.00
   0.00000000   0.00061264   0.00000000          0.00     90.12      0.00
   0.00000000   0.00000000   0.00061264          0.00      0.00     90.12


     Writing output data file na.fcc.save

     init_run     :      0.48s CPU      0.65s WALL (       1 calls)
     electrons    :      7.03s CPU      7.31s WALL (       1 calls)
     stress       :      0.37s CPU      0.37s WALL (       1 calls)

     Called by init_run:
     wfcinit      :      0.33s CPU      0.46s WALL (       1 calls)
     potinit      :      0.01s CPU      0.02s WALL (       1 calls)

     Called by electrons:
     c_bands      :      5.84s CPU      6.06s WALL (       6 calls)
     sum_band     :      1.07s CPU      1.10s WALL (       6 calls)
     v_of_rho     :      0.07s CPU      0.07s WALL (       6 calls)
     newd         :      0.05s CPU      0.06s WALL (       6 calls)
     mix_rho      :      0.00s CPU      0.03s WALL (       6 calls)

     Called by c_bands:
     init_us_2    :      0.29s CPU      0.27s WALL (    3920 calls)
     cegterg      :      5.56s CPU      5.79s WALL (    1680 calls)

     Called by sum_band:
     sum_band:bec :      0.00s CPU      0.01s WALL (    1680 calls)
     addusdens    :      0.07s CPU      0.07s WALL (       6 calls)

     Called by *egterg:
     h_psi        :      4.34s CPU      4.53s WALL (    6513 calls)
     s_psi        :      0.08s CPU      0.06s WALL (    6513 calls)
     g_psi        :      0.04s CPU      0.03s WALL (    4553 calls)
     cdiaghg      :      0.90s CPU      1.03s WALL (    5953 calls)

     Called by h_psi:
     h_psi:pot    :      4.32s CPU      4.51s WALL (    6513 calls)
     h_psi:calbec :      0.12s CPU      0.11s WALL (    6513 calls)
     vloc_psi     :      4.14s CPU      4.30s WALL (    6513 calls)
     add_vuspsi   :      0.06s CPU      0.07s WALL (    6513 calls)

     General routines
     calbec       :      0.14s CPU      0.14s WALL (    8473 calls)
     fft          :      0.03s CPU      0.05s WALL (     101 calls)
     ffts         :      0.00s CPU      0.00s WALL (      12 calls)
     fftw         :      4.44s CPU      4.37s WALL (   97910 calls)
     interpolate  :      0.00s CPU      0.00s WALL (      12 calls)
     davcio       :      0.00s CPU      0.01s WALL (     280 calls)

     Parallel routines
     fft_scatter  :      0.89s CPU      0.99s WALL (   98023 calls)

     PWSCF        :     8.20s CPU         8.72s WALL


   This run was terminated on:  12:16:34  21Dec2017            

=------------------------------------------------------------------------------=
   JOB DONE.
=------------------------------------------------------------------------------=
