
     Program PHONON v.6.1 (svn rev. 13369) starts on 21Dec2017 at 12:16:34 

     This program is part of the open-source Quantum ESPRESSO suite
     for quantum simulation of materials; please cite
         "P. Giannozzi et al., J. Phys.:Condens. Matter 21 395502 (2009);
          URL http://www.quantum-espresso.org", 
     in publications or presentations arising from this work. More details at
     http://www.quantum-espresso.org/quote

     Parallel version (MPI), running on     4 processors
     R & G space division:  proc/nbgrp/npool/nimage =       4

     Reading data from directory:
     ./na.fcc.save

   Info: using nr1, nr2, nr3 values from input

   Info: using nr1, nr2, nr3 values from input

     IMPORTANT: XC functional enforced from input :
     Exchange-correlation      = SLA  PW   PBE  PBE ( 1  4  3  4 0 0)
     Any further DFT definition will be discarded
     Please, verify this is what you really want


     Parallelization info
     --------------------
     sticks:   dense  smooth     PW     G-vecs:    dense   smooth      PW
     Min         201      99     34                 3710     1302     266
     Max         202     100     35                 3711     1303     267
     Sum         805     397    139                14841     5209    1067



     Dynamical matrices for ( 8, 8, 8)  uniform grid of q-points
     (  29q-points):
       N         xq(1)         xq(2)         xq(3) 
       1   0.000000000   0.000000000   0.000000000
       2  -0.125000000   0.125000000  -0.125000000
       3  -0.250000000   0.250000000  -0.250000000
       4  -0.375000000   0.375000000  -0.375000000
       5   0.500000000  -0.500000000   0.500000000
       6   0.000000000   0.250000000   0.000000000
       7  -0.125000000   0.375000000  -0.125000000
       8  -0.250000000   0.500000000  -0.250000000
       9   0.625000000  -0.375000000   0.625000000
      10   0.500000000  -0.250000000   0.500000000
      11   0.375000000  -0.125000000   0.375000000
      12   0.250000000   0.000000000   0.250000000
      13   0.000000000   0.500000000   0.000000000
      14  -0.125000000   0.625000000  -0.125000000
      15   0.750000000  -0.250000000   0.750000000
      16   0.625000000  -0.125000000   0.625000000
      17   0.500000000   0.000000000   0.500000000
      18   0.000000000   0.750000000   0.000000000
      19   0.875000000  -0.125000000   0.875000000
      20   0.750000000   0.000000000   0.750000000
      21   0.000000000  -1.000000000   0.000000000
      22  -0.250000000   0.500000000   0.000000000
      23   0.625000000  -0.375000000   0.875000000
      24   0.500000000  -0.250000000   0.750000000
      25   0.750000000  -0.250000000   1.000000000
      26   0.625000000  -0.125000000   0.875000000
      27   0.500000000   0.000000000   0.750000000
      28  -0.250000000  -1.000000000   0.000000000
      29  -0.500000000  -1.000000000   0.000000000

     Calculation of q =    0.0000000   0.0000000   0.0000000

                                                                                

     bravais-lattice index     =            2
     lattice parameter (alat)  =       8.4913  a.u.
     unit-cell volume          =     153.0595 (a.u.)^3
     number of atoms/cell      =            1
     number of atomic types    =            1
     kinetic-energy cut-off    =      40.0000  Ry
     charge density cut-off    =     320.0000  Ry
     convergence threshold     =      1.0E-12
     beta                      =       0.7000
     number of iterations used =            4
     Exchange-correlation      = SLA  PW   PBE  PBE ( 1  4  3  4 0 0)


     celldm(1)=    8.49129  celldm(2)=    0.00000  celldm(3)=    0.00000
     celldm(4)=    0.00000  celldm(5)=    0.00000  celldm(6)=    0.00000

     crystal axes: (cart. coord. in units of alat)
               a(1) = ( -0.5000  0.0000  0.5000 )  
               a(2) = (  0.0000  0.5000  0.5000 )  
               a(3) = ( -0.5000  0.5000  0.0000 )  

     reciprocal axes: (cart. coord. in units 2 pi/alat)
               b(1) = ( -1.0000 -1.0000  1.0000 )  
               b(2) = (  1.0000  1.0000  1.0000 )  
               b(3) = ( -1.0000  1.0000 -1.0000 )  


     Atoms inside the unit cell: 

     Cartesian axes

     site n.  atom      mass           positions (alat units)
        1     Na  22.9900   tau(    1) = (    0.00000    0.00000    0.00000  )

     Computing dynamical matrix for 
                    q = (   0.0000000   0.0000000   0.0000000 )

     49 Sym.Ops. (with q -> -q+G )


     G cutoff =  584.4363  (   3710 G-vectors)     FFT grid: ( 36, 36, 36)
     G cutoff =  292.2181  (   1302 G-vectors)  smooth grid: ( 25, 25, 25)

     number of k points=   280  Marzari-Vanderbilt smearing, width (Ry)=  0.0200

     PseudoPot. # 1 for Na read from file:
     /home/s1333534/quantum_espresso/qe-6.1/pseudo/Na_pbe_v1.uspp.F.UPF
     MD5 check sum: 76a99c7e9422403d3e93cbc85ab7bccb
     Pseudo is Ultrasoft, Zval =  9.0
     Generated by new atomic code, or converted to UPF format
     Using radial grid of  819 points,  5 beta functions with: 
                l(1) =   0
                l(2) =   0
                l(3) =   1
                l(4) =   1
                l(5) =   2
     Q(r) pseudized with  8 coefficients,  rinner =    1.250   1.250   1.250
                                                       1.250   1.250

     Mode symmetry, O_h (m-3m)  point group:


     Atomic displacements:
     There are   1 irreducible representations

     Representation     1      3 modes -T_1u G_15  G_4-  To be done



     Alpha used in Ewald sum =   2.8000
     PHONON       :     1.77s CPU         1.84s WALL



     Representation #  1 modes #   1  2  3

     Self-consistent Calculation

     Pert. #  1: Fermi energy shift (Ry) =     4.1359E-25     1.5673E-38
     Pert. #  2: Fermi energy shift (Ry) =    -6.8932E-25     2.3510E-38
     Pert. #  3: Fermi energy shift (Ry) =     4.9975E-25     4.7020E-38

      iter #   1 total cpu time :     6.7 secs   av.it.:   5.4
      thresh= 1.000E-02 alpha_mix =  0.700 |ddv_scf|^2 =  2.728E-06

     Pert. #  1: Fermi energy shift (Ry) =    -6.0315E-25    -1.7143E-39
     Pert. #  2: Fermi energy shift (Ry) =     1.3786E-25     1.3469E-39
     Pert. #  3: Fermi energy shift (Ry) =    -3.6189E-25    -4.8979E-40

      iter #   2 total cpu time :    12.2 secs   av.it.:   8.3
      thresh= 1.652E-04 alpha_mix =  0.700 |ddv_scf|^2 =  5.441E-08

     Pert. #  1: Fermi energy shift (Ry) =     6.4623E-27    -6.1224E-41
     Pert. #  2: Fermi energy shift (Ry) =    -1.4069E-25     7.6530E-41
     Pert. #  3: Fermi energy shift (Ry) =     1.1275E-26    -1.2245E-40

      iter #   3 total cpu time :    17.9 secs   av.it.:   8.5
      thresh= 2.333E-05 alpha_mix =  0.700 |ddv_scf|^2 =  5.117E-10

     Pert. #  1: Fermi energy shift (Ry) =    -3.4466E-26    -2.6785E-41
     Pert. #  2: Fermi energy shift (Ry) =     1.1094E-25    -7.6530E-42
     Pert. #  3: Fermi energy shift (Ry) =    -4.0928E-26    -1.9132E-42

      iter #   4 total cpu time :    23.2 secs   av.it.:   7.9
      thresh= 2.262E-06 alpha_mix =  0.700 |ddv_scf|^2 =  1.499E-12

     Pert. #  1: Fermi energy shift (Ry) =     1.7233E-25    -3.5395E-41
     Pert. #  2: Fermi energy shift (Ry) =    -1.9818E-25     4.9744E-41
     Pert. #  3: Fermi energy shift (Ry) =    -3.8666E-25    -4.4005E-41

      iter #   5 total cpu time :    28.8 secs   av.it.:   8.2
      thresh= 1.224E-07 alpha_mix =  0.700 |ddv_scf|^2 =  9.056E-15

     End of self-consistent calculation

     Convergence has been achieved 

     Number of q in the star =    1
     List of q in the star:
          1   0.000000000   0.000000000   0.000000000

     Diagonalizing the dynamical matrix

     q = (    0.000000000   0.000000000   0.000000000 ) 

 **************************************************************************
     freq (    1) =       0.539248 [THz] =      17.987367 [cm-1]
     freq (    2) =       0.539248 [THz] =      17.987367 [cm-1]
     freq (    3) =       0.539248 [THz] =      17.987367 [cm-1]
 **************************************************************************

     Mode symmetry, O_h (m-3m)  point group:

     freq (  1 -  3) =         18.0  [cm-1]   --> T_1u G_15  G_4- I  

     Calculation of q =   -0.1250000   0.1250000  -0.1250000

   Info: using nr1, nr2, nr3 values from input

   Info: using nr1, nr2, nr3 values from input

     Parallelization info
     --------------------
     sticks:   dense  smooth     PW     G-vecs:    dense   smooth      PW
     Min         201      99     37                 3710     1302     284
     Max         202     100     38                 3711     1303     285
     Sum         805     397    151                14841     5209    1139



     bravais-lattice index     =            2
     lattice parameter (alat)  =       8.4913  a.u.
     unit-cell volume          =     153.0595 (a.u.)^3
     number of atoms/cell      =            1
     number of atomic types    =            1
     number of electrons       =         9.00
     number of Kohn-Sham states=            9
     kinetic-energy cutoff     =      40.0000  Ry
     charge density cutoff     =     320.0000  Ry
     Exchange-correlation      = SLA  PW   PBE  PBE ( 1  4  3  4 0 0)

     celldm(1)=   8.491286  celldm(2)=   0.000000  celldm(3)=   0.000000
     celldm(4)=   0.000000  celldm(5)=   0.000000  celldm(6)=   0.000000

     crystal axes: (cart. coord. in units of alat)
               a(1) = (  -0.500000   0.000000   0.500000 )  
               a(2) = (   0.000000   0.500000   0.500000 )  
               a(3) = (  -0.500000   0.500000   0.000000 )  

     reciprocal axes: (cart. coord. in units 2 pi/alat)
               b(1) = ( -1.000000 -1.000000  1.000000 )  
               b(2) = (  1.000000  1.000000  1.000000 )  
               b(3) = ( -1.000000  1.000000 -1.000000 )  


     PseudoPot. # 1 for Na read from file:
     /home/s1333534/quantum_espresso/qe-6.1/pseudo/Na_pbe_v1.uspp.F.UPF
     MD5 check sum: 76a99c7e9422403d3e93cbc85ab7bccb
     Pseudo is Ultrasoft, Zval =  9.0
     Generated by new atomic code, or converted to UPF format
     Using radial grid of  819 points,  5 beta functions with: 
                l(1) =   0
                l(2) =   0
                l(3) =   1
                l(4) =   1
                l(5) =   2
     Q(r) pseudized with  8 coefficients,  rinner =    1.250   1.250   1.250
                                                       1.250   1.250

     atomic species   valence    mass     pseudopotential
        Na             9.00    22.99000     Na( 1.00)

     48 Sym. Ops., with inversion, found



   Cartesian axes

     site n.     atom                  positions (alat units)
         1           Na  tau(   1) = (   0.0000000   0.0000000   0.0000000  )

     number of k points=  4060  Marzari-Vanderbilt smearing, width (Ry)=  0.0200

     Number of k-points >= 100: set verbosity='high' to print them.

     Dense  grid:    14841 G-vectors     FFT dimensions: (  36,  36,  36)

     Smooth grid:     5209 G-vectors     FFT dimensions: (  25,  25,  25)

     Estimated max dynamical RAM per process >       1.49MB

     Estimated total allocated dynamical RAM >       5.97MB

     The potential is recalculated from file :
     ./_ph0/na.fcc.save/charge-density.dat

     Starting wfc are    5 atomic +    4 random wfc

     Band Structure Calculation
     Davidson diagonalization with overlap

     ethr =  1.11E-10,  avg # of iterations = 16.6

     total cpu time spent up to now is       70.0 secs

     End of band structure calculation

     Number of k-points >= 100: set verbosity='high' to print the bands.

     the Fermi energy is     4.2990 ev

     Writing output data file na.fcc.save

                                                                                

     bravais-lattice index     =            2
     lattice parameter (alat)  =       8.4913  a.u.
     unit-cell volume          =     153.0595 (a.u.)^3
     number of atoms/cell      =            1
     number of atomic types    =            1
     kinetic-energy cut-off    =      40.0000  Ry
     charge density cut-off    =     320.0000  Ry
     convergence threshold     =      1.0E-12
     beta                      =       0.7000
     number of iterations used =            4
     Exchange-correlation      = SLA  PW   PBE  PBE ( 1  4  3  4 0 0)


     celldm(1)=    8.49129  celldm(2)=    0.00000  celldm(3)=    0.00000
     celldm(4)=    0.00000  celldm(5)=    0.00000  celldm(6)=    0.00000

     crystal axes: (cart. coord. in units of alat)
               a(1) = ( -0.5000  0.0000  0.5000 )  
               a(2) = (  0.0000  0.5000  0.5000 )  
               a(3) = ( -0.5000  0.5000  0.0000 )  

     reciprocal axes: (cart. coord. in units 2 pi/alat)
               b(1) = ( -1.0000 -1.0000  1.0000 )  
               b(2) = (  1.0000  1.0000  1.0000 )  
               b(3) = ( -1.0000  1.0000 -1.0000 )  


     Atoms inside the unit cell: 

     Cartesian axes

     site n.  atom      mass           positions (alat units)
        1     Na  22.9900   tau(    1) = (    0.00000    0.00000    0.00000  )

     Computing dynamical matrix for 
                    q = (  -0.1250000   0.1250000  -0.1250000 )

      6 Sym.Ops. (no q -> -q+G )


     G cutoff =  584.4363  (   3710 G-vectors)     FFT grid: ( 36, 36, 36)
     G cutoff =  292.2181  (   1302 G-vectors)  smooth grid: ( 25, 25, 25)

     number of k points=  4060  Marzari-Vanderbilt smearing, width (Ry)=  0.0200

     PseudoPot. # 1 for Na read from file:
     /home/s1333534/quantum_espresso/qe-6.1/pseudo/Na_pbe_v1.uspp.F.UPF
     MD5 check sum: 76a99c7e9422403d3e93cbc85ab7bccb
     Pseudo is Ultrasoft, Zval =  9.0
     Generated by new atomic code, or converted to UPF format
     Using radial grid of  819 points,  5 beta functions with: 
                l(1) =   0
                l(2) =   0
                l(3) =   1
                l(4) =   1
                l(5) =   2
     Q(r) pseudized with  8 coefficients,  rinner =    1.250   1.250   1.250
                                                       1.250   1.250

     Mode symmetry, C_3v (3m)   point group:


     Atomic displacements:
     There are   2 irreducible representations

     Representation     1      1 modes -A_1  L_1  To be done

     Representation     2      2 modes -E    L_3  To be done



     Alpha used in Ewald sum =   2.8000
     PHONON       :  1m41.01s CPU     1m47.44s WALL



     Representation #  1 mode #   1

     Self-consistent Calculation

      iter #   1 total cpu time :   119.4 secs   av.it.:   5.7
      thresh= 1.000E-02 alpha_mix =  0.700 |ddv_scf|^2 =  4.686E-01

      iter #   2 total cpu time :   131.9 secs   av.it.:   7.3
      thresh= 1.000E-02 alpha_mix =  0.700 |ddv_scf|^2 =  2.159E+02

      iter #   3 total cpu time :   144.7 secs   av.it.:   7.3
      thresh= 1.000E-02 alpha_mix =  0.700 |ddv_scf|^2 =  5.900E-04

      iter #   4 total cpu time :   154.1 secs   av.it.:   5.0
      thresh= 2.429E-03 alpha_mix =  0.700 |ddv_scf|^2 =  6.684E-07

      iter #   5 total cpu time :   166.0 secs   av.it.:   6.9
      thresh= 8.175E-05 alpha_mix =  0.700 |ddv_scf|^2 =  1.164E-08

      iter #   6 total cpu time :   178.1 secs   av.it.:   7.0
      thresh= 1.079E-05 alpha_mix =  0.700 |ddv_scf|^2 =  6.217E-07

      iter #   7 total cpu time :   186.1 secs   av.it.:   3.9
      thresh= 7.885E-05 alpha_mix =  0.700 |ddv_scf|^2 =  2.898E-10

      iter #   8 total cpu time :   198.6 secs   av.it.:   7.4
      thresh= 1.702E-06 alpha_mix =  0.700 |ddv_scf|^2 =  4.509E-11

      iter #   9 total cpu time :   210.4 secs   av.it.:   6.9
      thresh= 6.715E-07 alpha_mix =  0.700 |ddv_scf|^2 =  6.506E-13

     End of self-consistent calculation

     Convergence has been achieved 


     Representation #  2 modes #   2  3

     Self-consistent Calculation

      iter #   1 total cpu time :   234.2 secs   av.it.:   5.6
      thresh= 1.000E-02 alpha_mix =  0.700 |ddv_scf|^2 =  6.208E-06

      iter #   2 total cpu time :   261.6 secs   av.it.:   8.3
      thresh= 2.492E-04 alpha_mix =  0.700 |ddv_scf|^2 =  1.217E-07

      iter #   3 total cpu time :   289.2 secs   av.it.:   8.4
      thresh= 3.489E-05 alpha_mix =  0.700 |ddv_scf|^2 =  1.268E-09

      iter #   4 total cpu time :   315.7 secs   av.it.:   8.0
      thresh= 3.561E-06 alpha_mix =  0.700 |ddv_scf|^2 =  3.770E-12

      iter #   5 total cpu time :   342.8 secs   av.it.:   8.2
      thresh= 1.942E-07 alpha_mix =  0.700 |ddv_scf|^2 =  1.993E-14

     End of self-consistent calculation

     Convergence has been achieved 

     Number of q in the star =    8
     List of q in the star:
          1  -0.125000000   0.125000000  -0.125000000
          2   0.125000000  -0.125000000  -0.125000000
          3   0.125000000  -0.125000000   0.125000000
          4  -0.125000000   0.125000000   0.125000000
          5   0.125000000   0.125000000  -0.125000000
          6  -0.125000000  -0.125000000  -0.125000000
          7  -0.125000000  -0.125000000   0.125000000
          8   0.125000000   0.125000000   0.125000000

     Diagonalizing the dynamical matrix

     q = (   -0.125000000   0.125000000  -0.125000000 ) 

 **************************************************************************
     freq (    1) =       0.930655 [THz] =      31.043322 [cm-1]
     freq (    2) =       0.930655 [THz] =      31.043322 [cm-1]
     freq (    3) =       2.933576 [THz] =      97.853573 [cm-1]
 **************************************************************************

     Mode symmetry, C_3v (3m)   point group:

     freq (  1 -  2) =         31.0  [cm-1]   --> E    L_3           
     freq (  3 -  3) =         97.9  [cm-1]   --> A_1  L_1           

     Calculation of q =   -0.2500000   0.2500000  -0.2500000

   Info: using nr1, nr2, nr3 values from input

   Info: using nr1, nr2, nr3 values from input

     Parallelization info
     --------------------
     sticks:   dense  smooth     PW     G-vecs:    dense   smooth      PW
     Min         201      99     37                 3710     1302     309
     Max         202     100     38                 3711     1303     312
     Sum         805     397    151                14841     5209    1243



     bravais-lattice index     =            2
     lattice parameter (alat)  =       8.4913  a.u.
     unit-cell volume          =     153.0595 (a.u.)^3
     number of atoms/cell      =            1
     number of atomic types    =            1
     number of electrons       =         9.00
     number of Kohn-Sham states=            9
     kinetic-energy cutoff     =      40.0000  Ry
     charge density cutoff     =     320.0000  Ry
     Exchange-correlation      = SLA  PW   PBE  PBE ( 1  4  3  4 0 0)

     celldm(1)=   8.491286  celldm(2)=   0.000000  celldm(3)=   0.000000
     celldm(4)=   0.000000  celldm(5)=   0.000000  celldm(6)=   0.000000

     crystal axes: (cart. coord. in units of alat)
               a(1) = (  -0.500000   0.000000   0.500000 )  
               a(2) = (   0.000000   0.500000   0.500000 )  
               a(3) = (  -0.500000   0.500000   0.000000 )  

     reciprocal axes: (cart. coord. in units 2 pi/alat)
               b(1) = ( -1.000000 -1.000000  1.000000 )  
               b(2) = (  1.000000  1.000000  1.000000 )  
               b(3) = ( -1.000000  1.000000 -1.000000 )  


     PseudoPot. # 1 for Na read from file:
     /home/s1333534/quantum_espresso/qe-6.1/pseudo/Na_pbe_v1.uspp.F.UPF
     MD5 check sum: 76a99c7e9422403d3e93cbc85ab7bccb
     Pseudo is Ultrasoft, Zval =  9.0
     Generated by new atomic code, or converted to UPF format
     Using radial grid of  819 points,  5 beta functions with: 
                l(1) =   0
                l(2) =   0
                l(3) =   1
                l(4) =   1
                l(5) =   2
     Q(r) pseudized with  8 coefficients,  rinner =    1.250   1.250   1.250
                                                       1.250   1.250

     atomic species   valence    mass     pseudopotential
        Na             9.00    22.99000     Na( 1.00)

     48 Sym. Ops., with inversion, found



   Cartesian axes

     site n.     atom                  positions (alat units)
         1           Na  tau(   1) = (   0.0000000   0.0000000   0.0000000  )

     number of k points=  4060  Marzari-Vanderbilt smearing, width (Ry)=  0.0200

     Number of k-points >= 100: set verbosity='high' to print them.

     Dense  grid:    14841 G-vectors     FFT dimensions: (  36,  36,  36)

     Smooth grid:     5209 G-vectors     FFT dimensions: (  25,  25,  25)

     Estimated max dynamical RAM per process >       1.49MB

     Estimated total allocated dynamical RAM >       5.97MB

     The potential is recalculated from file :
     ./_ph0/na.fcc.save/charge-density.dat

     Starting wfc are    5 atomic +    4 random wfc

     Band Structure Calculation
     Davidson diagonalization with overlap

     ethr =  1.11E-10,  avg # of iterations = 16.6

     total cpu time spent up to now is      143.1 secs

     End of band structure calculation

     Number of k-points >= 100: set verbosity='high' to print the bands.

     the Fermi energy is     4.2990 ev

     Writing output data file na.fcc.save

                                                                                

     bravais-lattice index     =            2
     lattice parameter (alat)  =       8.4913  a.u.
     unit-cell volume          =     153.0595 (a.u.)^3
     number of atoms/cell      =            1
     number of atomic types    =            1
     kinetic-energy cut-off    =      40.0000  Ry
     charge density cut-off    =     320.0000  Ry
     convergence threshold     =      1.0E-12
     beta                      =       0.7000
     number of iterations used =            4
     Exchange-correlation      = SLA  PW   PBE  PBE ( 1  4  3  4 0 0)


     celldm(1)=    8.49129  celldm(2)=    0.00000  celldm(3)=    0.00000
     celldm(4)=    0.00000  celldm(5)=    0.00000  celldm(6)=    0.00000

     crystal axes: (cart. coord. in units of alat)
               a(1) = ( -0.5000  0.0000  0.5000 )  
               a(2) = (  0.0000  0.5000  0.5000 )  
               a(3) = ( -0.5000  0.5000  0.0000 )  

     reciprocal axes: (cart. coord. in units 2 pi/alat)
               b(1) = ( -1.0000 -1.0000  1.0000 )  
               b(2) = (  1.0000  1.0000  1.0000 )  
               b(3) = ( -1.0000  1.0000 -1.0000 )  


     Atoms inside the unit cell: 

     Cartesian axes

     site n.  atom      mass           positions (alat units)
        1     Na  22.9900   tau(    1) = (    0.00000    0.00000    0.00000  )

     Computing dynamical matrix for 
                    q = (  -0.2500000   0.2500000  -0.2500000 )

      6 Sym.Ops. (no q -> -q+G )


     G cutoff =  584.4363  (   3710 G-vectors)     FFT grid: ( 36, 36, 36)
     G cutoff =  292.2181  (   1302 G-vectors)  smooth grid: ( 25, 25, 25)

     number of k points=  4060  Marzari-Vanderbilt smearing, width (Ry)=  0.0200

     PseudoPot. # 1 for Na read from file:
     /home/s1333534/quantum_espresso/qe-6.1/pseudo/Na_pbe_v1.uspp.F.UPF
     MD5 check sum: 76a99c7e9422403d3e93cbc85ab7bccb
     Pseudo is Ultrasoft, Zval =  9.0
     Generated by new atomic code, or converted to UPF format
     Using radial grid of  819 points,  5 beta functions with: 
                l(1) =   0
                l(2) =   0
                l(3) =   1
                l(4) =   1
                l(5) =   2
     Q(r) pseudized with  8 coefficients,  rinner =    1.250   1.250   1.250
                                                       1.250   1.250

     Mode symmetry, C_3v (3m)   point group:


     Atomic displacements:
     There are   2 irreducible representations

     Representation     1      1 modes -A_1  L_1  To be done

     Representation     2      2 modes -E    L_3  To be done



     Alpha used in Ewald sum =   2.8000
     PHONON       :  6m26.07s CPU     7m 2.40s WALL



     Representation #  1 mode #   1

     Self-consistent Calculation

      iter #   1 total cpu time :   434.5 secs   av.it.:   5.7
      thresh= 1.000E-02 alpha_mix =  0.700 |ddv_scf|^2 =  7.406E-03

      iter #   2 total cpu time :   445.8 secs   av.it.:   6.3
      thresh= 8.606E-03 alpha_mix =  0.700 |ddv_scf|^2 =  1.636E-01

      iter #   3 total cpu time :   456.8 secs   av.it.:   6.1
      thresh= 1.000E-02 alpha_mix =  0.700 |ddv_scf|^2 =  5.846E-06

      iter #   4 total cpu time :   469.4 secs   av.it.:   7.2
      thresh= 2.418E-04 alpha_mix =  0.700 |ddv_scf|^2 =  2.126E-08

      iter #   5 total cpu time :   482.7 secs   av.it.:   7.9
      thresh= 1.458E-05 alpha_mix =  0.700 |ddv_scf|^2 =  4.448E-09

      iter #   6 total cpu time :   495.8 secs   av.it.:   7.5
      thresh= 6.670E-06 alpha_mix =  0.700 |ddv_scf|^2 =  4.844E-11

      iter #   7 total cpu time :   508.7 secs   av.it.:   7.6
      thresh= 6.960E-07 alpha_mix =  0.700 |ddv_scf|^2 =  5.646E-12

      iter #   8 total cpu time :   521.1 secs   av.it.:   7.2
      thresh= 2.376E-07 alpha_mix =  0.700 |ddv_scf|^2 =  4.950E-12

      iter #   9 total cpu time :   533.4 secs   av.it.:   6.7
      thresh= 2.225E-07 alpha_mix =  0.700 |ddv_scf|^2 =  5.618E-12

      iter #  10 total cpu time :   544.9 secs   av.it.:   6.5
      thresh= 2.370E-07 alpha_mix =  0.700 |ddv_scf|^2 =  1.523E-14

     End of self-consistent calculation

     Convergence has been achieved 


     Representation #  2 modes #   2  3

     Self-consistent Calculation

      iter #   1 total cpu time :   568.9 secs   av.it.:   5.6
      thresh= 1.000E-02 alpha_mix =  0.700 |ddv_scf|^2 =  6.368E-06

      iter #   2 total cpu time :   597.2 secs   av.it.:   8.3
      thresh= 2.523E-04 alpha_mix =  0.700 |ddv_scf|^2 =  1.204E-07

      iter #   3 total cpu time :   625.6 secs   av.it.:   8.4
      thresh= 3.470E-05 alpha_mix =  0.700 |ddv_scf|^2 =  1.534E-09

      iter #   4 total cpu time :   652.6 secs   av.it.:   8.0
      thresh= 3.917E-06 alpha_mix =  0.700 |ddv_scf|^2 =  4.717E-12

      iter #   5 total cpu time :   680.1 secs   av.it.:   8.2
      thresh= 2.172E-07 alpha_mix =  0.700 |ddv_scf|^2 =  1.898E-14

     End of self-consistent calculation

     Convergence has been achieved 

     Number of q in the star =    8
     List of q in the star:
          1  -0.250000000   0.250000000  -0.250000000
          2   0.250000000  -0.250000000  -0.250000000
          3   0.250000000  -0.250000000   0.250000000
          4  -0.250000000   0.250000000   0.250000000
          5   0.250000000   0.250000000  -0.250000000
          6  -0.250000000  -0.250000000  -0.250000000
          7  -0.250000000  -0.250000000   0.250000000
          8   0.250000000   0.250000000   0.250000000

     Diagonalizing the dynamical matrix

     q = (   -0.250000000   0.250000000  -0.250000000 ) 

 **************************************************************************
     freq (    1) =       1.567347 [THz] =      52.281081 [cm-1]
     freq (    2) =       1.567347 [THz] =      52.281081 [cm-1]
     freq (    3) =       5.115229 [THz] =     170.625665 [cm-1]
 **************************************************************************

     Mode symmetry, C_3v (3m)   point group:

     freq (  1 -  2) =         52.3  [cm-1]   --> E    L_3           
     freq (  3 -  3) =        170.6  [cm-1]   --> A_1  L_1           

     Calculation of q =   -0.3750000   0.3750000  -0.3750000

   Info: using nr1, nr2, nr3 values from input

   Info: using nr1, nr2, nr3 values from input

     Parallelization info
     --------------------
     sticks:   dense  smooth     PW     G-vecs:    dense   smooth      PW
     Min         201      99     37                 3710     1302     309
     Max         202     100     38                 3711     1303     312
     Sum         805     397    151                14841     5209    1243



     bravais-lattice index     =            2
     lattice parameter (alat)  =       8.4913  a.u.
     unit-cell volume          =     153.0595 (a.u.)^3
     number of atoms/cell      =            1
     number of atomic types    =            1
     number of electrons       =         9.00
     number of Kohn-Sham states=            9
     kinetic-energy cutoff     =      40.0000  Ry
     charge density cutoff     =     320.0000  Ry
     Exchange-correlation      = SLA  PW   PBE  PBE ( 1  4  3  4 0 0)

     celldm(1)=   8.491286  celldm(2)=   0.000000  celldm(3)=   0.000000
     celldm(4)=   0.000000  celldm(5)=   0.000000  celldm(6)=   0.000000

     crystal axes: (cart. coord. in units of alat)
               a(1) = (  -0.500000   0.000000   0.500000 )  
               a(2) = (   0.000000   0.500000   0.500000 )  
               a(3) = (  -0.500000   0.500000   0.000000 )  

     reciprocal axes: (cart. coord. in units 2 pi/alat)
               b(1) = ( -1.000000 -1.000000  1.000000 )  
               b(2) = (  1.000000  1.000000  1.000000 )  
               b(3) = ( -1.000000  1.000000 -1.000000 )  


     PseudoPot. # 1 for Na read from file:
     /home/s1333534/quantum_espresso/qe-6.1/pseudo/Na_pbe_v1.uspp.F.UPF
     MD5 check sum: 76a99c7e9422403d3e93cbc85ab7bccb
     Pseudo is Ultrasoft, Zval =  9.0
     Generated by new atomic code, or converted to UPF format
     Using radial grid of  819 points,  5 beta functions with: 
                l(1) =   0
                l(2) =   0
                l(3) =   1
                l(4) =   1
                l(5) =   2
     Q(r) pseudized with  8 coefficients,  rinner =    1.250   1.250   1.250
                                                       1.250   1.250

     atomic species   valence    mass     pseudopotential
        Na             9.00    22.99000     Na( 1.00)

     48 Sym. Ops., with inversion, found



   Cartesian axes

     site n.     atom                  positions (alat units)
         1           Na  tau(   1) = (   0.0000000   0.0000000   0.0000000  )

     number of k points=  4060  Marzari-Vanderbilt smearing, width (Ry)=  0.0200

     Number of k-points >= 100: set verbosity='high' to print them.

     Dense  grid:    14841 G-vectors     FFT dimensions: (  36,  36,  36)

     Smooth grid:     5209 G-vectors     FFT dimensions: (  25,  25,  25)

     Estimated max dynamical RAM per process >       1.49MB

     Estimated total allocated dynamical RAM >       5.97MB

     The potential is recalculated from file :
     ./_ph0/na.fcc.save/charge-density.dat

     Starting wfc are    5 atomic +    4 random wfc

     Band Structure Calculation
     Davidson diagonalization with overlap

     ethr =  1.11E-10,  avg # of iterations = 16.6

     total cpu time spent up to now is      216.3 secs

     End of band structure calculation

     Number of k-points >= 100: set verbosity='high' to print the bands.

     the Fermi energy is     4.2990 ev

     Writing output data file na.fcc.save

                                                                                

     bravais-lattice index     =            2
     lattice parameter (alat)  =       8.4913  a.u.
     unit-cell volume          =     153.0595 (a.u.)^3
     number of atoms/cell      =            1
     number of atomic types    =            1
     kinetic-energy cut-off    =      40.0000  Ry
     charge density cut-off    =     320.0000  Ry
     convergence threshold     =      1.0E-12
     beta                      =       0.7000
     number of iterations used =            4
     Exchange-correlation      = SLA  PW   PBE  PBE ( 1  4  3  4 0 0)


     celldm(1)=    8.49129  celldm(2)=    0.00000  celldm(3)=    0.00000
     celldm(4)=    0.00000  celldm(5)=    0.00000  celldm(6)=    0.00000

     crystal axes: (cart. coord. in units of alat)
               a(1) = ( -0.5000  0.0000  0.5000 )  
               a(2) = (  0.0000  0.5000  0.5000 )  
               a(3) = ( -0.5000  0.5000  0.0000 )  

     reciprocal axes: (cart. coord. in units 2 pi/alat)
               b(1) = ( -1.0000 -1.0000  1.0000 )  
               b(2) = (  1.0000  1.0000  1.0000 )  
               b(3) = ( -1.0000  1.0000 -1.0000 )  


     Atoms inside the unit cell: 

     Cartesian axes

     site n.  atom      mass           positions (alat units)
        1     Na  22.9900   tau(    1) = (    0.00000    0.00000    0.00000  )

     Computing dynamical matrix for 
                    q = (  -0.3750000   0.3750000  -0.3750000 )

      6 Sym.Ops. (no q -> -q+G )


     G cutoff =  584.4363  (   3710 G-vectors)     FFT grid: ( 36, 36, 36)
     G cutoff =  292.2181  (   1302 G-vectors)  smooth grid: ( 25, 25, 25)

     number of k points=  4060  Marzari-Vanderbilt smearing, width (Ry)=  0.0200

     PseudoPot. # 1 for Na read from file:
     /home/s1333534/quantum_espresso/qe-6.1/pseudo/Na_pbe_v1.uspp.F.UPF
     MD5 check sum: 76a99c7e9422403d3e93cbc85ab7bccb
     Pseudo is Ultrasoft, Zval =  9.0
     Generated by new atomic code, or converted to UPF format
     Using radial grid of  819 points,  5 beta functions with: 
                l(1) =   0
                l(2) =   0
                l(3) =   1
                l(4) =   1
                l(5) =   2
     Q(r) pseudized with  8 coefficients,  rinner =    1.250   1.250   1.250
                                                       1.250   1.250

     Mode symmetry, C_3v (3m)   point group:


     Atomic displacements:
     There are   2 irreducible representations

     Representation     1      1 modes -A_1  L_1  To be done

     Representation     2      2 modes -E    L_3  To be done



     Alpha used in Ewald sum =   2.8000
     PHONON       : 11m32.24s CPU    12m40.63s WALL



     Representation #  1 mode #   1

     Self-consistent Calculation

      iter #   1 total cpu time :   772.8 secs   av.it.:   5.8
      thresh= 1.000E-02 alpha_mix =  0.700 |ddv_scf|^2 =  7.633E-04

      iter #   2 total cpu time :   784.5 secs   av.it.:   6.6
      thresh= 2.763E-03 alpha_mix =  0.700 |ddv_scf|^2 =  2.190E-03

      iter #   3 total cpu time :   795.8 secs   av.it.:   6.1
      thresh= 4.679E-03 alpha_mix =  0.700 |ddv_scf|^2 =  8.991E-07

      iter #   4 total cpu time :   810.0 secs   av.it.:   7.7
      thresh= 9.482E-05 alpha_mix =  0.700 |ddv_scf|^2 =  2.254E-08

      iter #   5 total cpu time :   823.6 secs   av.it.:   8.0
      thresh= 1.501E-05 alpha_mix =  0.700 |ddv_scf|^2 =  1.152E-09

      iter #   6 total cpu time :   836.7 secs   av.it.:   7.8
      thresh= 3.394E-06 alpha_mix =  0.700 |ddv_scf|^2 =  3.428E-11

      iter #   7 total cpu time :   849.5 secs   av.it.:   7.5
      thresh= 5.855E-07 alpha_mix =  0.700 |ddv_scf|^2 =  1.958E-12

      iter #   8 total cpu time :   862.5 secs   av.it.:   7.6
      thresh= 1.399E-07 alpha_mix =  0.700 |ddv_scf|^2 =  4.235E-15

     End of self-consistent calculation

     Convergence has been achieved 


     Representation #  2 modes #   2  3

     Self-consistent Calculation

      iter #   1 total cpu time :   886.6 secs   av.it.:   5.6
      thresh= 1.000E-02 alpha_mix =  0.700 |ddv_scf|^2 =  6.520E-06

      iter #   2 total cpu time :   914.4 secs   av.it.:   8.3
      thresh= 2.553E-04 alpha_mix =  0.700 |ddv_scf|^2 =  1.195E-07

      iter #   3 total cpu time :   942.7 secs   av.it.:   8.3
      thresh= 3.456E-05 alpha_mix =  0.700 |ddv_scf|^2 =  1.765E-09

      iter #   4 total cpu time :   969.3 secs   av.it.:   8.0
      thresh= 4.201E-06 alpha_mix =  0.700 |ddv_scf|^2 =  5.542E-12

      iter #   5 total cpu time :   997.6 secs   av.it.:   8.2
      thresh= 2.354E-07 alpha_mix =  0.700 |ddv_scf|^2 =  1.854E-14

     End of self-consistent calculation

     Convergence has been achieved 

     Number of q in the star =    8
     List of q in the star:
          1  -0.375000000   0.375000000  -0.375000000
          2   0.375000000  -0.375000000  -0.375000000
          3   0.375000000  -0.375000000   0.375000000
          4  -0.375000000   0.375000000   0.375000000
          5   0.375000000   0.375000000  -0.375000000
          6  -0.375000000  -0.375000000  -0.375000000
          7  -0.375000000  -0.375000000   0.375000000
          8   0.375000000   0.375000000   0.375000000

     Diagonalizing the dynamical matrix

     q = (   -0.375000000   0.375000000  -0.375000000 ) 

 **************************************************************************
     freq (    1) =       2.060881 [THz] =      68.743586 [cm-1]
     freq (    2) =       2.060881 [THz] =      68.743586 [cm-1]
     freq (    3) =       6.734941 [THz] =     224.653463 [cm-1]
 **************************************************************************

     Mode symmetry, C_3v (3m)   point group:

     freq (  1 -  2) =         68.7  [cm-1]   --> E    L_3           
     freq (  3 -  3) =        224.7  [cm-1]   --> A_1  L_1           

     Calculation of q =    0.5000000  -0.5000000   0.5000000

   Info: using nr1, nr2, nr3 values from input

   Info: using nr1, nr2, nr3 values from input

     Parallelization info
     --------------------
     sticks:   dense  smooth     PW     G-vecs:    dense   smooth      PW
     Min         201      99     40                 3710     1302     340
     Max         202     100     41                 3711     1303     342
     Sum         805     397    163                14841     5209    1363



     bravais-lattice index     =            2
     lattice parameter (alat)  =       8.4913  a.u.
     unit-cell volume          =     153.0595 (a.u.)^3
     number of atoms/cell      =            1
     number of atomic types    =            1
     number of electrons       =         9.00
     number of Kohn-Sham states=            9
     kinetic-energy cutoff     =      40.0000  Ry
     charge density cutoff     =     320.0000  Ry
     Exchange-correlation      = SLA  PW   PBE  PBE ( 1  4  3  4 0 0)

     celldm(1)=   8.491286  celldm(2)=   0.000000  celldm(3)=   0.000000
     celldm(4)=   0.000000  celldm(5)=   0.000000  celldm(6)=   0.000000

     crystal axes: (cart. coord. in units of alat)
               a(1) = (  -0.500000   0.000000   0.500000 )  
               a(2) = (   0.000000   0.500000   0.500000 )  
               a(3) = (  -0.500000   0.500000   0.000000 )  

     reciprocal axes: (cart. coord. in units 2 pi/alat)
               b(1) = ( -1.000000 -1.000000  1.000000 )  
               b(2) = (  1.000000  1.000000  1.000000 )  
               b(3) = ( -1.000000  1.000000 -1.000000 )  


     PseudoPot. # 1 for Na read from file:
     /home/s1333534/quantum_espresso/qe-6.1/pseudo/Na_pbe_v1.uspp.F.UPF
     MD5 check sum: 76a99c7e9422403d3e93cbc85ab7bccb
     Pseudo is Ultrasoft, Zval =  9.0
     Generated by new atomic code, or converted to UPF format
     Using radial grid of  819 points,  5 beta functions with: 
                l(1) =   0
                l(2) =   0
                l(3) =   1
                l(4) =   1
                l(5) =   2
     Q(r) pseudized with  8 coefficients,  rinner =    1.250   1.250   1.250
                                                       1.250   1.250

     atomic species   valence    mass     pseudopotential
        Na             9.00    22.99000     Na( 1.00)

     48 Sym. Ops., with inversion, found



   Cartesian axes

     site n.     atom                  positions (alat units)
         1           Na  tau(   1) = (   0.0000000   0.0000000   0.0000000  )

     number of k points=  2030  Marzari-Vanderbilt smearing, width (Ry)=  0.0200

     Number of k-points >= 100: set verbosity='high' to print them.

     Dense  grid:    14841 G-vectors     FFT dimensions: (  36,  36,  36)

     Smooth grid:     5209 G-vectors     FFT dimensions: (  25,  25,  25)

     Estimated max dynamical RAM per process >       1.49MB

     Estimated total allocated dynamical RAM >       5.97MB

     The potential is recalculated from file :
     ./_ph0/na.fcc.save/charge-density.dat

     Starting wfc are    5 atomic +    4 random wfc

     Band Structure Calculation
     Davidson diagonalization with overlap

     ethr =  1.11E-10,  avg # of iterations = 16.6

     total cpu time spent up to now is      254.4 secs

     End of band structure calculation

     Number of k-points >= 100: set verbosity='high' to print the bands.

     the Fermi energy is     4.2990 ev

     Writing output data file na.fcc.save

                                                                                

     bravais-lattice index     =            2
     lattice parameter (alat)  =       8.4913  a.u.
     unit-cell volume          =     153.0595 (a.u.)^3
     number of atoms/cell      =            1
     number of atomic types    =            1
     kinetic-energy cut-off    =      40.0000  Ry
     charge density cut-off    =     320.0000  Ry
     convergence threshold     =      1.0E-12
     beta                      =       0.7000
     number of iterations used =            4
     Exchange-correlation      = SLA  PW   PBE  PBE ( 1  4  3  4 0 0)


     celldm(1)=    8.49129  celldm(2)=    0.00000  celldm(3)=    0.00000
     celldm(4)=    0.00000  celldm(5)=    0.00000  celldm(6)=    0.00000

     crystal axes: (cart. coord. in units of alat)
               a(1) = ( -0.5000  0.0000  0.5000 )  
               a(2) = (  0.0000  0.5000  0.5000 )  
               a(3) = ( -0.5000  0.5000  0.0000 )  

     reciprocal axes: (cart. coord. in units 2 pi/alat)
               b(1) = ( -1.0000 -1.0000  1.0000 )  
               b(2) = (  1.0000  1.0000  1.0000 )  
               b(3) = ( -1.0000  1.0000 -1.0000 )  


     Atoms inside the unit cell: 

     Cartesian axes

     site n.  atom      mass           positions (alat units)
        1     Na  22.9900   tau(    1) = (    0.00000    0.00000    0.00000  )

     Computing dynamical matrix for 
                    q = (   0.5000000  -0.5000000   0.5000000 )

     13 Sym.Ops. (with q -> -q+G )


     G cutoff =  584.4363  (   3710 G-vectors)     FFT grid: ( 36, 36, 36)
     G cutoff =  292.2181  (   1302 G-vectors)  smooth grid: ( 25, 25, 25)

     number of k points=  2030  Marzari-Vanderbilt smearing, width (Ry)=  0.0200

     PseudoPot. # 1 for Na read from file:
     /home/s1333534/quantum_espresso/qe-6.1/pseudo/Na_pbe_v1.uspp.F.UPF
     MD5 check sum: 76a99c7e9422403d3e93cbc85ab7bccb
     Pseudo is Ultrasoft, Zval =  9.0
     Generated by new atomic code, or converted to UPF format
     Using radial grid of  819 points,  5 beta functions with: 
                l(1) =   0
                l(2) =   0
                l(3) =   1
                l(4) =   1
                l(5) =   2
     Q(r) pseudized with  8 coefficients,  rinner =    1.250   1.250   1.250
                                                       1.250   1.250

     Mode symmetry, D_3d (-3m)  point group:


     Atomic displacements:
     There are   2 irreducible representations

     Representation     1      1 modes -A_2u L_2'  To be done

     Representation     2      2 modes -E_u  L_3'  To be done



     Alpha used in Ewald sum =   2.8000
     PHONON       : 15m42.03s CPU    17m17.76s WALL



     Representation #  1 mode #   1

     Self-consistent Calculation

      iter #   1 total cpu time :  1043.9 secs   av.it.:   5.8
      thresh= 1.000E-02 alpha_mix =  0.700 |ddv_scf|^2 =  2.911E-04

      iter #   2 total cpu time :  1050.0 secs   av.it.:   6.8
      thresh= 1.706E-03 alpha_mix =  0.700 |ddv_scf|^2 =  1.627E-04

      iter #   3 total cpu time :  1055.9 secs   av.it.:   6.7
      thresh= 1.276E-03 alpha_mix =  0.700 |ddv_scf|^2 =  1.583E-07

      iter #   4 total cpu time :  1062.6 secs   av.it.:   7.7
      thresh= 3.978E-05 alpha_mix =  0.700 |ddv_scf|^2 =  5.842E-10

      iter #   5 total cpu time :  1068.5 secs   av.it.:   6.7
      thresh= 2.417E-06 alpha_mix =  0.700 |ddv_scf|^2 =  1.510E-11

      iter #   6 total cpu time :  1074.6 secs   av.it.:   6.3
      thresh= 3.885E-07 alpha_mix =  0.700 |ddv_scf|^2 =  2.089E-14

     End of self-consistent calculation

     Convergence has been achieved 


     Representation #  2 modes #   2  3

     Self-consistent Calculation

      iter #   1 total cpu time :  1086.6 secs   av.it.:   5.5
      thresh= 1.000E-02 alpha_mix =  0.700 |ddv_scf|^2 =  6.580E-06

      iter #   2 total cpu time :  1100.3 secs   av.it.:   8.2
      thresh= 2.565E-04 alpha_mix =  0.700 |ddv_scf|^2 =  1.193E-07

      iter #   3 total cpu time :  1114.9 secs   av.it.:   8.3
      thresh= 3.454E-05 alpha_mix =  0.700 |ddv_scf|^2 =  1.852E-09

      iter #   4 total cpu time :  1128.0 secs   av.it.:   7.7
      thresh= 4.304E-06 alpha_mix =  0.700 |ddv_scf|^2 =  5.771E-12

      iter #   5 total cpu time :  1141.6 secs   av.it.:   8.0
      thresh= 2.402E-07 alpha_mix =  0.700 |ddv_scf|^2 =  1.843E-14

     End of self-consistent calculation

     Convergence has been achieved 

     Number of q in the star =    4
     List of q in the star:
          1   0.500000000  -0.500000000   0.500000000
          2   0.500000000   0.500000000   0.500000000
          3  -0.500000000   0.500000000   0.500000000
          4   0.500000000   0.500000000  -0.500000000

     Diagonalizing the dynamical matrix

     q = (    0.500000000  -0.500000000   0.500000000 ) 

 **************************************************************************
     freq (    1) =       2.300326 [THz] =      76.730607 [cm-1]
     freq (    2) =       2.300326 [THz] =      76.730607 [cm-1]
     freq (    3) =       7.336086 [THz] =     244.705494 [cm-1]
 **************************************************************************

     Mode symmetry, D_3d (-3m)  point group:

     freq (  1 -  2) =         76.7  [cm-1]   --> E_u  L_3'          
     freq (  3 -  3) =        244.7  [cm-1]   --> A_2u L_2'          

     Calculation of q =    0.0000000   0.2500000   0.0000000

   Info: using nr1, nr2, nr3 values from input

   Info: using nr1, nr2, nr3 values from input

     Parallelization info
     --------------------
     sticks:   dense  smooth     PW     G-vecs:    dense   smooth      PW
     Min         201      99     37                 3710     1302     284
     Max         202     100     38                 3711     1303     285
     Sum         805     397    151                14841     5209    1139



     bravais-lattice index     =            2
     lattice parameter (alat)  =       8.4913  a.u.
     unit-cell volume          =     153.0595 (a.u.)^3
     number of atoms/cell      =            1
     number of atomic types    =            1
     number of electrons       =         9.00
     number of Kohn-Sham states=            9
     kinetic-energy cutoff     =      40.0000  Ry
     charge density cutoff     =     320.0000  Ry
     Exchange-correlation      = SLA  PW   PBE  PBE ( 1  4  3  4 0 0)

     celldm(1)=   8.491286  celldm(2)=   0.000000  celldm(3)=   0.000000
     celldm(4)=   0.000000  celldm(5)=   0.000000  celldm(6)=   0.000000

     crystal axes: (cart. coord. in units of alat)
               a(1) = (  -0.500000   0.000000   0.500000 )  
               a(2) = (   0.000000   0.500000   0.500000 )  
               a(3) = (  -0.500000   0.500000   0.000000 )  

     reciprocal axes: (cart. coord. in units 2 pi/alat)
               b(1) = ( -1.000000 -1.000000  1.000000 )  
               b(2) = (  1.000000  1.000000  1.000000 )  
               b(3) = ( -1.000000  1.000000 -1.000000 )  


     PseudoPot. # 1 for Na read from file:
     /home/s1333534/quantum_espresso/qe-6.1/pseudo/Na_pbe_v1.uspp.F.UPF
     MD5 check sum: 76a99c7e9422403d3e93cbc85ab7bccb
     Pseudo is Ultrasoft, Zval =  9.0
     Generated by new atomic code, or converted to UPF format
     Using radial grid of  819 points,  5 beta functions with: 
                l(1) =   0
                l(2) =   0
                l(3) =   1
                l(4) =   1
                l(5) =   2
     Q(r) pseudized with  8 coefficients,  rinner =    1.250   1.250   1.250
                                                       1.250   1.250

     atomic species   valence    mass     pseudopotential
        Na             9.00    22.99000     Na( 1.00)

     48 Sym. Ops., with inversion, found



   Cartesian axes

     site n.     atom                  positions (alat units)
         1           Na  tau(   1) = (   0.0000000   0.0000000   0.0000000  )

     number of k points=  2940  Marzari-Vanderbilt smearing, width (Ry)=  0.0200

     Number of k-points >= 100: set verbosity='high' to print them.

     Dense  grid:    14841 G-vectors     FFT dimensions: (  36,  36,  36)

     Smooth grid:     5209 G-vectors     FFT dimensions: (  25,  25,  25)

     Estimated max dynamical RAM per process >       1.49MB

     Estimated total allocated dynamical RAM >       5.97MB

     The potential is recalculated from file :
     ./_ph0/na.fcc.save/charge-density.dat

     Starting wfc are    5 atomic +    4 random wfc

     Band Structure Calculation
     Davidson diagonalization with overlap

     ethr =  1.11E-10,  avg # of iterations = 16.6

     total cpu time spent up to now is      306.3 secs

     End of band structure calculation

     Number of k-points >= 100: set verbosity='high' to print the bands.

     the Fermi energy is     4.2990 ev

     Writing output data file na.fcc.save

                                                                                

     bravais-lattice index     =            2
     lattice parameter (alat)  =       8.4913  a.u.
     unit-cell volume          =     153.0595 (a.u.)^3
     number of atoms/cell      =            1
     number of atomic types    =            1
     kinetic-energy cut-off    =      40.0000  Ry
     charge density cut-off    =     320.0000  Ry
     convergence threshold     =      1.0E-12
     beta                      =       0.7000
     number of iterations used =            4
     Exchange-correlation      = SLA  PW   PBE  PBE ( 1  4  3  4 0 0)


     celldm(1)=    8.49129  celldm(2)=    0.00000  celldm(3)=    0.00000
     celldm(4)=    0.00000  celldm(5)=    0.00000  celldm(6)=    0.00000

     crystal axes: (cart. coord. in units of alat)
               a(1) = ( -0.5000  0.0000  0.5000 )  
               a(2) = (  0.0000  0.5000  0.5000 )  
               a(3) = ( -0.5000  0.5000  0.0000 )  

     reciprocal axes: (cart. coord. in units 2 pi/alat)
               b(1) = ( -1.0000 -1.0000  1.0000 )  
               b(2) = (  1.0000  1.0000  1.0000 )  
               b(3) = ( -1.0000  1.0000 -1.0000 )  


     Atoms inside the unit cell: 

     Cartesian axes

     site n.  atom      mass           positions (alat units)
        1     Na  22.9900   tau(    1) = (    0.00000    0.00000    0.00000  )

     Computing dynamical matrix for 
                    q = (   0.0000000   0.2500000   0.0000000 )

      8 Sym.Ops. (no q -> -q+G )


     G cutoff =  584.4363  (   3710 G-vectors)     FFT grid: ( 36, 36, 36)
     G cutoff =  292.2181  (   1302 G-vectors)  smooth grid: ( 25, 25, 25)

     number of k points=  2940  Marzari-Vanderbilt smearing, width (Ry)=  0.0200

     PseudoPot. # 1 for Na read from file:
     /home/s1333534/quantum_espresso/qe-6.1/pseudo/Na_pbe_v1.uspp.F.UPF
     MD5 check sum: 76a99c7e9422403d3e93cbc85ab7bccb
     Pseudo is Ultrasoft, Zval =  9.0
     Generated by new atomic code, or converted to UPF format
     Using radial grid of  819 points,  5 beta functions with: 
                l(1) =   0
                l(2) =   0
                l(3) =   1
                l(4) =   1
                l(5) =   2
     Q(r) pseudized with  8 coefficients,  rinner =    1.250   1.250   1.250
                                                       1.250   1.250

     Mode symmetry, C_4v (4mm)  point group:


     Atomic displacements:
     There are   2 irreducible representations

     Representation     1      1 modes -A_1  G_1 D_1  To be done

     Representation     2      2 modes -E    G_5 D_5  To be done



     Alpha used in Ewald sum =   2.8000
     PHONON       : 18m 8.68s CPU    19m58.73s WALL



     Representation #  1 mode #   1

     Self-consistent Calculation

      iter #   1 total cpu time :  1207.4 secs   av.it.:   5.6
      thresh= 1.000E-02 alpha_mix =  0.700 |ddv_scf|^2 =  2.105E-01

      iter #   2 total cpu time :  1216.4 secs   av.it.:   7.1
      thresh= 1.000E-02 alpha_mix =  0.700 |ddv_scf|^2 =  5.678E+01

      iter #   3 total cpu time :  1225.3 secs   av.it.:   7.0
      thresh= 1.000E-02 alpha_mix =  0.700 |ddv_scf|^2 =  4.671E-05

      iter #   4 total cpu time :  1233.8 secs   av.it.:   6.3
      thresh= 6.834E-04 alpha_mix =  0.700 |ddv_scf|^2 =  5.131E-07

      iter #   5 total cpu time :  1242.7 secs   av.it.:   7.0
      thresh= 7.163E-05 alpha_mix =  0.700 |ddv_scf|^2 =  9.287E-09

      iter #   6 total cpu time :  1251.4 secs   av.it.:   7.0
      thresh= 9.637E-06 alpha_mix =  0.700 |ddv_scf|^2 =  1.865E-07

      iter #   7 total cpu time :  1257.5 secs   av.it.:   4.2
      thresh= 4.319E-05 alpha_mix =  0.700 |ddv_scf|^2 =  3.645E-10

      iter #   8 total cpu time :  1266.6 secs   av.it.:   7.4
      thresh= 1.909E-06 alpha_mix =  0.700 |ddv_scf|^2 =  2.399E-11

      iter #   9 total cpu time :  1275.5 secs   av.it.:   7.1
      thresh= 4.898E-07 alpha_mix =  0.700 |ddv_scf|^2 =  1.386E-13

     End of self-consistent calculation

     Convergence has been achieved 


     Representation #  2 modes #   2  3

     Self-consistent Calculation

      iter #   1 total cpu time :  1292.7 secs   av.it.:   5.5
      thresh= 1.000E-02 alpha_mix =  0.700 |ddv_scf|^2 =  6.421E-06

      iter #   2 total cpu time :  1312.7 secs   av.it.:   8.3
      thresh= 2.534E-04 alpha_mix =  0.700 |ddv_scf|^2 =  1.182E-07

      iter #   3 total cpu time :  1332.7 secs   av.it.:   8.4
      thresh= 3.438E-05 alpha_mix =  0.700 |ddv_scf|^2 =  1.727E-09

      iter #   4 total cpu time :  1351.8 secs   av.it.:   7.9
      thresh= 4.155E-06 alpha_mix =  0.700 |ddv_scf|^2 =  5.143E-12

      iter #   5 total cpu time :  1371.6 secs   av.it.:   8.2
      thresh= 2.268E-07 alpha_mix =  0.700 |ddv_scf|^2 =  1.689E-14

     End of self-consistent calculation

     Convergence has been achieved 

     Number of q in the star =    6
     List of q in the star:
          1   0.000000000   0.250000000   0.000000000
          2   0.000000000  -0.250000000   0.000000000
          3   0.250000000   0.000000000   0.000000000
          4   0.000000000   0.000000000   0.250000000
          5   0.000000000   0.000000000  -0.250000000
          6  -0.250000000   0.000000000   0.000000000

     Diagonalizing the dynamical matrix

     q = (    0.000000000   0.250000000   0.000000000 ) 

 **************************************************************************
     freq (    1) =       1.587892 [THz] =      52.966367 [cm-1]
     freq (    2) =       1.587892 [THz] =      52.966367 [cm-1]
     freq (    3) =       2.813321 [THz] =      93.842296 [cm-1]
 **************************************************************************

     Mode symmetry, C_4v (4mm)  point group:

     freq (  1 -  2) =         53.0  [cm-1]   --> E    G_5 D_5       
     freq (  3 -  3) =         93.8  [cm-1]   --> A_1  G_1 D_1       

     Calculation of q =   -0.1250000   0.3750000  -0.1250000

   Info: using nr1, nr2, nr3 values from input

   Info: using nr1, nr2, nr3 values from input

     Parallelization info
     --------------------
     sticks:   dense  smooth     PW     G-vecs:    dense   smooth      PW
     Min         201      99     37                 3710     1302     309
     Max         202     100     38                 3711     1303     312
     Sum         805     397    151                14841     5209    1243



     bravais-lattice index     =            2
     lattice parameter (alat)  =       8.4913  a.u.
     unit-cell volume          =     153.0595 (a.u.)^3
     number of atoms/cell      =            1
     number of atomic types    =            1
     number of electrons       =         9.00
     number of Kohn-Sham states=            9
     kinetic-energy cutoff     =      40.0000  Ry
     charge density cutoff     =     320.0000  Ry
     Exchange-correlation      = SLA  PW   PBE  PBE ( 1  4  3  4 0 0)

     celldm(1)=   8.491286  celldm(2)=   0.000000  celldm(3)=   0.000000
     celldm(4)=   0.000000  celldm(5)=   0.000000  celldm(6)=   0.000000

     crystal axes: (cart. coord. in units of alat)
               a(1) = (  -0.500000   0.000000   0.500000 )  
               a(2) = (   0.000000   0.500000   0.500000 )  
               a(3) = (  -0.500000   0.500000   0.000000 )  

     reciprocal axes: (cart. coord. in units 2 pi/alat)
               b(1) = ( -1.000000 -1.000000  1.000000 )  
               b(2) = (  1.000000  1.000000  1.000000 )  
               b(3) = ( -1.000000  1.000000 -1.000000 )  


     PseudoPot. # 1 for Na read from file:
     /home/s1333534/quantum_espresso/qe-6.1/pseudo/Na_pbe_v1.uspp.F.UPF
     MD5 check sum: 76a99c7e9422403d3e93cbc85ab7bccb
     Pseudo is Ultrasoft, Zval =  9.0
     Generated by new atomic code, or converted to UPF format
     Using radial grid of  819 points,  5 beta functions with: 
                l(1) =   0
                l(2) =   0
                l(3) =   1
                l(4) =   1
                l(5) =   2
     Q(r) pseudized with  8 coefficients,  rinner =    1.250   1.250   1.250
                                                       1.250   1.250

     atomic species   valence    mass     pseudopotential
        Na             9.00    22.99000     Na( 1.00)

     48 Sym. Ops., with inversion, found



   Cartesian axes

     site n.     atom                  positions (alat units)
         1           Na  tau(   1) = (   0.0000000   0.0000000   0.0000000  )

     number of k points= 11368  Marzari-Vanderbilt smearing, width (Ry)=  0.0200

     Number of k-points >= 100: set verbosity='high' to print them.

     Dense  grid:    14841 G-vectors     FFT dimensions: (  36,  36,  36)

     Smooth grid:     5209 G-vectors     FFT dimensions: (  25,  25,  25)

     Estimated max dynamical RAM per process >       1.49MB

     Estimated total allocated dynamical RAM >       5.97MB

     The potential is recalculated from file :
     ./_ph0/na.fcc.save/charge-density.dat

     Starting wfc are    5 atomic +    4 random wfc

     Band Structure Calculation
     Davidson diagonalization with overlap

     ethr =  1.11E-10,  avg # of iterations = 16.5

     total cpu time spent up to now is      503.8 secs

     End of band structure calculation

     Number of k-points >= 100: set verbosity='high' to print the bands.

     the Fermi energy is     4.2990 ev

     Writing output data file na.fcc.save

                                                                                

     bravais-lattice index     =            2
     lattice parameter (alat)  =       8.4913  a.u.
     unit-cell volume          =     153.0595 (a.u.)^3
     number of atoms/cell      =            1
     number of atomic types    =            1
     kinetic-energy cut-off    =      40.0000  Ry
     charge density cut-off    =     320.0000  Ry
     convergence threshold     =      1.0E-12
     beta                      =       0.7000
     number of iterations used =            4
     Exchange-correlation      = SLA  PW   PBE  PBE ( 1  4  3  4 0 0)


     celldm(1)=    8.49129  celldm(2)=    0.00000  celldm(3)=    0.00000
     celldm(4)=    0.00000  celldm(5)=    0.00000  celldm(6)=    0.00000

     crystal axes: (cart. coord. in units of alat)
               a(1) = ( -0.5000  0.0000  0.5000 )  
               a(2) = (  0.0000  0.5000  0.5000 )  
               a(3) = ( -0.5000  0.5000  0.0000 )  

     reciprocal axes: (cart. coord. in units 2 pi/alat)
               b(1) = ( -1.0000 -1.0000  1.0000 )  
               b(2) = (  1.0000  1.0000  1.0000 )  
               b(3) = ( -1.0000  1.0000 -1.0000 )  


     Atoms inside the unit cell: 

     Cartesian axes

     site n.  atom      mass           positions (alat units)
        1     Na  22.9900   tau(    1) = (    0.00000    0.00000    0.00000  )

     Computing dynamical matrix for 
                    q = (  -0.1250000   0.3750000  -0.1250000 )

      2 Sym.Ops. (no q -> -q+G )


     G cutoff =  584.4363  (   3710 G-vectors)     FFT grid: ( 36, 36, 36)
     G cutoff =  292.2181  (   1302 G-vectors)  smooth grid: ( 25, 25, 25)

     number of k points= 11368  Marzari-Vanderbilt smearing, width (Ry)=  0.0200

     PseudoPot. # 1 for Na read from file:
     /home/s1333534/quantum_espresso/qe-6.1/pseudo/Na_pbe_v1.uspp.F.UPF
     MD5 check sum: 76a99c7e9422403d3e93cbc85ab7bccb
     Pseudo is Ultrasoft, Zval =  9.0
     Generated by new atomic code, or converted to UPF format
     Using radial grid of  819 points,  5 beta functions with: 
                l(1) =   0
                l(2) =   0
                l(3) =   1
                l(4) =   1
                l(5) =   2
     Q(r) pseudized with  8 coefficients,  rinner =    1.250   1.250   1.250
                                                       1.250   1.250

     Mode symmetry, C_s (m)     point group:


     Atomic displacements:
     There are   3 irreducible representations

     Representation     1      1 modes -A'  To be done

     Representation     2      1 modes -A'  To be done

     Representation     3      1 modes -A''  To be done



     Alpha used in Ewald sum =   2.8000
     PHONON       : 24m 9.55s CPU    26m31.44s WALL



     Representation #  1 mode #   1

     Self-consistent Calculation

      iter #   1 total cpu time :  1626.2 secs   av.it.:   5.8
      thresh= 1.000E-02 alpha_mix =  0.700 |ddv_scf|^2 =  8.450E-03

      iter #   2 total cpu time :  1658.3 secs   av.it.:   6.3
      thresh= 9.192E-03 alpha_mix =  0.700 |ddv_scf|^2 =  2.331E-01

      iter #   3 total cpu time :  1689.5 secs   av.it.:   6.2
      thresh= 1.000E-02 alpha_mix =  0.700 |ddv_scf|^2 =  5.221E-06

      iter #   4 total cpu time :  1725.0 secs   av.it.:   7.4
      thresh= 2.285E-04 alpha_mix =  0.700 |ddv_scf|^2 =  4.952E-08

      iter #   5 total cpu time :  1762.1 secs   av.it.:   7.7
      thresh= 2.225E-05 alpha_mix =  0.700 |ddv_scf|^2 =  3.241E-09

      iter #   6 total cpu time :  1799.0 secs   av.it.:   7.6
      thresh= 5.693E-06 alpha_mix =  0.700 |ddv_scf|^2 =  2.251E-10

      iter #   7 total cpu time :  1834.5 secs   av.it.:   7.4
      thresh= 1.500E-06 alpha_mix =  0.700 |ddv_scf|^2 =  3.008E-09

      iter #   8 total cpu time :  1862.5 secs   av.it.:   5.4
      thresh= 5.485E-06 alpha_mix =  0.700 |ddv_scf|^2 =  1.119E-12

      iter #   9 total cpu time :  1898.4 secs   av.it.:   7.5
      thresh= 1.058E-07 alpha_mix =  0.700 |ddv_scf|^2 =  5.111E-14

     End of self-consistent calculation

     Convergence has been achieved 


     Representation #  2 mode #   2

     Self-consistent Calculation

      iter #   1 total cpu time :  1934.2 secs   av.it.:   5.7
      thresh= 1.000E-02 alpha_mix =  0.700 |ddv_scf|^2 =  1.304E-03

      iter #   2 total cpu time :  1968.3 secs   av.it.:   6.8
      thresh= 3.611E-03 alpha_mix =  0.700 |ddv_scf|^2 =  3.534E-02

      iter #   3 total cpu time :  1995.8 secs   av.it.:   5.2
      thresh= 1.000E-02 alpha_mix =  0.700 |ddv_scf|^2 =  6.060E-07

      iter #   4 total cpu time :  2033.1 secs   av.it.:   7.8
      thresh= 7.785E-05 alpha_mix =  0.700 |ddv_scf|^2 =  1.098E-08

      iter #   5 total cpu time :  2070.2 secs   av.it.:   7.8
      thresh= 1.048E-05 alpha_mix =  0.700 |ddv_scf|^2 =  9.177E-10

      iter #   6 total cpu time :  2107.6 secs   av.it.:   7.7
      thresh= 3.029E-06 alpha_mix =  0.700 |ddv_scf|^2 =  3.617E-10

      iter #   7 total cpu time :  2140.7 secs   av.it.:   6.8
      thresh= 1.902E-06 alpha_mix =  0.700 |ddv_scf|^2 =  1.259E-09

      iter #   8 total cpu time :  2172.7 secs   av.it.:   6.1
      thresh= 3.548E-06 alpha_mix =  0.700 |ddv_scf|^2 =  3.034E-11

      iter #   9 total cpu time :  2205.9 secs   av.it.:   6.8
      thresh= 5.509E-07 alpha_mix =  0.700 |ddv_scf|^2 =  1.232E-11

      iter #  10 total cpu time :  2240.0 secs   av.it.:   7.0
      thresh= 3.509E-07 alpha_mix =  0.700 |ddv_scf|^2 =  5.863E-14

     End of self-consistent calculation

     Convergence has been achieved 


     Representation #  3 mode #   3

     Self-consistent Calculation

      iter #   1 total cpu time :  2274.6 secs   av.it.:   5.5
      thresh= 1.000E-02 alpha_mix =  0.700 |ddv_scf|^2 =  2.687E-05

      iter #   2 total cpu time :  2310.5 secs   av.it.:   7.4
      thresh= 5.184E-04 alpha_mix =  0.700 |ddv_scf|^2 =  4.561E-07

      iter #   3 total cpu time :  2347.7 secs   av.it.:   7.7
      thresh= 6.754E-05 alpha_mix =  0.700 |ddv_scf|^2 =  9.687E-09

      iter #   4 total cpu time :  2383.1 secs   av.it.:   7.4
      thresh= 9.842E-06 alpha_mix =  0.700 |ddv_scf|^2 =  2.966E-11

      iter #   5 total cpu time :  2419.4 secs   av.it.:   7.6
      thresh= 5.446E-07 alpha_mix =  0.700 |ddv_scf|^2 =  6.003E-14

     End of self-consistent calculation

     Convergence has been achieved 

     Number of q in the star =   24
     List of q in the star:
          1  -0.125000000   0.375000000  -0.125000000
          2  -0.125000000   0.375000000   0.125000000
          3   0.125000000   0.375000000  -0.125000000
          4   0.125000000   0.375000000   0.125000000
          5   0.125000000  -0.375000000   0.125000000
          6   0.375000000  -0.125000000   0.125000000
          7   0.125000000  -0.125000000   0.375000000
          8  -0.125000000  -0.375000000  -0.125000000
          9   0.125000000  -0.375000000  -0.125000000
         10  -0.125000000  -0.375000000   0.125000000
         11   0.125000000  -0.125000000  -0.375000000
         12   0.375000000  -0.125000000  -0.125000000
         13  -0.375000000  -0.125000000   0.125000000
         14   0.375000000   0.125000000   0.125000000
         15  -0.125000000  -0.125000000   0.375000000
         16   0.125000000   0.125000000   0.375000000
         17  -0.375000000   0.125000000  -0.125000000
         18  -0.125000000   0.125000000  -0.375000000
         19  -0.375000000  -0.125000000  -0.125000000
         20   0.125000000   0.125000000  -0.375000000
         21   0.375000000   0.125000000  -0.125000000
         22  -0.125000000  -0.125000000  -0.375000000
         23  -0.375000000   0.125000000   0.125000000
         24  -0.125000000   0.125000000   0.375000000

     Diagonalizing the dynamical matrix

     q = (   -0.125000000   0.375000000  -0.125000000 ) 

 **************************************************************************
     freq (    1) =       2.190964 [THz] =      73.082695 [cm-1]
     freq (    2) =       2.204373 [THz] =      73.529983 [cm-1]
     freq (    3) =       4.606179 [THz] =     153.645606 [cm-1]
 **************************************************************************

     Mode symmetry, C_s (m)     point group:

     freq (  1 -  1) =         73.1  [cm-1]   --> A'                 
     freq (  2 -  2) =         73.5  [cm-1]   --> A''                
     freq (  3 -  3) =        153.6  [cm-1]   --> A'                 

     Calculation of q =   -0.2500000   0.5000000  -0.2500000

   Info: using nr1, nr2, nr3 values from input

   Info: using nr1, nr2, nr3 values from input

     Parallelization info
     --------------------
     sticks:   dense  smooth     PW     G-vecs:    dense   smooth      PW
     Min         201      99     37                 3710     1302     309
     Max         202     100     38                 3711     1303     312
     Sum         805     397    151                14841     5209    1243



     bravais-lattice index     =            2
     lattice parameter (alat)  =       8.4913  a.u.
     unit-cell volume          =     153.0595 (a.u.)^3
     number of atoms/cell      =            1
     number of atomic types    =            1
     number of electrons       =         9.00
     number of Kohn-Sham states=            9
     kinetic-energy cutoff     =      40.0000  Ry
     charge density cutoff     =     320.0000  Ry
     Exchange-correlation      = SLA  PW   PBE  PBE ( 1  4  3  4 0 0)

     celldm(1)=   8.491286  celldm(2)=   0.000000  celldm(3)=   0.000000
     celldm(4)=   0.000000  celldm(5)=   0.000000  celldm(6)=   0.000000

     crystal axes: (cart. coord. in units of alat)
               a(1) = (  -0.500000   0.000000   0.500000 )  
               a(2) = (   0.000000   0.500000   0.500000 )  
               a(3) = (  -0.500000   0.500000   0.000000 )  

     reciprocal axes: (cart. coord. in units 2 pi/alat)
               b(1) = ( -1.000000 -1.000000  1.000000 )  
               b(2) = (  1.000000  1.000000  1.000000 )  
               b(3) = ( -1.000000  1.000000 -1.000000 )  


     PseudoPot. # 1 for Na read from file:
     /home/s1333534/quantum_espresso/qe-6.1/pseudo/Na_pbe_v1.uspp.F.UPF
     MD5 check sum: 76a99c7e9422403d3e93cbc85ab7bccb
     Pseudo is Ultrasoft, Zval =  9.0
     Generated by new atomic code, or converted to UPF format
     Using radial grid of  819 points,  5 beta functions with: 
                l(1) =   0
                l(2) =   0
                l(3) =   1
                l(4) =   1
                l(5) =   2
     Q(r) pseudized with  8 coefficients,  rinner =    1.250   1.250   1.250
                                                       1.250   1.250

     atomic species   valence    mass     pseudopotential
        Na             9.00    22.99000     Na( 1.00)

     48 Sym. Ops., with inversion, found



   Cartesian axes

     site n.     atom                  positions (alat units)
         1           Na  tau(   1) = (   0.0000000   0.0000000   0.0000000  )

     number of k points= 11368  Marzari-Vanderbilt smearing, width (Ry)=  0.0200

     Number of k-points >= 100: set verbosity='high' to print them.

     Dense  grid:    14841 G-vectors     FFT dimensions: (  36,  36,  36)

     Smooth grid:     5209 G-vectors     FFT dimensions: (  25,  25,  25)

     Estimated max dynamical RAM per process >       1.49MB

     Estimated total allocated dynamical RAM >       5.97MB

     The potential is recalculated from file :
     ./_ph0/na.fcc.save/charge-density.dat

     Starting wfc are    5 atomic +    4 random wfc

     Band Structure Calculation
     Davidson diagonalization with overlap

     ethr =  1.11E-10,  avg # of iterations = 16.6

     total cpu time spent up to now is      707.4 secs

     End of band structure calculation

     Number of k-points >= 100: set verbosity='high' to print the bands.

     the Fermi energy is     4.2990 ev

     Writing output data file na.fcc.save

                                                                                

     bravais-lattice index     =            2
     lattice parameter (alat)  =       8.4913  a.u.
     unit-cell volume          =     153.0595 (a.u.)^3
     number of atoms/cell      =            1
     number of atomic types    =            1
     kinetic-energy cut-off    =      40.0000  Ry
     charge density cut-off    =     320.0000  Ry
     convergence threshold     =      1.0E-12
     beta                      =       0.7000
     number of iterations used =            4
     Exchange-correlation      = SLA  PW   PBE  PBE ( 1  4  3  4 0 0)


     celldm(1)=    8.49129  celldm(2)=    0.00000  celldm(3)=    0.00000
     celldm(4)=    0.00000  celldm(5)=    0.00000  celldm(6)=    0.00000

     crystal axes: (cart. coord. in units of alat)
               a(1) = ( -0.5000  0.0000  0.5000 )  
               a(2) = (  0.0000  0.5000  0.5000 )  
               a(3) = ( -0.5000  0.5000  0.0000 )  

     reciprocal axes: (cart. coord. in units 2 pi/alat)
               b(1) = ( -1.0000 -1.0000  1.0000 )  
               b(2) = (  1.0000  1.0000  1.0000 )  
               b(3) = ( -1.0000  1.0000 -1.0000 )  


     Atoms inside the unit cell: 

     Cartesian axes

     site n.  atom      mass           positions (alat units)
        1     Na  22.9900   tau(    1) = (    0.00000    0.00000    0.00000  )

     Computing dynamical matrix for 
                    q = (  -0.2500000   0.5000000  -0.2500000 )

      2 Sym.Ops. (no q -> -q+G )


     G cutoff =  584.4363  (   3710 G-vectors)     FFT grid: ( 36, 36, 36)
     G cutoff =  292.2181  (   1302 G-vectors)  smooth grid: ( 25, 25, 25)

     number of k points= 11368  Marzari-Vanderbilt smearing, width (Ry)=  0.0200

     PseudoPot. # 1 for Na read from file:
     /home/s1333534/quantum_espresso/qe-6.1/pseudo/Na_pbe_v1.uspp.F.UPF
     MD5 check sum: 76a99c7e9422403d3e93cbc85ab7bccb
     Pseudo is Ultrasoft, Zval =  9.0
     Generated by new atomic code, or converted to UPF format
     Using radial grid of  819 points,  5 beta functions with: 
                l(1) =   0
                l(2) =   0
                l(3) =   1
                l(4) =   1
                l(5) =   2
     Q(r) pseudized with  8 coefficients,  rinner =    1.250   1.250   1.250
                                                       1.250   1.250

     Mode symmetry, C_s (m)     point group:


     Atomic displacements:
     There are   3 irreducible representations

     Representation     1      1 modes -A'  To be done

     Representation     2      1 modes -A'  To be done

     Representation     3      1 modes -A''  To be done



     Alpha used in Ewald sum =   2.8000
     PHONON       : 39m55.30s CPU    44m 0.02s WALL



     Representation #  1 mode #   1

     Self-consistent Calculation

      iter #   1 total cpu time :  2674.6 secs   av.it.:   5.9
      thresh= 1.000E-02 alpha_mix =  0.700 |ddv_scf|^2 =  8.243E-04

      iter #   2 total cpu time :  2709.4 secs   av.it.:   6.8
      thresh= 2.871E-03 alpha_mix =  0.700 |ddv_scf|^2 =  3.339E-03

      iter #   3 total cpu time :  2740.0 secs   av.it.:   5.9
      thresh= 5.778E-03 alpha_mix =  0.700 |ddv_scf|^2 =  7.792E-07

      iter #   4 total cpu time :  2777.2 secs   av.it.:   7.8
      thresh= 8.827E-05 alpha_mix =  0.700 |ddv_scf|^2 =  9.901E-09

      iter #   5 total cpu time :  2816.1 secs   av.it.:   8.2
      thresh= 9.950E-06 alpha_mix =  0.700 |ddv_scf|^2 =  1.384E-09

      iter #   6 total cpu time :  2853.0 secs   av.it.:   7.8
      thresh= 3.720E-06 alpha_mix =  0.700 |ddv_scf|^2 =  4.956E-11

      iter #   7 total cpu time :  2889.9 secs   av.it.:   7.8
      thresh= 7.040E-07 alpha_mix =  0.700 |ddv_scf|^2 =  1.188E-11

      iter #   8 total cpu time :  2924.1 secs   av.it.:   7.0
      thresh= 3.447E-07 alpha_mix =  0.700 |ddv_scf|^2 =  1.447E-11

      iter #   9 total cpu time :  2956.4 secs   av.it.:   6.5
      thresh= 3.804E-07 alpha_mix =  0.700 |ddv_scf|^2 =  4.414E-13

     End of self-consistent calculation

     Convergence has been achieved 


     Representation #  2 mode #   2

     Self-consistent Calculation

      iter #   1 total cpu time :  2993.3 secs   av.it.:   5.8
      thresh= 1.000E-02 alpha_mix =  0.700 |ddv_scf|^2 =  2.387E-04

      iter #   2 total cpu time :  3029.3 secs   av.it.:   7.3
      thresh= 1.545E-03 alpha_mix =  0.700 |ddv_scf|^2 =  8.611E-04

      iter #   3 total cpu time :  3060.1 secs   av.it.:   6.0
      thresh= 2.934E-03 alpha_mix =  0.700 |ddv_scf|^2 =  5.364E-07

      iter #   4 total cpu time :  3097.2 secs   av.it.:   7.8
      thresh= 7.324E-05 alpha_mix =  0.700 |ddv_scf|^2 =  1.404E-08

      iter #   5 total cpu time :  3135.5 secs   av.it.:   8.0
      thresh= 1.185E-05 alpha_mix =  0.700 |ddv_scf|^2 =  7.336E-10

      iter #   6 total cpu time :  3173.4 secs   av.it.:   8.0
      thresh= 2.708E-06 alpha_mix =  0.700 |ddv_scf|^2 =  6.298E-11

      iter #   7 total cpu time :  3210.3 secs   av.it.:   7.7
      thresh= 7.936E-07 alpha_mix =  0.700 |ddv_scf|^2 =  2.875E-13

     End of self-consistent calculation

     Convergence has been achieved 


     Representation #  3 mode #   3

     Self-consistent Calculation

      iter #   1 total cpu time :  3244.5 secs   av.it.:   5.5
      thresh= 1.000E-02 alpha_mix =  0.700 |ddv_scf|^2 =  2.761E-05

      iter #   2 total cpu time :  3280.8 secs   av.it.:   7.5
      thresh= 5.254E-04 alpha_mix =  0.700 |ddv_scf|^2 =  4.492E-07

      iter #   3 total cpu time :  3317.6 secs   av.it.:   7.7
      thresh= 6.703E-05 alpha_mix =  0.700 |ddv_scf|^2 =  1.123E-08

      iter #   4 total cpu time :  3352.9 secs   av.it.:   7.4
      thresh= 1.060E-05 alpha_mix =  0.700 |ddv_scf|^2 =  3.595E-11

      iter #   5 total cpu time :  3389.5 secs   av.it.:   7.6
      thresh= 5.996E-07 alpha_mix =  0.700 |ddv_scf|^2 =  5.876E-14

     End of self-consistent calculation

     Convergence has been achieved 

     Number of q in the star =   24
     List of q in the star:
          1  -0.250000000   0.500000000  -0.250000000
          2  -0.250000000   0.500000000   0.250000000
          3   0.250000000   0.500000000  -0.250000000
          4   0.250000000   0.500000000   0.250000000
          5   0.250000000  -0.500000000   0.250000000
          6   0.500000000  -0.250000000   0.250000000
          7   0.250000000  -0.250000000   0.500000000
          8  -0.250000000  -0.500000000  -0.250000000
          9   0.250000000  -0.500000000  -0.250000000
         10  -0.250000000  -0.500000000   0.250000000
         11   0.250000000  -0.250000000  -0.500000000
         12   0.500000000  -0.250000000  -0.250000000
         13  -0.500000000  -0.250000000   0.250000000
         14   0.500000000   0.250000000   0.250000000
         15  -0.250000000  -0.250000000   0.500000000
         16   0.250000000   0.250000000   0.500000000
         17  -0.500000000   0.250000000  -0.250000000
         18  -0.250000000   0.250000000  -0.500000000
         19  -0.500000000  -0.250000000  -0.250000000
         20   0.250000000   0.250000000  -0.500000000
         21   0.500000000   0.250000000  -0.250000000
         22  -0.250000000  -0.250000000  -0.500000000
         23  -0.500000000   0.250000000   0.250000000
         24  -0.250000000   0.250000000   0.500000000

     Diagonalizing the dynamical matrix

     q = (   -0.250000000   0.500000000  -0.250000000 ) 

 **************************************************************************
     freq (    1) =       2.562124 [THz] =      85.463242 [cm-1]
     freq (    2) =       2.776149 [THz] =      92.602353 [cm-1]
     freq (    3) =       6.398908 [THz] =     213.444588 [cm-1]
 **************************************************************************

     Mode symmetry, C_s (m)     point group:

     freq (  1 -  1) =         85.5  [cm-1]   --> A''                
     freq (  2 -  2) =         92.6  [cm-1]   --> A'                 
     freq (  3 -  3) =        213.4  [cm-1]   --> A'                 

     Calculation of q =    0.6250000  -0.3750000   0.6250000

   Info: using nr1, nr2, nr3 values from input

   Info: using nr1, nr2, nr3 values from input

     Parallelization info
     --------------------
     sticks:   dense  smooth     PW     G-vecs:    dense   smooth      PW
     Min         200      99     40                 3710     1302     351
     Max         202     100     41                 3711     1303     354
     Sum         805     397    163                14841     5209    1411



     bravais-lattice index     =            2
     lattice parameter (alat)  =       8.4913  a.u.
     unit-cell volume          =     153.0595 (a.u.)^3
     number of atoms/cell      =            1
     number of atomic types    =            1
     number of electrons       =         9.00
     number of Kohn-Sham states=            9
     kinetic-energy cutoff     =      40.0000  Ry
     charge density cutoff     =     320.0000  Ry
     Exchange-correlation      = SLA  PW   PBE  PBE ( 1  4  3  4 0 0)

     celldm(1)=   8.491286  celldm(2)=   0.000000  celldm(3)=   0.000000
     celldm(4)=   0.000000  celldm(5)=   0.000000  celldm(6)=   0.000000

     crystal axes: (cart. coord. in units of alat)
               a(1) = (  -0.500000   0.000000   0.500000 )  
[...]

     PseudoPot. # 1 for Na read from file:
     /home/s1333534/quantum_espresso/qe-6.1/pseudo/Na_pbe_v1.uspp.F.UPF
     MD5 check sum: 76a99c7e9422403d3e93cbc85ab7bccb
     Pseudo is Ultrasoft, Zval =  9.0
     Generated by new atomic code, or converted to UPF format
     Using radial grid of  819 points,  5 beta functions with: 
                l(1) =   0
                l(2) =   0
                l(3) =   1
                l(4) =   1
                l(5) =   2
     Q(r) pseudized with  8 coefficients,  rinner =    1.250   1.250   1.250
                                                       1.250   1.250

     Mode symmetry, C_2v (mm2)  point group:


     Atomic displacements:
     There are   3 irreducible representations

     Representation     1      1 modes -A_1  D_1  S_1  To be done

     Representation     2      1 modes -B_1  D_3  S_3  To be done

     Representation     3      1 modes -B_2  D_4  S_4  To be done



     Alpha used in Ewald sum =   2.8000
     PHONON       :     4h57m CPU        5h28m WALL



     Representation #  1 mode #   1

     Self-consistent Calculation

      iter #   1 total cpu time : 19743.0 secs   av.it.:   5.7
      thresh= 1.000E-02 alpha_mix =  0.700 |ddv_scf|^2 =  4.084E-05

      iter #   2 total cpu time : 19760.7 secs   av.it.:   7.5
      thresh= 6.391E-04 alpha_mix =  0.700 |ddv_scf|^2 =  1.168E-06

      iter #   3 total cpu time : 19778.8 secs   av.it.:   7.6
      thresh= 1.081E-04 alpha_mix =  0.700 |ddv_scf|^2 =  4.713E-08

      iter #   4 total cpu time : 19796.8 secs   av.it.:   7.7
      thresh= 2.171E-05 alpha_mix =  0.700 |ddv_scf|^2 =  2.416E-09

      iter #   5 total cpu time : 19814.8 secs   av.it.:   7.8
      thresh= 4.915E-06 alpha_mix =  0.700 |ddv_scf|^2 =  1.292E-10

      iter #   6 total cpu time : 19833.2 secs   av.it.:   7.9
      thresh= 1.137E-06 alpha_mix =  0.700 |ddv_scf|^2 =  8.086E-12

      iter #   7 total cpu time : 19851.1 secs   av.it.:   7.7
      thresh= 2.844E-07 alpha_mix =  0.700 |ddv_scf|^2 =  2.882E-13

     End of self-consistent calculation

     Convergence has been achieved 


     Representation #  2 mode #   2

     Self-consistent Calculation

      iter #   1 total cpu time : 19867.7 secs   av.it.:   5.6
      thresh= 1.000E-02 alpha_mix =  0.700 |ddv_scf|^2 =  4.198E-05

      iter #   2 total cpu time : 19885.3 secs   av.it.:   7.5
      thresh= 6.479E-04 alpha_mix =  0.700 |ddv_scf|^2 =  4.849E-07

      iter #   3 total cpu time : 19903.1 secs   av.it.:   7.7
      thresh= 6.964E-05 alpha_mix =  0.700 |ddv_scf|^2 =  3.161E-08

      iter #   4 total cpu time : 19921.0 secs   av.it.:   7.7
      thresh= 1.778E-05 alpha_mix =  0.700 |ddv_scf|^2 =  3.516E-10

      iter #   5 total cpu time : 19937.9 secs   av.it.:   7.2
      thresh= 1.875E-06 alpha_mix =  0.700 |ddv_scf|^2 =  3.351E-13

     End of self-consistent calculation

     Convergence has been achieved 


     Representation #  3 mode #   3

     Self-consistent Calculation

      iter #   1 total cpu time : 19954.7 secs   av.it.:   5.7
      thresh= 1.000E-02 alpha_mix =  0.700 |ddv_scf|^2 =  1.108E-04

      iter #   2 total cpu time : 19972.0 secs   av.it.:   7.2
      thresh= 1.052E-03 alpha_mix =  0.700 |ddv_scf|^2 =  1.202E-05

      iter #   3 total cpu time : 19989.1 secs   av.it.:   7.2
      thresh= 3.467E-04 alpha_mix =  0.700 |ddv_scf|^2 =  8.860E-08

      iter #   4 total cpu time : 20007.1 secs   av.it.:   7.8
      thresh= 2.977E-05 alpha_mix =  0.700 |ddv_scf|^2 =  3.152E-10

      iter #   5 total cpu time : 20024.1 secs   av.it.:   6.9
      thresh= 1.775E-06 alpha_mix =  0.700 |ddv_scf|^2 =  5.680E-13

     End of self-consistent calculation

     Convergence has been achieved 

     Number of q in the star =   12
     List of q in the star:
          1  -0.250000000  -1.000000000   0.000000000
          2   0.000000000  -1.000000000   0.250000000
          3   0.000000000  -1.000000000  -0.250000000
          4   0.250000000  -1.000000000   0.000000000
          5  -1.000000000   0.000000000  -0.250000000
          6   1.000000000   0.000000000   0.250000000
          7  -1.000000000  -0.250000000   0.000000000
          8   0.000000000  -0.250000000  -1.000000000
          9   0.000000000   0.250000000  -1.000000000
         10   1.000000000   0.250000000   0.000000000
         11  -0.250000000   0.000000000   1.000000000
         12   0.250000000   0.000000000   1.000000000

     Diagonalizing the dynamical matrix

     q = (   -0.250000000  -1.000000000   0.000000000 ) 

 **************************************************************************
     freq (    1) =       4.383933 [THz] =     146.232278 [cm-1]
     freq (    2) =       5.006251 [THz] =     166.990565 [cm-1]
     freq (    3) =       7.144337 [THz] =     238.309418 [cm-1]
 **************************************************************************

     Mode symmetry, C_2v (mm2)  point group:

     freq (  1 -  1) =        146.2  [cm-1]   --> A_1  D_1  S_1      
     freq (  2 -  2) =        167.0  [cm-1]   --> B_1  D_3  S_3      
     freq (  3 -  3) =        238.3  [cm-1]   --> B_2  D_4  S_4      

     Calculation of q =   -0.5000000  -1.0000000   0.0000000

   Info: using nr1, nr2, nr3 values from input

   Info: using nr1, nr2, nr3 values from input

     Parallelization info
     --------------------
     sticks:   dense  smooth     PW     G-vecs:    dense   smooth      PW
     Min         200      99     40                 3710     1302     351
     Max         202     100     41                 3711     1303     354
     Sum         805     397    163                14841     5209    1411



     bravais-lattice index     =            2
     lattice parameter (alat)  =       8.4913  a.u.
     unit-cell volume          =     153.0595 (a.u.)^3
     number of atoms/cell      =            1
     number of atomic types    =            1
     number of electrons       =         9.00
     number of Kohn-Sham states=            9
     kinetic-energy cutoff     =      40.0000  Ry
     charge density cutoff     =     320.0000  Ry
     Exchange-correlation      = SLA  PW   PBE  PBE ( 1  4  3  4 0 0)

     celldm(1)=   8.491286  celldm(2)=   0.000000  celldm(3)=   0.000000
     celldm(4)=   0.000000  celldm(5)=   0.000000  celldm(6)=   0.000000

     crystal axes: (cart. coord. in units of alat)
               a(1) = (  -0.500000   0.000000   0.500000 )  
               a(2) = (   0.000000   0.500000   0.500000 )  
               a(3) = (  -0.500000   0.500000   0.000000 )  

     reciprocal axes: (cart. coord. in units 2 pi/alat)
               b(1) = ( -1.000000 -1.000000  1.000000 )  
               b(2) = (  1.000000  1.000000  1.000000 )  
               b(3) = ( -1.000000  1.000000 -1.000000 )  


     PseudoPot. # 1 for Na read from file:
     /home/s1333534/quantum_espresso/qe-6.1/pseudo/Na_pbe_v1.uspp.F.UPF
     MD5 check sum: 76a99c7e9422403d3e93cbc85ab7bccb
     Pseudo is Ultrasoft, Zval =  9.0
     Generated by new atomic code, or converted to UPF format
     Using radial grid of  819 points,  5 beta functions with: 
                l(1) =   0
                l(2) =   0
                l(3) =   1
                l(4) =   1
                l(5) =   2
     Q(r) pseudized with  8 coefficients,  rinner =    1.250   1.250   1.250
                                                       1.250   1.250

     atomic species   valence    mass     pseudopotential
        Na             9.00    22.99000     Na( 1.00)

     48 Sym. Ops., with inversion, found



   Cartesian axes

     site n.     atom                  positions (alat units)
         1           Na  tau(   1) = (   0.0000000   0.0000000   0.0000000  )

     number of k points=  2744  Marzari-Vanderbilt smearing, width (Ry)=  0.0200

     Number of k-points >= 100: set verbosity='high' to print them.

     Dense  grid:    14841 G-vectors     FFT dimensions: (  36,  36,  36)

     Smooth grid:     5209 G-vectors     FFT dimensions: (  25,  25,  25)

     Estimated max dynamical RAM per process >       1.49MB

     Estimated total allocated dynamical RAM >       5.97MB

     The potential is recalculated from file :
     ./_ph0/na.fcc.save/charge-density.dat

     Starting wfc are    5 atomic +    4 random wfc

     Band Structure Calculation
     Davidson diagonalization with overlap

     ethr =  1.11E-10,  avg # of iterations = 16.6

     total cpu time spent up to now is     4321.9 secs

     End of band structure calculation

     Number of k-points >= 100: set verbosity='high' to print the bands.

     the Fermi energy is     4.2990 ev

     Writing output data file na.fcc.save

                                                                                

     bravais-lattice index     =            2
     lattice parameter (alat)  =       8.4913  a.u.
     unit-cell volume          =     153.0595 (a.u.)^3
     number of atoms/cell      =            1
     number of atomic types    =            1
     kinetic-energy cut-off    =      40.0000  Ry
     charge density cut-off    =     320.0000  Ry
     convergence threshold     =      1.0E-12
     beta                      =       0.7000
     number of iterations used =            4
     Exchange-correlation      = SLA  PW   PBE  PBE ( 1  4  3  4 0 0)


     celldm(1)=    8.49129  celldm(2)=    0.00000  celldm(3)=    0.00000
     celldm(4)=    0.00000  celldm(5)=    0.00000  celldm(6)=    0.00000

     crystal axes: (cart. coord. in units of alat)
               a(1) = ( -0.5000  0.0000  0.5000 )  
               a(2) = (  0.0000  0.5000  0.5000 )  
               a(3) = ( -0.5000  0.5000  0.0000 )  

     reciprocal axes: (cart. coord. in units 2 pi/alat)
               b(1) = ( -1.0000 -1.0000  1.0000 )  
               b(2) = (  1.0000  1.0000  1.0000 )  
               b(3) = ( -1.0000  1.0000 -1.0000 )  


     Atoms inside the unit cell: 

     Cartesian axes

     site n.  atom      mass           positions (alat units)
        1     Na  22.9900   tau(    1) = (    0.00000    0.00000    0.00000  )

     Computing dynamical matrix for 
                    q = (  -0.5000000  -1.0000000   0.0000000 )

      8 Sym.Ops. (no q -> -q+G )


     G cutoff =  584.4363  (   3711 G-vectors)     FFT grid: ( 36, 36, 36)
     G cutoff =  292.2181  (   1302 G-vectors)  smooth grid: ( 25, 25, 25)

     number of k points=  2744  Marzari-Vanderbilt smearing, width (Ry)=  0.0200

     PseudoPot. # 1 for Na read from file:
     /home/s1333534/quantum_espresso/qe-6.1/pseudo/Na_pbe_v1.uspp.F.UPF
     MD5 check sum: 76a99c7e9422403d3e93cbc85ab7bccb
     Pseudo is Ultrasoft, Zval =  9.0
     Generated by new atomic code, or converted to UPF format
     Using radial grid of  819 points,  5 beta functions with: 
                l(1) =   0
                l(2) =   0
                l(3) =   1
                l(4) =   1
                l(5) =   2
     Q(r) pseudized with  8 coefficients,  rinner =    1.250   1.250   1.250
                                                       1.250   1.250

     Mode symmetry, D_2d (-42m) point group:


     Atomic displacements:
     There are   2 irreducible representations

     Representation     1      1 modes -B_2  X_3  W_2  To be done

     Representation     2      2 modes -E    X_5  W_3  To be done



     Alpha used in Ewald sum =   2.8000
     PHONON       :     5h 2m CPU        5h34m WALL



     Representation #  1 mode #   1

     Self-consistent Calculation

      iter #   1 total cpu time : 20086.3 secs   av.it.:   5.7
      thresh= 1.000E-02 alpha_mix =  0.700 |ddv_scf|^2 =  4.715E-05

      iter #   2 total cpu time : 20095.2 secs   av.it.:   7.5
      thresh= 6.867E-04 alpha_mix =  0.700 |ddv_scf|^2 =  1.554E-06

      iter #   3 total cpu time : 20104.1 secs   av.it.:   7.6
      thresh= 1.246E-04 alpha_mix =  0.700 |ddv_scf|^2 =  3.486E-08

      iter #   4 total cpu time : 20113.2 secs   av.it.:   7.9
      thresh= 1.867E-05 alpha_mix =  0.700 |ddv_scf|^2 =  5.833E-10

      iter #   5 total cpu time : 20121.8 secs   av.it.:   7.3
      thresh= 2.415E-06 alpha_mix =  0.700 |ddv_scf|^2 =  7.202E-13

     End of self-consistent calculation

     Convergence has been achieved 


     Representation #  2 modes #   2  3

     Self-consistent Calculation

      iter #   1 total cpu time : 20138.4 secs   av.it.:   5.7
      thresh= 1.000E-02 alpha_mix =  0.700 |ddv_scf|^2 =  1.712E-05

      iter #   2 total cpu time : 20156.8 secs   av.it.:   8.0
      thresh= 4.138E-04 alpha_mix =  0.700 |ddv_scf|^2 =  6.722E-07

      iter #   3 total cpu time : 20175.1 secs   av.it.:   7.8
      thresh= 8.199E-05 alpha_mix =  0.700 |ddv_scf|^2 =  1.448E-08

      iter #   4 total cpu time : 20194.0 secs   av.it.:   8.4
      thresh= 1.203E-05 alpha_mix =  0.700 |ddv_scf|^2 =  8.170E-11

      iter #   5 total cpu time : 20211.5 secs   av.it.:   7.6
      thresh= 9.039E-07 alpha_mix =  0.700 |ddv_scf|^2 =  4.719E-14

     End of self-consistent calculation

     Convergence has been achieved 

     Number of q in the star =    6
     List of q in the star:
          1  -0.500000000  -1.000000000   0.000000000
          2   0.000000000   1.000000000   0.500000000
          3   0.500000000  -1.000000000   0.000000000
          4   0.000000000   1.000000000  -0.500000000
          5  -1.000000000  -0.500000000   0.000000000
          6   0.000000000  -0.500000000  -1.000000000

     Diagonalizing the dynamical matrix

     q = (   -0.500000000  -1.000000000   0.000000000 ) 

 **************************************************************************
     freq (    1) =       4.695456 [THz] =     156.623558 [cm-1]
     freq (    2) =       6.090758 [THz] =     203.165811 [cm-1]
     freq (    3) =       6.090758 [THz] =     203.165811 [cm-1]
 **************************************************************************

     Mode symmetry, D_2d (-42m) point group:

     freq (  1 -  1) =        156.6  [cm-1]   --> B_2  X_3  W_2      
     freq (  2 -  3) =        203.2  [cm-1]   --> E    X_5  W_3      

     init_run     :      7.03s CPU      7.08s WALL (      28 calls)
     electrons    :   3848.41s CPU   4148.18s WALL (      28 calls)

     Called by init_run:
     wfcinit      :      0.00s CPU      0.00s WALL (      28 calls)
     potinit      :      0.30s CPU      0.31s WALL (      28 calls)

     Called by electrons:
     c_bands      :   3847.35s CPU   4147.11s WALL (      28 calls)
     v_of_rho     :      0.23s CPU      0.24s WALL (      29 calls)
     newd         :      0.27s CPU      0.27s WALL (      29 calls)

     Called by c_bands:
     init_us_2    :    255.57s CPU    241.16s WALL ( 3435194 calls)
     cegterg      :   3524.08s CPU   3788.45s WALL (  260742 calls)

     Called by sum_band:

     Called by *egterg:
     h_psi        :  12033.67s CPU  13254.19s WALL (28135682 calls)
     s_psi        :    388.43s CPU    417.15s WALL (54239065 calls)
     g_psi        :     15.63s CPU     28.30s WALL ( 3970411 calls)
     cdiaghg      :    898.80s CPU    853.41s WALL ( 4210315 calls)

     Called by h_psi:
     h_psi:pot    :  11963.09s CPU  13166.57s WALL (28135682 calls)
     h_psi:calbec :    281.67s CPU    352.83s WALL (28135682 calls)
     vloc_psi     :  11407.83s CPU  12480.16s WALL (28135682 calls)
     add_vuspsi   :    214.79s CPU    251.72s WALL (28135682 calls)

     General routines
     calbec       :    600.83s CPU    676.82s WALL (60163711 calls)
     fft          :      2.20s CPU      2.37s WALL (    9082 calls)
     ffts         :     21.00s CPU     22.90s WALL (  363584 calls)
     fftw         :  12359.14s CPU  13365.57s WALL (******** calls)
     interpolate  :      0.36s CPU      0.43s WALL (    1259 calls)
     davcio       :     96.59s CPU    274.71s WALL (13017578 calls)

     Parallel routines
     fft_scatter  :   3162.44s CPU   3691.00s WALL (******** calls)

     PHONON       :     5h 4m CPU        5h36m WALL

     INITIALIZATION: 
     phq_setup    :      0.81s CPU      0.82s WALL (      29 calls)
     phq_init     :    320.01s CPU    339.72s WALL (      29 calls)

     phq_init     :    320.01s CPU    339.72s WALL (      29 calls)
     init_vloc    :      0.07s CPU      0.07s WALL (      29 calls)
     init_us_1    :      3.10s CPU      3.10s WALL (      29 calls)
     newd         :      0.27s CPU      0.27s WALL (      29 calls)
     dvanqq       :      1.03s CPU      1.04s WALL (      29 calls)
     drho         :    260.56s CPU    277.26s WALL (      29 calls)

     DYNAMICAL MATRIX:
     dynmat0      :     39.05s CPU     40.30s WALL (      29 calls)
     phqscf       :  13931.94s CPU  15542.42s WALL (      29 calls)
     dynmatrix    :      0.03s CPU      0.04s WALL (      29 calls)

     phqscf       :  13931.94s CPU  15542.42s WALL (      29 calls)
     solve_linter :  13868.61s CPU  15475.99s WALL (      76 calls)
     drhodv       :     63.25s CPU     66.30s WALL (      76 calls)

     dynmat0      :     39.05s CPU     40.30s WALL (      29 calls)
     dynmat_us    :     39.01s CPU     40.26s WALL (      29 calls)
     d2ionq       :      0.02s CPU      0.02s WALL (      29 calls)

     dynmat_us    :     39.01s CPU     40.26s WALL (      29 calls)
     addusdynmat  :      0.00s CPU      0.00s WALL (      29 calls)

     phqscf       :  13931.94s CPU  15542.42s WALL (      29 calls)
     solve_linter :  13868.61s CPU  15475.99s WALL (      76 calls)

     solve_linter :  13868.61s CPU  15475.99s WALL (      76 calls)
     dvqpsi_us    :    419.53s CPU    454.84s WALL (  360696 calls)
     ortho        :    121.33s CPU    142.89s WALL ( 2438758 calls)
     cgsolve      :  10775.17s CPU  11878.41s WALL ( 2438758 calls)
     incdrhoscf   :   1221.22s CPU   1366.82s WALL ( 2438758 calls)
     addusddens   :      8.19s CPU      8.26s WALL (     578 calls)
     vpsifft      :    942.81s CPU   1064.15s WALL ( 2078062 calls)
     dv_of_drho   :      2.52s CPU      2.62s WALL (     557 calls)
     mix_pot      :      0.37s CPU      0.69s WALL (     502 calls)
     ef_shift     :      0.01s CPU      0.02s WALL (       6 calls)
     localdos     :      0.13s CPU      0.14s WALL (       1 calls)
     psymdvscf    :      4.90s CPU      4.98s WALL (     459 calls)
     newdq        :      7.35s CPU      7.40s WALL (     502 calls)
     adddvscf     :     47.44s CPU     52.98s WALL ( 2078062 calls)
     drhodvus     :      0.02s CPU      0.02s WALL (      76 calls)

     dvqpsi_us    :    419.53s CPU    454.84s WALL (  360696 calls)
     dvqpsi_us_on :     80.92s CPU     76.69s WALL (  360696 calls)

     cgsolve      :  10775.17s CPU  11878.41s WALL ( 2438758 calls)
     ch_psi       :  10535.93s CPU  11628.85s WALL (23664625 calls)

     ch_psi       :  10535.93s CPU  11628.85s WALL (23664625 calls)
     h_psi        :  12033.67s CPU  13254.19s WALL (28135682 calls)
     last         :    700.33s CPU    789.55s WALL (23664625 calls)

     h_psi        :  12033.67s CPU  13254.19s WALL (28135682 calls)
     add_vuspsi   :    214.79s CPU    251.72s WALL (28135682 calls)

     incdrhoscf   :   1221.22s CPU   1366.82s WALL ( 2438758 calls)
     addusdbec    :     57.28s CPU     60.78s WALL ( 2799454 calls)

     drhodvus     :      0.02s CPU      0.02s WALL (      76 calls)

      General routines
     calbec       :    600.83s CPU    676.82s WALL (60163711 calls)
     fft          :      2.20s CPU      2.37s WALL (    9082 calls)
     ffts         :     21.00s CPU     22.90s WALL (  363584 calls)
     fftw         :  12359.14s CPU  13365.57s WALL (******** calls)
     davcio       :     96.59s CPU    274.71s WALL (13017578 calls)
     write_rec    :      0.42s CPU      2.13s WALL (     578 calls)


     PHONON       :     5h 4m CPU        5h36m WALL


   This run was terminated on:  17:53:27  21Dec2017            

=------------------------------------------------------------------------------=
   JOB DONE.
=------------------------------------------------------------------------------=
