
     Program PWSCF v.6.1 (svn rev. 13369) starts on 20Dec2017 at 15:34:28 

     This program is part of the open-source Quantum ESPRESSO suite
     for quantum simulation of materials; please cite
         "P. Giannozzi et al., J. Phys.:Condens. Matter 21 395502 (2009);
          URL http://www.quantum-espresso.org", 
     in publications or presentations arising from this work. More details at
     http://www.quantum-espresso.org/quote

     Parallel version (MPI), running on     4 processors
     R & G space division:  proc/nbgrp/npool/nimage =       4
     Waiting for input...
     Reading input from standard input

     Current dimensions of program PWSCF are:
     Max number of different atomic species (ntypx) = 10
     Max number of k-points (npk) =  40000
     Max angular momentum in pseudopotentials (lmaxx) =  3

     Subspace diagonalization in iterative solution of the eigenvalue problem:
     a serial algorithm will be used


     Parallelization info
     --------------------
     sticks:   dense  smooth     PW     G-vecs:    dense   smooth      PW
     Min         287     142     43                 6207     2171     375
     Max         288     144     44                 6210     2172     378
     Sum        1151     571    173                24835     8685    1505



     bravais-lattice index     =            3
     lattice parameter (alat)  =       8.0000  a.u.
     unit-cell volume          =     256.0000 (a.u.)^3
     number of atoms/cell      =            1
     number of atomic types    =            1
     number of electrons       =         9.00
     number of Kohn-Sham states=            9
     kinetic-energy cutoff     =      40.0000  Ry
     charge density cutoff     =     320.0000  Ry
     convergence threshold     =      1.0E-08
     mixing beta               =       0.7000
     number of iterations used =            8  plain     mixing
     Exchange-correlation      = SLA  PW   PBE  PBE ( 1  4  3  4 0 0)
     nstep                     =           50


     celldm(1)=   8.000000  celldm(2)=   0.000000  celldm(3)=   0.000000
     celldm(4)=   0.000000  celldm(5)=   0.000000  celldm(6)=   0.000000

     crystal axes: (cart. coord. in units of alat)
               a(1) = (   0.500000   0.500000   0.500000 )  
               a(2) = (  -0.500000   0.500000   0.500000 )  
               a(3) = (  -0.500000  -0.500000   0.500000 )  

     reciprocal axes: (cart. coord. in units 2 pi/alat)
               b(1) = (  1.000000  0.000000  1.000000 )  
               b(2) = ( -1.000000  1.000000  0.000000 )  
               b(3) = (  0.000000 -1.000000  1.000000 )  


     PseudoPot. # 1 for Na read from file:
     /home/s1333534/quantum_espresso/qe-6.1/pseudo/Na_pbe_v1.uspp.F.UPF
     MD5 check sum: 76a99c7e9422403d3e93cbc85ab7bccb
     Pseudo is Ultrasoft, Zval =  9.0
     Generated by new atomic code, or converted to UPF format
     Using radial grid of  819 points,  5 beta functions with: 
                l(1) =   0
                l(2) =   0
                l(3) =   1
                l(4) =   1
                l(5) =   2
     Q(r) pseudized with  8 coefficients,  rinner =    1.250   1.250   1.250
                                                       1.250   1.250

     atomic species   valence    mass     pseudopotential
        Na             9.00    22.99000     Na( 1.00)

     48 Sym. Ops., with inversion, found



   Cartesian axes

     site n.     atom                  positions (alat units)
         1           Na  tau(   1) = (   0.0000000   0.0000000   0.0000000  )

     number of k points=   250  Marzari-Vanderbilt smearing, width (Ry)=  0.0200

     Number of k-points >= 100: set verbosity='high' to print them.

     Dense  grid:    24835 G-vectors     FFT dimensions: (  40,  40,  40)

     Smooth grid:     8685 G-vectors     FFT dimensions: (  27,  27,  27)

     Estimated max dynamical RAM per process >      13.36MB

     Estimated total allocated dynamical RAM >      53.44MB

     Initial potential from superposition of free atoms

     starting charge    8.99371, renormalised to    9.00000
     Starting wfc are    5 randomized atomic wfcs +    4 random wfc

     total cpu time spent up to now is        1.0 secs

     per-process dynamical memory:    19.6 Mb

     Self-consistent Calculation

     iteration #  1     ecut=    40.00 Ry     beta=0.70
     Davidson diagonalization with overlap
     ethr =  1.00E-02,  avg # of iterations =  5.8

     Threshold (ethr) on eigenvalues was too large:
     Diagonalizing with lowered threshold

     Davidson diagonalization with overlap
     ethr =  9.84E-06,  avg # of iterations =  4.8

     total cpu time spent up to now is        5.8 secs

     total energy              =     -95.10637787 Ry
     Harris-Foulkes estimate   =     -95.10656725 Ry
     estimated scf accuracy    <       0.00088332 Ry

     iteration #  2     ecut=    40.00 Ry     beta=0.70
     Davidson diagonalization with overlap
     ethr =  9.81E-06,  avg # of iterations =  2.0

     total cpu time spent up to now is        7.4 secs

     total energy              =     -95.10647616 Ry
     Harris-Foulkes estimate   =     -95.10649624 Ry
     estimated scf accuracy    <       0.00009724 Ry

     iteration #  3     ecut=    40.00 Ry     beta=0.70
     Davidson diagonalization with overlap
     ethr =  1.08E-06,  avg # of iterations =  2.1

     total cpu time spent up to now is        9.1 secs

     total energy              =     -95.10648758 Ry
     Harris-Foulkes estimate   =     -95.10648858 Ry
     estimated scf accuracy    <       0.00000602 Ry

     iteration #  4     ecut=    40.00 Ry     beta=0.70
     Davidson diagonalization with overlap
     ethr =  6.69E-08,  avg # of iterations =  1.0

     total cpu time spent up to now is       10.5 secs

     total energy              =     -95.10648815 Ry
     Harris-Foulkes estimate   =     -95.10648811 Ry
     estimated scf accuracy    <       0.00000001 Ry

     iteration #  5     ecut=    40.00 Ry     beta=0.70
     Davidson diagonalization with overlap
     ethr =  1.40E-10,  avg # of iterations =  3.0

     total cpu time spent up to now is       12.4 secs

     End of self-consistent calculation

     Number of k-points >= 100: set verbosity='high' to print the bands.

     the Fermi energy is     1.5119 ev

!    total energy              =     -95.10648818 Ry
     Harris-Foulkes estimate   =     -95.10648818 Ry
     estimated scf accuracy    <          1.7E-09 Ry

     The total energy is the sum of the following terms:

     one-electron contribution =     -88.63767028 Ry
     hartree contribution      =      44.64403185 Ry
     xc contribution           =     -14.26551967 Ry
     ewald contribution        =     -36.84723868 Ry
     smearing contrib. (-TS)   =      -0.00009141 Ry

     convergence has been achieved in   5 iterations

     Forces acting on atoms (cartesian axes, Ry/au):

     atom    1 type  1   force =     0.00000000    0.00000000    0.00000000

     Total force =     0.000000     Total SCF correction =     0.000000


     Computing stress (Cartesian axis) and pressure

          total   stress  (Ry/bohr**3)                   (kbar)     P=   -4.40
  -0.00002994  -0.00000000   0.00000000         -4.40     -0.00      0.00
  -0.00000000  -0.00002994   0.00000000         -0.00     -4.40      0.00
   0.00000000   0.00000000  -0.00002994          0.00      0.00     -4.40


     BFGS Geometry Optimization

     number of scf cycles    =   1
     number of bfgs steps    =   0

     enthalpy new            =     -95.0716831262 Ry

     new trust radius        =       0.0132717838 bohr
     new conv_thr            =       0.0000000100 Ry

     new unit-cell volume =    252.82796 a.u.^3 (    37.46524 Ang^3 )
     density =      1.01897 g/cm^3

CELL_PARAMETERS (alat=  8.00000000)
   0.497926284   0.497926284   0.497926284
  -0.497926284   0.497926284   0.497926284
  -0.497926284  -0.497926284   0.497926284

ATOMIC_POSITIONS (crystal)
Na       0.000000000   0.000000000   0.000000000



     Writing output data file na.bcc.save
     NEW-OLD atomic charge density approx. for the potential
     extrapolated charge    8.88716, renormalised to    9.00000

     total cpu time spent up to now is       13.9 secs

     per-process dynamical memory:    31.4 Mb

     Self-consistent Calculation

     iteration #  1     ecut=    40.00 Ry     beta=0.70
     Davidson diagonalization with overlap
     c_bands:  1 eigenvalues not converged
     ethr =  1.00E-06,  avg # of iterations =  3.6

     total cpu time spent up to now is       16.3 secs

     total energy              =     -95.09848801 Ry
     Harris-Foulkes estimate   =     -95.98885034 Ry
     estimated scf accuracy    <       0.00452812 Ry

     iteration #  2     ecut=    40.00 Ry     beta=0.70
     Davidson diagonalization with overlap
     ethr =  5.03E-05,  avg # of iterations =  2.9

     total cpu time spent up to now is       18.4 secs

     total energy              =     -95.10669265 Ry
     Harris-Foulkes estimate   =     -95.11001678 Ry
     estimated scf accuracy    <       0.00756530 Ry

     iteration #  3     ecut=    40.00 Ry     beta=0.70
     Davidson diagonalization with overlap
     ethr =  5.03E-05,  avg # of iterations =  2.0

     total cpu time spent up to now is       20.0 secs

     total energy              =     -95.10666204 Ry
     Harris-Foulkes estimate   =     -95.10720848 Ry
     estimated scf accuracy    <       0.00141602 Ry

     iteration #  4     ecut=    40.00 Ry     beta=0.70
     Davidson diagonalization with overlap
     ethr =  1.57E-05,  avg # of iterations =  1.0

     total cpu time spent up to now is       21.4 secs

     total energy              =     -95.10656606 Ry
     Harris-Foulkes estimate   =     -95.10673950 Ry
     estimated scf accuracy    <       0.00036925 Ry

     iteration #  5     ecut=    40.00 Ry     beta=0.70
     Davidson diagonalization with overlap
     ethr =  4.10E-06,  avg # of iterations =  1.6

     total cpu time spent up to now is       22.9 secs

     total energy              =     -95.10659723 Ry
     Harris-Foulkes estimate   =     -95.10659953 Ry
     estimated scf accuracy    <       0.00005335 Ry

     iteration #  6     ecut=    40.00 Ry     beta=0.70
     Davidson diagonalization with overlap
     ethr =  5.93E-07,  avg # of iterations =  1.0

     total cpu time spent up to now is       24.2 secs

     total energy              =     -95.10657581 Ry
     Harris-Foulkes estimate   =     -95.10659834 Ry
     estimated scf accuracy    <       0.00005192 Ry

     iteration #  7     ecut=    40.00 Ry     beta=0.70
     Davidson diagonalization with overlap
     ethr =  5.77E-07,  avg # of iterations =  1.0

     total cpu time spent up to now is       25.6 secs

     total energy              =     -95.10658092 Ry
     Harris-Foulkes estimate   =     -95.10657987 Ry
     estimated scf accuracy    <       0.00000976 Ry

     iteration #  8     ecut=    40.00 Ry     beta=0.70
     Davidson diagonalization with overlap
     ethr =  1.08E-07,  avg # of iterations =  1.0

     total cpu time spent up to now is       27.0 secs

     total energy              =     -95.10657294 Ry
     Harris-Foulkes estimate   =     -95.10658106 Ry
     estimated scf accuracy    <       0.00001310 Ry

     iteration #  9     ecut=    40.00 Ry     beta=0.70
     Davidson diagonalization with overlap
     ethr =  1.08E-07,  avg # of iterations =  2.0

     total cpu time spent up to now is       28.7 secs

     total energy              =     -95.10657664 Ry
     Harris-Foulkes estimate   =     -95.10657591 Ry
     estimated scf accuracy    <       0.00000027 Ry

     iteration # 10     ecut=    40.00 Ry     beta=0.70
     Davidson diagonalization with overlap
     ethr =  3.05E-09,  avg # of iterations =  2.0

     total cpu time spent up to now is       30.3 secs

     total energy              =     -95.10657614 Ry
     Harris-Foulkes estimate   =     -95.10657680 Ry
     estimated scf accuracy    <       0.00000298 Ry

     iteration # 11     ecut=    40.00 Ry     beta=0.70
     Davidson diagonalization with overlap
     ethr =  3.05E-09,  avg # of iterations =  2.0

     total cpu time spent up to now is       32.0 secs

     total energy              =     -95.10657581 Ry
     Harris-Foulkes estimate   =     -95.10657619 Ry
     estimated scf accuracy    <       0.00000106 Ry

     iteration # 12     ecut=    40.00 Ry     beta=0.70
     Davidson diagonalization with overlap
     ethr =  3.05E-09,  avg # of iterations =  2.0

     total cpu time spent up to now is       33.7 secs

     total energy              =     -95.10657581 Ry
     Harris-Foulkes estimate   =     -95.10657587 Ry
     estimated scf accuracy    <       0.00000013 Ry

     iteration # 13     ecut=    40.00 Ry     beta=0.70
     Davidson diagonalization with overlap
     ethr =  1.41E-09,  avg # of iterations =  2.0

     total cpu time spent up to now is       35.4 secs

     End of self-consistent calculation

     Number of k-points >= 100: set verbosity='high' to print the bands.

     the Fermi energy is     1.5628 ev

!    total energy              =     -95.10657582 Ry
     Harris-Foulkes estimate   =     -95.10657582 Ry
     estimated scf accuracy    <          7.4E-10 Ry

     The total energy is the sum of the following terms:

     one-electron contribution =     -88.36799400 Ry
     hartree contribution      =      44.52930997 Ry
     xc contribution           =     -14.26710317 Ry
     ewald contribution        =     -37.00069657 Ry
     smearing contrib. (-TS)   =      -0.00009205 Ry

     convergence has been achieved in  13 iterations

     Forces acting on atoms (cartesian axes, Ry/au):

     atom    1 type  1   force =     0.00000000    0.00000000    0.00000000

     Total force =     0.000000     Total SCF correction =     0.000000


     Computing stress (Cartesian axis) and pressure

          total   stress  (Ry/bohr**3)                   (kbar)     P=   -3.53
  -0.00002402   0.00000000   0.00000000         -3.53      0.00      0.00
   0.00000000  -0.00002402  -0.00000000          0.00     -3.53     -0.00
   0.00000000  -0.00000000  -0.00002402          0.00     -0.00     -3.53


     number of scf cycles    =   2
     number of bfgs steps    =   1

     enthalpy old            =     -95.0716831262 Ry
     enthalpy new            =     -95.0722020244 Ry

     CASE: enthalpy_new < enthalpy_old


     WARNING: bfgs curvature condition failed, Theta= 0.837
     new trust radius        =       0.0198663499 bohr
     new conv_thr            =            1.0E-10 Ry

     new unit-cell volume =    248.11921 a.u.^3 (    36.76747 Ang^3 )
     density =      1.03830 g/cm^3

CELL_PARAMETERS (alat=  8.00000000)
   0.494815709   0.494815709   0.494815709
  -0.494815709   0.494815709   0.494815709
  -0.494815709  -0.494815709   0.494815709

ATOMIC_POSITIONS (crystal)
Na       0.000000000   0.000000000   0.000000000



     Writing output data file na.bcc.save
     NEW-OLD atomic charge density approx. for the potential
     extrapolated charge    8.82932, renormalised to    9.00000

     total cpu time spent up to now is       36.8 secs

     per-process dynamical memory:    31.4 Mb

     Self-consistent Calculation

     iteration #  1     ecut=    40.00 Ry     beta=0.70
     Davidson diagonalization with overlap
     c_bands:  1 eigenvalues not converged
     ethr =  1.00E-06,  avg # of iterations =  4.0

     total cpu time spent up to now is       39.4 secs

     total energy              =     -95.08855933 Ry
     Harris-Foulkes estimate   =     -96.43301996 Ry
     estimated scf accuracy    <       0.01015877 Ry

     iteration #  2     ecut=    40.00 Ry     beta=0.70
     Davidson diagonalization with overlap
     ethr =  1.13E-04,  avg # of iterations =  2.9

     total cpu time spent up to now is       41.5 secs

     total energy              =     -95.10688296 Ry
     Harris-Foulkes estimate   =     -95.11432900 Ry
     estimated scf accuracy    <       0.01693531 Ry

     iteration #  3     ecut=    40.00 Ry     beta=0.70
     Davidson diagonalization with overlap
     ethr =  1.13E-04,  avg # of iterations =  2.0

     total cpu time spent up to now is       43.1 secs

     total energy              =     -95.10679750 Ry
     Harris-Foulkes estimate   =     -95.10805429 Ry
     estimated scf accuracy    <       0.00312134 Ry

     iteration #  4     ecut=    40.00 Ry     beta=0.70
     Davidson diagonalization with overlap
     ethr =  3.47E-05,  avg # of iterations =  1.0

     total cpu time spent up to now is       44.5 secs

     total energy              =     -95.10681299 Ry
     Harris-Foulkes estimate   =     -95.10698426 Ry
     estimated scf accuracy    <       0.00073598 Ry

     iteration #  5     ecut=    40.00 Ry     beta=0.70
     Davidson diagonalization with overlap
     ethr =  8.18E-06,  avg # of iterations =  1.0

     total cpu time spent up to now is       46.0 secs

     total energy              =     -95.10675140 Ry
     Harris-Foulkes estimate   =     -95.10683511 Ry
     estimated scf accuracy    <       0.00037585 Ry

     iteration #  6     ecut=    40.00 Ry     beta=0.70
     Davidson diagonalization with overlap
     ethr =  4.18E-06,  avg # of iterations =  1.0

     total cpu time spent up to now is       47.4 secs

     total energy              =     -95.10664325 Ry
     Harris-Foulkes estimate   =     -95.10675673 Ry
     estimated scf accuracy    <       0.00020829 Ry

     iteration #  7     ecut=    40.00 Ry     beta=0.70
     Davidson diagonalization with overlap
     ethr =  2.31E-06,  avg # of iterations =  2.0

     total cpu time spent up to now is       49.0 secs

     total energy              =     -95.10666123 Ry
     Harris-Foulkes estimate   =     -95.10666756 Ry
     estimated scf accuracy    <       0.00001411 Ry

     iteration #  8     ecut=    40.00 Ry     beta=0.70
     Davidson diagonalization with overlap
     ethr =  1.57E-07,  avg # of iterations =  1.4

     total cpu time spent up to now is       50.4 secs

     total energy              =     -95.10666078 Ry
     Harris-Foulkes estimate   =     -95.10666241 Ry
     estimated scf accuracy    <       0.00000254 Ry

     iteration #  9     ecut=    40.00 Ry     beta=0.70
     Davidson diagonalization with overlap
     ethr =  2.82E-08,  avg # of iterations =  2.0

     total cpu time spent up to now is       52.2 secs

     total energy              =     -95.10666134 Ry
     Harris-Foulkes estimate   =     -95.10666134 Ry
     estimated scf accuracy    <          6.9E-09 Ry

     iteration # 10     ecut=    40.00 Ry     beta=0.70
     Davidson diagonalization with overlap
     ethr =  7.70E-11,  avg # of iterations =  2.2

     total cpu time spent up to now is       53.9 secs

     total energy              =     -95.10666134 Ry
     Harris-Foulkes estimate   =     -95.10666134 Ry
     estimated scf accuracy    <          1.3E-09 Ry

     iteration # 11     ecut=    40.00 Ry     beta=0.70
     Davidson diagonalization with overlap
     ethr =  1.43E-11,  avg # of iterations =  2.0

     total cpu time spent up to now is       55.5 secs

     total energy              =     -95.10666134 Ry
     Harris-Foulkes estimate   =     -95.10666134 Ry
     estimated scf accuracy    <          2.8E-09 Ry

     iteration # 12     ecut=    40.00 Ry     beta=0.70
     Davidson diagonalization with overlap
     ethr =  1.43E-11,  avg # of iterations =  2.0

     total cpu time spent up to now is       57.2 secs

     total energy              =     -95.10666134 Ry
     Harris-Foulkes estimate   =     -95.10666134 Ry
     estimated scf accuracy    <          1.9E-10 Ry

     iteration # 13     ecut=    40.00 Ry     beta=0.70
     Davidson diagonalization with overlap
     ethr =  2.07E-12,  avg # of iterations =  1.0

     total cpu time spent up to now is       58.5 secs

     total energy              =     -95.10666134 Ry
     Harris-Foulkes estimate   =     -95.10666134 Ry
     estimated scf accuracy    <          1.3E-10 Ry

     iteration # 14     ecut=    40.00 Ry     beta=0.70
     Davidson diagonalization with overlap
     ethr =  1.40E-12,  avg # of iterations =  1.0

     total cpu time spent up to now is       60.0 secs

     End of self-consistent calculation

     Number of k-points >= 100: set verbosity='high' to print the bands.

     the Fermi energy is     1.6409 ev

!    total energy              =     -95.10666134 Ry
     Harris-Foulkes estimate   =     -95.10666134 Ry
     estimated scf accuracy    <          8.4E-11 Ry

     The total energy is the sum of the following terms:

     one-electron contribution =     -87.95962819 Ry
     hartree contribution      =      44.35591001 Ry
     xc contribution           =     -14.26955503 Ry
     ewald contribution        =     -37.23329512 Ry
     smearing contrib. (-TS)   =      -0.00009301 Ry

     convergence has been achieved in  14 iterations

     Forces acting on atoms (cartesian axes, Ry/au):

     atom    1 type  1   force =     0.00000000    0.00000000    0.00000000

     Total force =     0.000000     Total SCF correction =     0.000000


     Computing stress (Cartesian axis) and pressure

          total   stress  (Ry/bohr**3)                   (kbar)     P=   -1.83
  -0.00001246   0.00000000  -0.00000000         -1.83      0.00     -0.00
   0.00000000  -0.00001246   0.00000000          0.00     -1.83      0.00
  -0.00000000   0.00000000  -0.00001246         -0.00      0.00     -1.83


     number of scf cycles    =   3
     number of bfgs steps    =   2

     enthalpy old            =     -95.0722020244 Ry
     enthalpy new            =     -95.0729277321 Ry

     CASE: enthalpy_new < enthalpy_old

     new trust radius        =       0.0297062994 bohr
     new conv_thr            =            1.0E-10 Ry

     new unit-cell volume =    241.16627 a.u.^3 (    35.73715 Ang^3 )
     density =      1.06824 g/cm^3

CELL_PARAMETERS (alat=  8.00000000)
   0.490149848   0.490149848   0.490149848
  -0.490149848   0.490149848   0.490149848
  -0.490149848  -0.490149848   0.490149848

ATOMIC_POSITIONS (crystal)
Na       0.000000000   0.000000000   0.000000000



     Writing output data file na.bcc.save
     NEW-OLD atomic charge density approx. for the potential
     extrapolated charge    8.74071, renormalised to    9.00000

     total cpu time spent up to now is       61.4 secs

     per-process dynamical memory:    31.4 Mb

     Self-consistent Calculation

     iteration #  1     ecut=    40.00 Ry     beta=0.70
     Davidson diagonalization with overlap
     ethr =  1.00E-06,  avg # of iterations =  4.3

     total cpu time spent up to now is       64.1 secs

     total energy              =     -95.06625978 Ry
     Harris-Foulkes estimate   =     -97.10251746 Ry
     estimated scf accuracy    <       0.02276284 Ry

     iteration #  2     ecut=    40.00 Ry     beta=0.70
     Davidson diagonalization with overlap
     ethr =  2.53E-04,  avg # of iterations =  2.9

     total cpu time spent up to now is       66.2 secs

     total energy              =     -95.10704238 Ry
     Harris-Foulkes estimate   =     -95.12368562 Ry
     estimated scf accuracy    <       0.03781946 Ry

     iteration #  3     ecut=    40.00 Ry     beta=0.70
     Davidson diagonalization with overlap
     ethr =  2.53E-04,  avg # of iterations =  2.0

     total cpu time spent up to now is       67.8 secs

     total energy              =     -95.10678923 Ry
     Harris-Foulkes estimate   =     -95.10971308 Ry
     estimated scf accuracy    <       0.00681430 Ry

     iteration #  4     ecut=    40.00 Ry     beta=0.70
     Davidson diagonalization with overlap
     ethr =  7.57E-05,  avg # of iterations =  1.0

     total cpu time spent up to now is       69.2 secs

     total energy              =     -95.10745009 Ry
     Harris-Foulkes estimate   =     -95.10726036 Ry
     estimated scf accuracy    <       0.00134473 Ry

     iteration #  5     ecut=    40.00 Ry     beta=0.70
     Davidson diagonalization with overlap
     ethr =  1.49E-05,  avg # of iterations =  1.0

     total cpu time spent up to now is       70.6 secs

     total energy              =     -95.10688752 Ry
     Harris-Foulkes estimate   =     -95.10747587 Ry
     estimated scf accuracy    <       0.00179667 Ry

     iteration #  6     ecut=    40.00 Ry     beta=0.70
     Davidson diagonalization with overlap
     ethr =  1.49E-05,  avg # of iterations =  1.0

     total cpu time spent up to now is       72.0 secs

     total energy              =     -95.10673879 Ry
     Harris-Foulkes estimate   =     -95.10695822 Ry
     estimated scf accuracy    <       0.00062017 Ry

     iteration #  7     ecut=    40.00 Ry     beta=0.70
     Davidson diagonalization with overlap
     ethr =  6.89E-06,  avg # of iterations =  1.0

     total cpu time spent up to now is       73.4 secs

     total energy              =     -95.10665540 Ry
     Harris-Foulkes estimate   =     -95.10676724 Ry
     estimated scf accuracy    <       0.00019037 Ry

     iteration #  8     ecut=    40.00 Ry     beta=0.70
     Davidson diagonalization with overlap
     ethr =  2.12E-06,  avg # of iterations =  2.1

     total cpu time spent up to now is       75.0 secs

     total energy              =     -95.10667919 Ry
     Harris-Foulkes estimate   =     -95.10668406 Ry
     estimated scf accuracy    <       0.00000618 Ry

     iteration #  9     ecut=    40.00 Ry     beta=0.70
     Davidson diagonalization with overlap
     ethr =  6.87E-08,  avg # of iterations =  2.0

     total cpu time spent up to now is       76.7 secs

     total energy              =     -95.10668103 Ry
     Harris-Foulkes estimate   =     -95.10668157 Ry
     estimated scf accuracy    <       0.00000071 Ry

     iteration # 10     ecut=    40.00 Ry     beta=0.70
     Davidson diagonalization with overlap
     ethr =  7.90E-09,  avg # of iterations =  2.0

     total cpu time spent up to now is       78.4 secs

     total energy              =     -95.10668124 Ry
     Harris-Foulkes estimate   =     -95.10668135 Ry
     estimated scf accuracy    <       0.00000019 Ry

     iteration # 11     ecut=    40.00 Ry     beta=0.70
     Davidson diagonalization with overlap
     ethr =  2.09E-09,  avg # of iterations =  2.0

     total cpu time spent up to now is       80.1 secs

     total energy              =     -95.10668129 Ry
     Harris-Foulkes estimate   =     -95.10668128 Ry
     estimated scf accuracy    <       0.00000007 Ry

     iteration # 12     ecut=    40.00 Ry     beta=0.70
     Davidson diagonalization with overlap
     ethr =  7.54E-10,  avg # of iterations =  1.0

     total cpu time spent up to now is       81.5 secs

     total energy              =     -95.10668133 Ry
     Harris-Foulkes estimate   =     -95.10668129 Ry
     estimated scf accuracy    <       0.00000010 Ry

     iteration # 13     ecut=    40.00 Ry     beta=0.70
     Davidson diagonalization with overlap
     ethr =  7.54E-10,  avg # of iterations =  1.0

     total cpu time spent up to now is       82.9 secs

     total energy              =     -95.10668126 Ry
     Harris-Foulkes estimate   =     -95.10668133 Ry
     estimated scf accuracy    <       0.00000025 Ry

     iteration # 14     ecut=    40.00 Ry     beta=0.70
     Davidson diagonalization with overlap
     ethr =  7.54E-10,  avg # of iterations =  1.6

     total cpu time spent up to now is       84.4 secs

     End of self-consistent calculation

     Number of k-points >= 100: set verbosity='high' to print the bands.

     the Fermi energy is     1.7620 ev

!    total energy              =     -95.10668127 Ry
     Harris-Foulkes estimate   =     -95.10668127 Ry
     estimated scf accuracy    <          5.4E-11 Ry

     The total energy is the sum of the following terms:

     one-electron contribution =     -87.33778966 Ry
     hartree contribution      =      44.09223867 Ry
     xc contribution           =     -14.27330745 Ry
     ewald contribution        =     -37.58772836 Ry
     smearing contrib. (-TS)   =      -0.00009447 Ry

     convergence has been achieved in  14 iterations

     Forces acting on atoms (cartesian axes, Ry/au):

     atom    1 type  1   force =     0.00000000    0.00000000    0.00000000

     Total force =     0.000000     Total SCF correction =     0.000000


     Computing stress (Cartesian axis) and pressure

          total   stress  (Ry/bohr**3)                   (kbar)     P=    0.96
   0.00000654   0.00000000  -0.00000000          0.96      0.00     -0.00
   0.00000000   0.00000654   0.00000000          0.00      0.96      0.00
  -0.00000000   0.00000000   0.00000654         -0.00      0.00      0.96


     number of scf cycles    =   4
     number of bfgs steps    =   3

     enthalpy old            =     -95.0729277321 Ry
     enthalpy new            =     -95.0738929597 Ry

     CASE: enthalpy_new < enthalpy_old

     new trust radius        =       0.0443488649 bohr
     new conv_thr            =            1.0E-10 Ry

     new unit-cell volume =    230.98233 a.u.^3 (    34.22805 Ang^3 )
     density =      1.11534 g/cm^3

CELL_PARAMETERS (alat=  8.00000000)
   0.483151056   0.483151056   0.483151056
  -0.483151056   0.483151056   0.483151056
  -0.483151056  -0.483151056   0.483151056

ATOMIC_POSITIONS (crystal)
Na       0.000000000   0.000000000   0.000000000



     Writing output data file na.bcc.save
     NEW-OLD atomic charge density approx. for the potential
     extrapolated charge    8.60347, renormalised to    9.00000

     total cpu time spent up to now is       85.9 secs

     per-process dynamical memory:    31.4 Mb

     Self-consistent Calculation

     iteration #  1     ecut=    40.00 Ry     beta=0.70
     Davidson diagonalization with overlap
     ethr =  1.00E-06,  avg # of iterations =  4.7

     total cpu time spent up to now is       88.7 secs

     total energy              =     -95.01641786 Ry
     Harris-Foulkes estimate   =     -98.11327031 Ry
     estimated scf accuracy    <       0.05103452 Ry

     iteration #  2     ecut=    40.00 Ry     beta=0.70
     Davidson diagonalization with overlap
     ethr =  5.67E-04,  avg # of iterations =  2.8

     total cpu time spent up to now is       90.8 secs

     total energy              =     -95.10679384 Ry
     Harris-Foulkes estimate   =     -95.14392121 Ry
     estimated scf accuracy    <       0.08419704 Ry

     iteration #  3     ecut=    40.00 Ry     beta=0.70
     Davidson diagonalization with overlap
     ethr =  5.67E-04,  avg # of iterations =  2.0

     total cpu time spent up to now is       92.4 secs

     total energy              =     -95.10638051 Ry
     Harris-Foulkes estimate   =     -95.11293516 Ry
     estimated scf accuracy    <       0.01462672 Ry

     iteration #  4     ecut=    40.00 Ry     beta=0.70
     Davidson diagonalization with overlap
     ethr =  1.63E-04,  avg # of iterations =  1.0

     total cpu time spent up to now is      221.7 secs

     total energy              =     -95.10754586 Ry
     Harris-Foulkes estimate   =     -95.10750273 Ry
     estimated scf accuracy    <       0.00249097 Ry

     iteration #  5     ecut=    40.00 Ry     beta=0.70
     Davidson diagonalization with overlap
     ethr =  2.77E-05,  avg # of iterations =  1.0

     total cpu time spent up to now is      253.0 secs

     total energy              =     -95.10666703 Ry
     Harris-Foulkes estimate   =     -95.10759464 Ry
     estimated scf accuracy    <       0.00265323 Ry

     iteration #  6     ecut=    40.00 Ry     beta=0.70
     Davidson diagonalization with overlap
     ethr =  2.77E-05,  avg # of iterations =  1.0

     total cpu time spent up to now is      256.5 secs

     total energy              =     -95.10662609 Ry
     Harris-Foulkes estimate   =     -95.10680003 Ry
     estimated scf accuracy    <       0.00078925 Ry

     iteration #  7     ecut=    40.00 Ry     beta=0.70
     Davidson diagonalization with overlap
     ethr =  8.77E-06,  avg # of iterations =  1.0

     total cpu time spent up to now is      258.3 secs

     total energy              =     -95.10664448 Ry
     Harris-Foulkes estimate   =     -95.10664325 Ry
     estimated scf accuracy    <       0.00041505 Ry

     iteration #  8     ecut=    40.00 Ry     beta=0.70
     Davidson diagonalization with overlap
     ethr =  4.61E-06,  avg # of iterations =  1.1

     total cpu time spent up to now is      260.2 secs

     total energy              =     -95.10647957 Ry
     Harris-Foulkes estimate   =     -95.10664542 Ry
     estimated scf accuracy    <       0.00043019 Ry

     iteration #  9     ecut=    40.00 Ry     beta=0.70
     Davidson diagonalization with overlap
     ethr =  4.61E-06,  avg # of iterations =  1.0

     total cpu time spent up to now is      262.1 secs

     total energy              =     -95.10650430 Ry
     Harris-Foulkes estimate   =     -95.10650184 Ry
     estimated scf accuracy    <       0.00011292 Ry

     iteration # 10     ecut=    40.00 Ry     beta=0.70
     Davidson diagonalization with overlap
     ethr =  1.25E-06,  avg # of iterations =  1.1

     total cpu time spent up to now is      277.7 secs

     total energy              =     -95.10644756 Ry
     Harris-Foulkes estimate   =     -95.10650491 Ry
     estimated scf accuracy    <       0.00012347 Ry

     iteration # 11     ecut=    40.00 Ry     beta=0.70
     Davidson diagonalization with overlap
     ethr =  1.25E-06,  avg # of iterations =  1.4

     total cpu time spent up to now is      279.7 secs

     total energy              =     -95.10645689 Ry
     Harris-Foulkes estimate   =     -95.10645837 Ry
     estimated scf accuracy    <       0.00001591 Ry

     iteration # 12     ecut=    40.00 Ry     beta=0.70
     Davidson diagonalization with overlap
     ethr =  1.77E-07,  avg # of iterations =  1.0

     total cpu time spent up to now is      282.1 secs

     total energy              =     -95.10644902 Ry
     Harris-Foulkes estimate   =     -95.10645710 Ry
     estimated scf accuracy    <       0.00001234 Ry

     iteration # 13     ecut=    40.00 Ry     beta=0.70
     Davidson diagonalization with overlap
     ethr =  1.37E-07,  avg # of iterations =  2.0

     total cpu time spent up to now is      285.3 secs

     total energy              =     -95.10645168 Ry
     Harris-Foulkes estimate   =     -95.10645168 Ry
     estimated scf accuracy    <          7.9E-09 Ry

     iteration # 14     ecut=    40.00 Ry     beta=0.70
     Davidson diagonalization with overlap
     ethr =  8.73E-11,  avg # of iterations =  2.0

     total cpu time spent up to now is      288.5 secs

     total energy              =     -95.10645168 Ry
     Harris-Foulkes estimate   =     -95.10645168 Ry
     estimated scf accuracy    <       0.00000001 Ry

     iteration # 15     ecut=    40.00 Ry     beta=0.70
     Davidson diagonalization with overlap
     ethr =  8.73E-11,  avg # of iterations =  1.0

     total cpu time spent up to now is      291.4 secs

     total energy              =     -95.10645168 Ry
     Harris-Foulkes estimate   =     -95.10645168 Ry
     estimated scf accuracy    <          8.2E-09 Ry

     iteration # 16     ecut=    40.00 Ry     beta=0.70
     Davidson diagonalization with overlap
     ethr =  8.73E-11,  avg # of iterations =  1.0

     total cpu time spent up to now is      303.5 secs

     total energy              =     -95.10645168 Ry
     Harris-Foulkes estimate   =     -95.10645168 Ry
     estimated scf accuracy    <       0.00000001 Ry

     iteration # 17     ecut=    40.00 Ry     beta=0.70
     Davidson diagonalization with overlap
     ethr =  8.73E-11,  avg # of iterations =  2.0

     total cpu time spent up to now is      308.1 secs

     total energy              =     -95.10645169 Ry
     Harris-Foulkes estimate   =     -95.10645168 Ry
     estimated scf accuracy    <          6.0E-10 Ry

     iteration # 18     ecut=    40.00 Ry     beta=0.70
     Davidson diagonalization with overlap
     ethr =  6.65E-12,  avg # of iterations =  3.0

     total cpu time spent up to now is      310.6 secs

     total energy              =     -95.10645167 Ry
     Harris-Foulkes estimate   =     -95.10645170 Ry
     estimated scf accuracy    <       0.00000007 Ry

     iteration # 19     ecut=    40.00 Ry     beta=0.70
     Davidson diagonalization with overlap
     ethr =  6.65E-12,  avg # of iterations =  3.0

     total cpu time spent up to now is      313.4 secs

     total energy              =     -95.10645168 Ry
     Harris-Foulkes estimate   =     -95.10645168 Ry
     estimated scf accuracy    <          2.2E-09 Ry

     iteration # 20     ecut=    40.00 Ry     beta=0.70
     Davidson diagonalization with overlap
     ethr =  6.65E-12,  avg # of iterations =  1.0

     total cpu time spent up to now is      327.7 secs

     total energy              =     -95.10645168 Ry
     Harris-Foulkes estimate   =     -95.10645168 Ry
     estimated scf accuracy    <          1.6E-09 Ry

     iteration # 21     ecut=    40.00 Ry     beta=0.70
     Davidson diagonalization with overlap
     ethr =  6.65E-12,  avg # of iterations =  2.0

     total cpu time spent up to now is      331.0 secs

     total energy              =     -95.10645168 Ry
     Harris-Foulkes estimate   =     -95.10645168 Ry
     estimated scf accuracy    <          1.3E-10 Ry

     iteration # 22     ecut=    40.00 Ry     beta=0.70
     Davidson diagonalization with overlap
     ethr =  1.50E-12,  avg # of iterations =  1.6

     total cpu time spent up to now is      332.8 secs

     total energy              =     -95.10645168 Ry
     Harris-Foulkes estimate   =     -95.10645168 Ry
     estimated scf accuracy    <          1.8E-10 Ry

     iteration # 23     ecut=    40.00 Ry     beta=0.70
     Davidson diagonalization with overlap
     ethr =  1.50E-12,  avg # of iterations =  2.0

     total cpu time spent up to now is      334.6 secs

     End of self-consistent calculation

     Number of k-points >= 100: set verbosity='high' to print the bands.

     the Fermi energy is     1.9530 ev

!    total energy              =     -95.10645168 Ry
     Harris-Foulkes estimate   =     -95.10645168 Ry
     estimated scf accuracy    <          5.0E-11 Ry

     The total energy is the sum of the following terms:

     one-electron contribution =     -86.38362775 Ry
     hartree contribution      =      43.68862127 Ry
     xc contribution           =     -14.27913480 Ry
     ewald contribution        =     -38.13221378 Ry
     smearing contrib. (-TS)   =      -0.00009662 Ry

     convergence has been achieved in  23 iterations

     Forces acting on atoms (cartesian axes, Ry/au):

     atom    1 type  1   force =     0.00000000    0.00000000    0.00000000

     Total force =     0.000000     Total SCF correction =     0.000000


     Computing stress (Cartesian axis) and pressure

          total   stress  (Ry/bohr**3)                   (kbar)     P=    5.69
   0.00003870  -0.00000000  -0.00000000          5.69     -0.00     -0.00
  -0.00000000   0.00003870   0.00000000         -0.00      5.69      0.00
  -0.00000000   0.00000000   0.00003870         -0.00      0.00      5.69


     number of scf cycles    =   5
     number of bfgs steps    =   4

     enthalpy old            =     -95.0738929597 Ry
     enthalpy new            =     -95.0750479563 Ry

     CASE: enthalpy_new < enthalpy_old

     new trust radius        =       0.0660466506 bohr
     new conv_thr            =            1.0E-10 Ry

     new unit-cell volume =    216.25036 a.u.^3 (    32.04500 Ang^3 )
     density =      1.19132 g/cm^3

CELL_PARAMETERS (alat=  8.00000000)
   0.472652867   0.472652867   0.472652867
  -0.472652867   0.472652867   0.472652867
  -0.472652867  -0.472652867   0.472652867

ATOMIC_POSITIONS (crystal)
Na       0.000000000   0.000000000   0.000000000



     Writing output data file na.bcc.save
     NEW-OLD atomic charge density approx. for the potential
     extrapolated charge    8.38731, renormalised to    9.00000

     total cpu time spent up to now is      336.9 secs

     per-process dynamical memory:    31.4 Mb

     Self-consistent Calculation

     iteration #  1     ecut=    40.00 Ry     beta=0.70
     Davidson diagonalization with overlap
     ethr =  1.00E-06,  avg # of iterations =  5.3

     total cpu time spent up to now is      339.9 secs

     total energy              =     -94.90547969 Ry
     Harris-Foulkes estimate   =     -99.64119308 Ry
     estimated scf accuracy    <       0.11481504 Ry

     iteration #  2     ecut=    40.00 Ry     beta=0.70
     Davidson diagonalization with overlap
     ethr =  1.28E-03,  avg # of iterations =  2.7

     total cpu time spent up to now is      342.0 secs

     total energy              =     -95.10461917 Ry
     Harris-Foulkes estimate   =     -95.18724510 Ry
     estimated scf accuracy    <       0.18658885 Ry

     iteration #  3     ecut=    40.00 Ry     beta=0.70
     Davidson diagonalization with overlap
     ethr =  1.28E-03,  avg # of iterations =  2.0

     total cpu time spent up to now is      343.6 secs

     total energy              =     -95.10583440 Ry
     Harris-Foulkes estimate   =     -95.11891229 Ry
     estimated scf accuracy    <       0.03058256 Ry

     iteration #  4     ecut=    40.00 Ry     beta=0.70
     Davidson diagonalization with overlap
     ethr =  3.40E-04,  avg # of iterations =  1.0

     total cpu time spent up to now is      345.1 secs

     total energy              =     -95.10675149 Ry
     Harris-Foulkes estimate   =     -95.10798668 Ry
     estimated scf accuracy    <       0.00591119 Ry

     iteration #  5     ecut=    40.00 Ry     beta=0.70
     Davidson diagonalization with overlap
     ethr =  6.57E-05,  avg # of iterations =  1.0

     total cpu time spent up to now is      346.5 secs

     total energy              =     -95.10621898 Ry
     Harris-Foulkes estimate   =     -95.10694848 Ry
     estimated scf accuracy    <       0.00322677 Ry

     iteration #  6     ecut=    40.00 Ry     beta=0.70
     Davidson diagonalization with overlap
     ethr =  3.59E-05,  avg # of iterations =  1.0

     total cpu time spent up to now is      348.0 secs

     total energy              =     -95.10495409 Ry
     Harris-Foulkes estimate   =     -95.10626778 Ry
     estimated scf accuracy    <       0.00175231 Ry

     iteration #  7     ecut=    40.00 Ry     beta=0.70
     Davidson diagonalization with overlap
     ethr =  1.95E-05,  avg # of iterations =  2.0

     total cpu time spent up to now is      349.7 secs

     total energy              =     -95.10554083 Ry
     Harris-Foulkes estimate   =     -95.10551587 Ry
     estimated scf accuracy    <       0.00009004 Ry

     iteration #  8     ecut=    40.00 Ry     beta=0.70
     Davidson diagonalization with overlap
     ethr =  1.00E-06,  avg # of iterations =  1.9

     total cpu time spent up to now is      351.2 secs

     total energy              =     -95.10544720 Ry
     Harris-Foulkes estimate   =     -95.10554259 Ry
     estimated scf accuracy    <       0.00014744 Ry

     iteration #  9     ecut=    40.00 Ry     beta=0.70
     Davidson diagonalization with overlap
     ethr =  1.00E-06,  avg # of iterations =  2.0

     total cpu time spent up to now is      353.0 secs

     total energy              =     -95.10547487 Ry
     Harris-Foulkes estimate   =     -95.10547516 Ry
     estimated scf accuracy    <       0.00000036 Ry

     iteration # 10     ecut=    40.00 Ry     beta=0.70
     Davidson diagonalization with overlap
     ethr =  4.00E-09,  avg # of iterations =  2.4

     total cpu time spent up to now is      354.8 secs

     total energy              =     -95.10547486 Ry
     Harris-Foulkes estimate   =     -95.10547530 Ry
     estimated scf accuracy    <       0.00000064 Ry

     iteration # 11     ecut=    40.00 Ry     beta=0.70
     Davidson diagonalization with overlap
     ethr =  4.00E-09,  avg # of iterations =  2.0

     total cpu time spent up to now is      356.5 secs

     total energy              =     -95.10547501 Ry
     Harris-Foulkes estimate   =     -95.10547501 Ry
     estimated scf accuracy    <          2.6E-09 Ry

     iteration # 12     ecut=    40.00 Ry     beta=0.70
     Davidson diagonalization with overlap
     ethr =  2.92E-11,  avg # of iterations =  1.0

     total cpu time spent up to now is      358.0 secs

     total energy              =     -95.10547501 Ry
     Harris-Foulkes estimate   =     -95.10547501 Ry
     estimated scf accuracy    <          1.1E-09 Ry

     iteration # 13     ecut=    40.00 Ry     beta=0.70
     Davidson diagonalization with overlap
     ethr =  1.27E-11,  avg # of iterations =  1.0

     total cpu time spent up to now is      359.4 secs

     total energy              =     -95.10547501 Ry
     Harris-Foulkes estimate   =     -95.10547501 Ry
     estimated scf accuracy    <          1.1E-09 Ry

     iteration # 14     ecut=    40.00 Ry     beta=0.70
     Davidson diagonalization with overlap
     ethr =  1.24E-11,  avg # of iterations =  2.0

     total cpu time spent up to now is      361.1 secs

     End of self-consistent calculation

     Number of k-points >= 100: set verbosity='high' to print the bands.

     the Fermi energy is     2.2626 ev

!    total energy              =     -95.10547501 Ry
     Harris-Foulkes estimate   =     -95.10547501 Ry
     estimated scf accuracy    <          4.2E-11 Ry

     The total energy is the sum of the following terms:

     one-electron contribution =     -84.90197917 Ry
     hartree contribution      =      43.06410685 Ry
     xc contribution           =     -14.28832692 Ry
     ewald contribution        =     -38.97917609 Ry
     smearing contrib. (-TS)   =      -0.00009967 Ry

     convergence has been achieved in  14 iterations

     Forces acting on atoms (cartesian axes, Ry/au):

     atom    1 type  1   force =     0.00000000    0.00000000    0.00000000

     Total force =     0.000000     Total SCF correction =     0.000000


     Computing stress (Cartesian axis) and pressure

          total   stress  (Ry/bohr**3)                   (kbar)     P=   14.06
   0.00009558  -0.00000000  -0.00000000         14.06     -0.00     -0.00
  -0.00000000   0.00009558   0.00000000         -0.00     14.06      0.00
  -0.00000000   0.00000000   0.00009558         -0.00      0.00     14.06


     number of scf cycles    =   6
     number of bfgs steps    =   5

     enthalpy old            =     -95.0750479563 Ry
     enthalpy new            =     -95.0760741995 Ry

     CASE: enthalpy_new < enthalpy_old

     new trust radius        =       0.0430623258 bohr
     new conv_thr            =            1.0E-10 Ry

     new unit-cell volume =    206.88999 a.u.^3 (    30.65793 Ang^3 )
     density =      1.24522 g/cm^3

CELL_PARAMETERS (alat=  8.00000000)
   0.465732464   0.465732464   0.465732464
  -0.465732464   0.465732464   0.465732464
  -0.465732464  -0.465732464   0.465732464

ATOMIC_POSITIONS (crystal)
Na       0.000000000   0.000000000   0.000000000



     Writing output data file na.bcc.save
     NEW-OLD atomic charge density approx. for the potential
     extrapolated charge    8.59310, renormalised to    9.00000

     total cpu time spent up to now is      362.6 secs

     per-process dynamical memory:    31.4 Mb

     Self-consistent Calculation

     iteration #  1     ecut=    40.00 Ry     beta=0.70
     Davidson diagonalization with overlap
     ethr =  1.00E-06,  avg # of iterations =  4.7

     total cpu time spent up to now is      367.8 secs

     total energy              =     -95.01090393 Ry
     Harris-Foulkes estimate   =     -98.09452231 Ry
     estimated scf accuracy    <       0.05310390 Ry

     iteration #  2     ecut=    40.00 Ry     beta=0.70
     Davidson diagonalization with overlap
     ethr =  5.90E-04,  avg # of iterations =  2.9

     total cpu time spent up to now is      403.0 secs

     total energy              =     -95.10469606 Ry
     Harris-Foulkes estimate   =     -95.14329876 Ry
     estimated scf accuracy    <       0.08756716 Ry

     iteration #  3     ecut=    40.00 Ry     beta=0.70
     Davidson diagonalization with overlap
     ethr =  5.90E-04,  avg # of iterations =  2.0

     total cpu time spent up to now is      405.5 secs

     total energy              =     -95.10385804 Ry
     Harris-Foulkes estimate   =     -95.11107163 Ry
     estimated scf accuracy    <       0.01525713 Ry

     iteration #  4     ecut=    40.00 Ry     beta=0.70
     Davidson diagonalization with overlap
     ethr =  1.70E-04,  avg # of iterations =  1.2

     total cpu time spent up to now is      406.9 secs

     total energy              =     -95.10473683 Ry
     Harris-Foulkes estimate   =     -95.10523998 Ry
     estimated scf accuracy    <       0.00207017 Ry

     iteration #  5     ecut=    40.00 Ry     beta=0.70
     Davidson diagonalization with overlap
     ethr =  2.30E-05,  avg # of iterations =  1.1

     total cpu time spent up to now is      408.4 secs

     total energy              =     -95.10476518 Ry
     Harris-Foulkes estimate   =     -95.10484023 Ry
     estimated scf accuracy    <       0.00100809 Ry

     iteration #  6     ecut=    40.00 Ry     beta=0.70
     Davidson diagonalization with overlap
     ethr =  1.12E-05,  avg # of iterations =  1.0

     total cpu time spent up to now is      409.9 secs

     total energy              =     -95.10434871 Ry
     Harris-Foulkes estimate   =     -95.10476878 Ry
     estimated scf accuracy    <       0.00085213 Ry

     iteration #  7     ecut=    40.00 Ry     beta=0.70
     Davidson diagonalization with overlap
     ethr =  9.47E-06,  avg # of iterations =  1.0

     total cpu time spent up to now is      411.8 secs

     total energy              =     -95.10434173 Ry
     Harris-Foulkes estimate   =     -95.10442544 Ry
     estimated scf accuracy    <       0.00010345 Ry

     iteration #  8     ecut=    40.00 Ry     beta=0.70
     Davidson diagonalization with overlap
     ethr =  1.15E-06,  avg # of iterations =  2.2

     total cpu time spent up to now is      413.8 secs

     total energy              =     -95.10437751 Ry
     Harris-Foulkes estimate   =     -95.10439287 Ry
     estimated scf accuracy    <       0.00002381 Ry

     iteration #  9     ecut=    40.00 Ry     beta=0.70
     Davidson diagonalization with overlap
     ethr =  2.65E-07,  avg # of iterations =  2.0

     total cpu time spent up to now is      415.8 secs

     total energy              =     -95.10438199 Ry
     Harris-Foulkes estimate   =     -95.10438205 Ry
     estimated scf accuracy    <       0.00000007 Ry

     iteration # 10     ecut=    40.00 Ry     beta=0.70
     Davidson diagonalization with overlap
     ethr =  8.13E-10,  avg # of iterations =  2.0

     total cpu time spent up to now is      417.8 secs

     total energy              =     -95.10438202 Ry
     Harris-Foulkes estimate   =     -95.10438204 Ry
     estimated scf accuracy    <       0.00000003 Ry

     iteration # 11     ecut=    40.00 Ry     beta=0.70
     Davidson diagonalization with overlap
     ethr =  3.49E-10,  avg # of iterations =  2.0

     total cpu time spent up to now is      421.1 secs

     End of self-consistent calculation

     Number of k-points >= 100: set verbosity='high' to print the bands.

     the Fermi energy is     2.4832 ev

!    total energy              =     -95.10438203 Ry
     Harris-Foulkes estimate   =     -95.10438203 Ry
     estimated scf accuracy    <          3.2E-11 Ry

     The total energy is the sum of the following terms:

     one-electron contribution =     -83.89054052 Ry
     hartree contribution      =      42.63933268 Ry
     xc contribution           =     -14.29469803 Ry
     ewald contribution        =     -39.55837470 Ry
     smearing contrib. (-TS)   =      -0.00010145 Ry

     convergence has been achieved in  11 iterations

     Forces acting on atoms (cartesian axes, Ry/au):

     atom    1 type  1   force =     0.00000000    0.00000000    0.00000000

     Total force =     0.000000     Total SCF correction =     0.000000


     Computing stress (Cartesian axis) and pressure

          total   stress  (Ry/bohr**3)                   (kbar)     P=   20.49
   0.00013928  -0.00000000   0.00000000         20.49     -0.00      0.00
  -0.00000000   0.00013928  -0.00000000         -0.00     20.49     -0.00
   0.00000000  -0.00000000   0.00013928          0.00     -0.00     20.49


     number of scf cycles    =   7
     number of bfgs steps    =   6

     enthalpy old            =     -95.0760741995 Ry
     enthalpy new            =     -95.0762538298 Ry

     CASE: enthalpy_new < enthalpy_old

     new trust radius        =       0.0031591410 bohr
     new conv_thr            =            1.0E-10 Ry

     new unit-cell volume =    207.57234 a.u.^3 (    30.75905 Ang^3 )
     density =      1.24112 g/cm^3

CELL_PARAMETERS (alat=  8.00000000)
   0.466243917   0.466243917   0.466243917
  -0.466243917   0.466243917   0.466243917
  -0.466243917  -0.466243917   0.466243917

ATOMIC_POSITIONS (crystal)
Na       0.000000000   0.000000000   0.000000000



     Writing output data file na.bcc.save
     NEW-OLD atomic charge density approx. for the potential
     extrapolated charge    9.02956, renormalised to    9.00000

     total cpu time spent up to now is      422.6 secs

     per-process dynamical memory:    31.4 Mb

     Self-consistent Calculation

     iteration #  1     ecut=    40.00 Ry     beta=0.70
     Davidson diagonalization with overlap
     ethr =  1.00E-06,  avg # of iterations =  2.0

     total cpu time spent up to now is      424.4 secs

     total energy              =     -95.10390140 Ry
     Harris-Foulkes estimate   =     -94.88502160 Ry
     estimated scf accuracy    <       0.00032126 Ry

     iteration #  2     ecut=    40.00 Ry     beta=0.70
     Davidson diagonalization with overlap
     ethr =  3.57E-06,  avg # of iterations =  3.0

     total cpu time spent up to now is      426.4 secs

     total energy              =     -95.10448697 Ry
     Harris-Foulkes estimate   =     -95.10472310 Ry
     estimated scf accuracy    <       0.00053824 Ry

     iteration #  3     ecut=    40.00 Ry     beta=0.70
     Davidson diagonalization with overlap
     ethr =  3.57E-06,  avg # of iterations =  1.5

     total cpu time spent up to now is      427.8 secs

     total energy              =     -95.10449081 Ry
     Harris-Foulkes estimate   =     -95.10452214 Ry
     estimated scf accuracy    <       0.00010539 Ry

     iteration #  4     ecut=    40.00 Ry     beta=0.70
     Davidson diagonalization with overlap
     ethr =  1.17E-06,  avg # of iterations =  1.0

     total cpu time spent up to now is      429.2 secs

     total energy              =     -95.10448139 Ry
     Harris-Foulkes estimate   =     -95.10449473 Ry
     estimated scf accuracy    <       0.00004119 Ry

     iteration #  5     ecut=    40.00 Ry     beta=0.70
     Davidson diagonalization with overlap
     ethr =  4.58E-07,  avg # of iterations =  1.0

     total cpu time spent up to now is      430.5 secs

     total energy              =     -95.10447744 Ry
     Harris-Foulkes estimate   =     -95.10448278 Ry
     estimated scf accuracy    <       0.00001530 Ry

     iteration #  6     ecut=    40.00 Ry     beta=0.70
     Davidson diagonalization with overlap
     ethr =  1.70E-07,  avg # of iterations =  1.0

     total cpu time spent up to now is      431.9 secs

     total energy              =     -95.10447571 Ry
     Harris-Foulkes estimate   =     -95.10447803 Ry
     estimated scf accuracy    <       0.00000508 Ry

     iteration #  7     ecut=    40.00 Ry     beta=0.70
     Davidson diagonalization with overlap
     ethr =  5.65E-08,  avg # of iterations =  1.0

     total cpu time spent up to now is      433.2 secs

     total energy              =     -95.10447558 Ry
     Harris-Foulkes estimate   =     -95.10447608 Ry
     estimated scf accuracy    <       0.00000088 Ry

     iteration #  8     ecut=    40.00 Ry     beta=0.70
     Davidson diagonalization with overlap
     ethr =  9.73E-09,  avg # of iterations =  2.0

     total cpu time spent up to now is      434.8 secs

     total energy              =     -95.10447570 Ry
     Harris-Foulkes estimate   =     -95.10447572 Ry
     estimated scf accuracy    <       0.00000004 Ry

     iteration #  9     ecut=    40.00 Ry     beta=0.70
     Davidson diagonalization with overlap
     ethr =  4.69E-10,  avg # of iterations =  1.0

     total cpu time spent up to now is      436.1 secs

     total energy              =     -95.10447570 Ry
     Harris-Foulkes estimate   =     -95.10447570 Ry
     estimated scf accuracy    <       0.00000001 Ry

     iteration # 10     ecut=    40.00 Ry     beta=0.70
     Davidson diagonalization with overlap
     ethr =  1.18E-10,  avg # of iterations =  1.0

     total cpu time spent up to now is      437.4 secs

     total energy              =     -95.10447570 Ry
     Harris-Foulkes estimate   =     -95.10447570 Ry
     estimated scf accuracy    <          7.3E-09 Ry

     iteration # 11     ecut=    40.00 Ry     beta=0.70
     Davidson diagonalization with overlap
     ethr =  8.15E-11,  avg # of iterations =  2.0

     total cpu time spent up to now is      439.0 secs

     End of self-consistent calculation

     Number of k-points >= 100: set verbosity='high' to print the bands.

     the Fermi energy is     2.4664 ev

!    total energy              =     -95.10447570 Ry
     Harris-Foulkes estimate   =     -95.10447570 Ry
     estimated scf accuracy    <          1.7E-11 Ry

     The total energy is the sum of the following terms:

     one-electron contribution =     -83.96623621 Ry
     hartree contribution      =      42.67105350 Ry
     xc contribution           =     -14.29421110 Ry
     ewald contribution        =     -39.51498057 Ry
     smearing contrib. (-TS)   =      -0.00010133 Ry

     convergence has been achieved in  11 iterations

     Forces acting on atoms (cartesian axes, Ry/au):

     atom    1 type  1   force =     0.00000000    0.00000000    0.00000000

     Total force =     0.000000     Total SCF correction =     0.000000


     Computing stress (Cartesian axis) and pressure

          total   stress  (Ry/bohr**3)                   (kbar)     P=   19.91
   0.00013534   0.00000000  -0.00000000         19.91      0.00     -0.00
  -0.00000000   0.00013534   0.00000000         -0.00     19.91      0.00
  -0.00000000   0.00000000   0.00013534         -0.00      0.00     19.91


     bfgs converged in   8 scf cycles and   7 bfgs steps
     (criteria: energy <  1.0E-04 Ry, force <  1.0E-03Ry/Bohr, cell <  5.0E-01kbar)

     End of BFGS Geometry Optimization

     Final enthalpy =     -95.0762547314 Ry
Begin final coordinates
     new unit-cell volume =    207.57234 a.u.^3 (    30.75905 Ang^3 )
     density =      1.24112 g/cm^3

CELL_PARAMETERS (alat=  8.00000000)
   0.466243917   0.466243917   0.466243917
  -0.466243917   0.466243917   0.466243917
  -0.466243917  -0.466243917   0.466243917

ATOMIC_POSITIONS (crystal)
Na       0.000000000   0.000000000   0.000000000
End final coordinates



     A final scf calculation at the relaxed structure.
     The G-vectors are recalculated for the final unit cell
     Results may differ from those at the preceding step.

     Parallelization info
     --------------------
     sticks:   dense  smooth     PW     G-vecs:    dense   smooth      PW
     Min         251     121     41                 5028     1752     322
     Max         252     123     42                 5029     1754     323
     Sum        1007     487    165                20113     7011    1289



     bravais-lattice index     =            3
     lattice parameter (alat)  =       8.0000  a.u.
     unit-cell volume          =     207.5723 (a.u.)^3
     number of atoms/cell      =            1
     number of atomic types    =            1
     number of electrons       =         9.00
     number of Kohn-Sham states=            9
     kinetic-energy cutoff     =      40.0000  Ry
     charge density cutoff     =     320.0000  Ry
     convergence threshold     =      1.0E-10
     mixing beta               =       0.7000
     number of iterations used =            8  plain     mixing
     Exchange-correlation      = SLA  PW   PBE  PBE ( 1  4  3  4 0 0)

     celldm(1)=   8.000000  celldm(2)=   0.000000  celldm(3)=   0.000000
     celldm(4)=   0.000000  celldm(5)=   0.000000  celldm(6)=   0.000000

     crystal axes: (cart. coord. in units of alat)
               a(1) = (   0.466244   0.466244   0.466244 )  
               a(2) = (  -0.466244   0.466244   0.466244 )  
               a(3) = (  -0.466244  -0.466244   0.466244 )  

     reciprocal axes: (cart. coord. in units 2 pi/alat)
               b(1) = (  1.072400 -0.000000  1.072400 )  
               b(2) = ( -1.072400  1.072400  0.000000 )  
               b(3) = (  0.000000 -1.072400  1.072400 )  


     PseudoPot. # 1 for Na read from file:
     /home/s1333534/quantum_espresso/qe-6.1/pseudo/Na_pbe_v1.uspp.F.UPF
     MD5 check sum: 76a99c7e9422403d3e93cbc85ab7bccb
     Pseudo is Ultrasoft, Zval =  9.0
     Generated by new atomic code, or converted to UPF format
     Using radial grid of  819 points,  5 beta functions with: 
                l(1) =   0
                l(2) =   0
                l(3) =   1
                l(4) =   1
                l(5) =   2
     Q(r) pseudized with  8 coefficients,  rinner =    1.250   1.250   1.250
                                                       1.250   1.250

     atomic species   valence    mass     pseudopotential
        Na             9.00    22.99000     Na( 1.00)

     48 Sym. Ops., with inversion, found



   Cartesian axes

     site n.     atom                  positions (alat units)
         1           Na  tau(   1) = (   0.0000000   0.0000000   0.0000000  )

     number of k points=   250  Marzari-Vanderbilt smearing, width (Ry)=  0.0200

     Number of k-points >= 100: set verbosity='high' to print them.

     Dense  grid:    20113 G-vectors     FFT dimensions: (  40,  40,  40)

     Smooth grid:     7011 G-vectors     FFT dimensions: (  25,  25,  25)

     Estimated max dynamical RAM per process >      11.03MB

     Estimated total allocated dynamical RAM >      44.13MB

     Initial potential from superposition of free atoms

     starting charge    8.99371, renormalised to    9.00000
     Starting wfc are    5 randomized atomic wfcs +    4 random wfc

     Writing output data file na.bcc.save

     total cpu time spent up to now is      440.9 secs

     per-process dynamical memory:    23.1 Mb

     Self-consistent Calculation

     iteration #  1     ecut=    40.00 Ry     beta=0.70
     Davidson diagonalization with overlap
     c_bands:  1 eigenvalues not converged
     c_bands:  1 eigenvalues not converged
     c_bands:  1 eigenvalues not converged
     c_bands:  1 eigenvalues not converged
     c_bands:  1 eigenvalues not converged
     ethr =  1.00E-06,  avg # of iterations = 11.6

     total cpu time spent up to now is      444.1 secs

     total energy              =     -95.10390238 Ry
     Harris-Foulkes estimate   =     -95.10421579 Ry
     estimated scf accuracy    <       0.00099811 Ry

     iteration #  2     ecut=    40.00 Ry     beta=0.70
     Davidson diagonalization with overlap
     ethr =  1.11E-05,  avg # of iterations =  2.0

     total cpu time spent up to now is      445.2 secs

     total energy              =     -95.10402921 Ry
     Harris-Foulkes estimate   =     -95.10405824 Ry
     estimated scf accuracy    <       0.00011453 Ry

     iteration #  3     ecut=    40.00 Ry     beta=0.70
     Davidson diagonalization with overlap
     ethr =  1.27E-06,  avg # of iterations =  2.0

     total cpu time spent up to now is      446.3 secs

     total energy              =     -95.10404195 Ry
     Harris-Foulkes estimate   =     -95.10404327 Ry
     estimated scf accuracy    <       0.00000709 Ry

     iteration #  4     ecut=    40.00 Ry     beta=0.70
     Davidson diagonalization with overlap
     ethr =  7.88E-08,  avg # of iterations =  1.0

     total cpu time spent up to now is      447.3 secs

     total energy              =     -95.10404257 Ry
     Harris-Foulkes estimate   =     -95.10404252 Ry
     estimated scf accuracy    <          8.9E-09 Ry

     iteration #  5     ecut=    40.00 Ry     beta=0.70
     Davidson diagonalization with overlap
     ethr =  9.94E-11,  avg # of iterations =  3.0

     total cpu time spent up to now is      448.6 secs

     total energy              =     -95.10404260 Ry
     Harris-Foulkes estimate   =     -95.10404259 Ry
     estimated scf accuracy    <          1.2E-09 Ry

     iteration #  6     ecut=    40.00 Ry     beta=0.70
     Davidson diagonalization with overlap
     ethr =  1.33E-11,  avg # of iterations =  1.6

     total cpu time spent up to now is      449.6 secs

     End of self-consistent calculation

     Number of k-points >= 100: set verbosity='high' to print the bands.

     the Fermi energy is     2.4657 ev

!    total energy              =     -95.10404260 Ry
     Harris-Foulkes estimate   =     -95.10404260 Ry
     estimated scf accuracy    <          6.0E-11 Ry

     The total energy is the sum of the following terms:

     one-electron contribution =     -83.96524526 Ry
     hartree contribution      =      42.67020130 Ry
     xc contribution           =     -14.29391675 Ry
     ewald contribution        =     -39.51498057 Ry
     smearing contrib. (-TS)   =      -0.00010132 Ry

     convergence has been achieved in   6 iterations

     Forces acting on atoms (cartesian axes, Ry/au):

     atom    1 type  1   force =     0.00000000    0.00000000    0.00000000

     Total force =     0.000000     Total SCF correction =     0.000000


     Computing stress (Cartesian axis) and pressure

          total   stress  (Ry/bohr**3)                   (kbar)     P=   16.86
   0.00011462  -0.00000000   0.00000000         16.86     -0.00      0.00
  -0.00000000   0.00011462   0.00000000         -0.00     16.86      0.00
   0.00000000   0.00000000   0.00011462          0.00      0.00     16.86


     Writing output data file na.bcc.save

     init_run     :      1.52s CPU      1.63s WALL (       2 calls)
     electrons    :    360.57s CPU    435.73s WALL (       9 calls)
     update_pot   :      1.68s CPU      1.72s WALL (       7 calls)
     forces       :      1.38s CPU      1.40s WALL (       9 calls)
     stress       :      6.54s CPU      6.63s WALL (       9 calls)

     Called by init_run:
     wfcinit      :      0.84s CPU      0.92s WALL (       2 calls)
     potinit      :      0.10s CPU      0.11s WALL (       2 calls)

     Called by electrons:
     c_bands      :    295.01s CPU    357.49s WALL (     112 calls)
     sum_band     :     61.73s CPU     74.04s WALL (     112 calls)
     v_of_rho     :      1.65s CPU      1.80s WALL (     120 calls)
     newd         :      1.88s CPU      2.00s WALL (     120 calls)
     mix_rho      :      0.29s CPU      0.35s WALL (     112 calls)

     Called by c_bands:
     init_us_2    :      7.49s CPU      7.64s WALL (   61000 calls)
     cegterg      :    283.03s CPU    343.81s WALL (   28000 calls)

     Called by sum_band:
     sum_band:bec :      0.04s CPU      0.10s WALL (   28000 calls)
     addusdens    :      2.23s CPU      2.33s WALL (     112 calls)

     Called by *egterg:
     h_psi        :    227.60s CPU    275.69s WALL (   83543 calls)
     s_psi        :      1.53s CPU      1.34s WALL (   83543 calls)
     g_psi        :      0.75s CPU      0.83s WALL (   55043 calls)
     cdiaghg      :     24.66s CPU     30.10s WALL (   81043 calls)

     Called by h_psi:
     h_psi:pot    :    227.19s CPU    275.07s WALL (   83543 calls)
     h_psi:calbec :     10.07s CPU     12.32s WALL (   83543 calls)
     vloc_psi     :    215.90s CPU    261.13s WALL (   83543 calls)
     add_vuspsi   :      1.08s CPU      1.42s WALL (   83543 calls)

     General routines
     calbec       :     14.89s CPU     18.49s WALL (  122793 calls)
     fft          :      1.20s CPU      1.37s WALL (    1967 calls)
     ffts         :      0.04s CPU      0.05s WALL (     232 calls)
     fftw         :    257.04s CPU    306.33s WALL ( 1489660 calls)
     interpolate  :      0.16s CPU      0.17s WALL (     232 calls)
     davcio       :      0.00s CPU      0.01s WALL (     500 calls)

     Parallel routines
     fft_scatter  :    160.59s CPU    209.19s WALL ( 1491859 calls)

     PWSCF        :  6m14.00s CPU     7m30.39s WALL


   This run was terminated on:  15:41:58  20Dec2017            

=------------------------------------------------------------------------------=
   JOB DONE.
=------------------------------------------------------------------------------=
