
     Program PWSCF v.6.1 (svn rev. 13369) starts on 20Dec2017 at 15:57:21 

     This program is part of the open-source Quantum ESPRESSO suite
     for quantum simulation of materials; please cite
         "P. Giannozzi et al., J. Phys.:Condens. Matter 21 395502 (2009);
          URL http://www.quantum-espresso.org", 
     in publications or presentations arising from this work. More details at
     http://www.quantum-espresso.org/quote

     Parallel version (MPI), running on     4 processors
     R & G space division:  proc/nbgrp/npool/nimage =       4
     Waiting for input...
     Reading input from standard input

     Current dimensions of program PWSCF are:
     Max number of different atomic species (ntypx) = 10
     Max number of k-points (npk) =  40000
     Max angular momentum in pseudopotentials (lmaxx) =  3

     Subspace diagonalization in iterative solution of the eigenvalue problem:
     a serial algorithm will be used


     Parallelization info
     --------------------
     sticks:   dense  smooth     PW     G-vecs:    dense   smooth      PW
     Min         287     142     43                 6207     2171     375
     Max         288     144     44                 6210     2172     378
     Sum        1151     571    173                24835     8685    1505



     bravais-lattice index     =            3
     lattice parameter (alat)  =       8.0000  a.u.
     unit-cell volume          =     256.0000 (a.u.)^3
     number of atoms/cell      =            1
     number of atomic types    =            1
     number of electrons       =         9.00
     number of Kohn-Sham states=            9
     kinetic-energy cutoff     =      40.0000  Ry
     charge density cutoff     =     320.0000  Ry
     convergence threshold     =      1.0E-08
     mixing beta               =       0.7000
     number of iterations used =            8  plain     mixing
     Exchange-correlation      = SLA  PW   PBE  PBE ( 1  4  3  4 0 0)
     nstep                     =           50


     celldm(1)=   8.000000  celldm(2)=   0.000000  celldm(3)=   0.000000
     celldm(4)=   0.000000  celldm(5)=   0.000000  celldm(6)=   0.000000

     crystal axes: (cart. coord. in units of alat)
               a(1) = (   0.500000   0.500000   0.500000 )  
               a(2) = (  -0.500000   0.500000   0.500000 )  
               a(3) = (  -0.500000  -0.500000   0.500000 )  

     reciprocal axes: (cart. coord. in units 2 pi/alat)
               b(1) = (  1.000000  0.000000  1.000000 )  
               b(2) = ( -1.000000  1.000000  0.000000 )  
               b(3) = (  0.000000 -1.000000  1.000000 )  


     PseudoPot. # 1 for Na read from file:
     /home/s1333534/quantum_espresso/qe-6.1/pseudo/Na_pbe_v1.uspp.F.UPF
     MD5 check sum: 76a99c7e9422403d3e93cbc85ab7bccb
     Pseudo is Ultrasoft, Zval =  9.0
     Generated by new atomic code, or converted to UPF format
     Using radial grid of  819 points,  5 beta functions with: 
                l(1) =   0
                l(2) =   0
                l(3) =   1
                l(4) =   1
                l(5) =   2
     Q(r) pseudized with  8 coefficients,  rinner =    1.250   1.250   1.250
                                                       1.250   1.250

     atomic species   valence    mass     pseudopotential
        Na             9.00    22.99000     Na( 1.00)

     48 Sym. Ops., with inversion, found



   Cartesian axes

     site n.     atom                  positions (alat units)
         1           Na  tau(   1) = (   0.0000000   0.0000000   0.0000000  )

     number of k points=   250  Marzari-Vanderbilt smearing, width (Ry)=  0.0200

     Number of k-points >= 100: set verbosity='high' to print them.

     Dense  grid:    24835 G-vectors     FFT dimensions: (  40,  40,  40)

     Smooth grid:     8685 G-vectors     FFT dimensions: (  27,  27,  27)

     Estimated max dynamical RAM per process >      13.36MB

     Estimated total allocated dynamical RAM >      53.44MB

     Initial potential from superposition of free atoms

     starting charge    8.99371, renormalised to    9.00000
     Starting wfc are    5 randomized atomic wfcs +    4 random wfc

     total cpu time spent up to now is        1.0 secs

     per-process dynamical memory:    19.6 Mb

     Self-consistent Calculation

     iteration #  1     ecut=    40.00 Ry     beta=0.70
     Davidson diagonalization with overlap
     ethr =  1.00E-02,  avg # of iterations =  5.8

     Threshold (ethr) on eigenvalues was too large:
     Diagonalizing with lowered threshold

     Davidson diagonalization with overlap
     ethr =  9.84E-06,  avg # of iterations =  4.8

     total cpu time spent up to now is        5.6 secs

     total energy              =     -95.10637787 Ry
     Harris-Foulkes estimate   =     -95.10656725 Ry
     estimated scf accuracy    <       0.00088332 Ry

     iteration #  2     ecut=    40.00 Ry     beta=0.70
     Davidson diagonalization with overlap
     ethr =  9.81E-06,  avg # of iterations =  2.0

     total cpu time spent up to now is        7.1 secs

     total energy              =     -95.10647616 Ry
     Harris-Foulkes estimate   =     -95.10649624 Ry
     estimated scf accuracy    <       0.00009724 Ry

     iteration #  3     ecut=    40.00 Ry     beta=0.70
     Davidson diagonalization with overlap
     ethr =  1.08E-06,  avg # of iterations =  2.1

     total cpu time spent up to now is        8.7 secs

     total energy              =     -95.10648758 Ry
     Harris-Foulkes estimate   =     -95.10648858 Ry
     estimated scf accuracy    <       0.00000602 Ry

     iteration #  4     ecut=    40.00 Ry     beta=0.70
     Davidson diagonalization with overlap
     ethr =  6.69E-08,  avg # of iterations =  1.0

     total cpu time spent up to now is       10.0 secs

     total energy              =     -95.10648815 Ry
     Harris-Foulkes estimate   =     -95.10648811 Ry
     estimated scf accuracy    <       0.00000001 Ry

     iteration #  5     ecut=    40.00 Ry     beta=0.70
     Davidson diagonalization with overlap
     ethr =  1.40E-10,  avg # of iterations =  3.0

     total cpu time spent up to now is       11.9 secs

     End of self-consistent calculation

     Number of k-points >= 100: set verbosity='high' to print the bands.

     the Fermi energy is     1.5119 ev

!    total energy              =     -95.10648818 Ry
     Harris-Foulkes estimate   =     -95.10648818 Ry
     estimated scf accuracy    <          1.7E-09 Ry

     The total energy is the sum of the following terms:

     one-electron contribution =     -88.63767028 Ry
     hartree contribution      =      44.64403185 Ry
     xc contribution           =     -14.26551967 Ry
     ewald contribution        =     -36.84723868 Ry
     smearing contrib. (-TS)   =      -0.00009141 Ry

     convergence has been achieved in   5 iterations

     Forces acting on atoms (cartesian axes, Ry/au):

     atom    1 type  1   force =     0.00000000    0.00000000    0.00000000

     Total force =     0.000000     Total SCF correction =     0.000000


     Computing stress (Cartesian axis) and pressure

          total   stress  (Ry/bohr**3)                   (kbar)     P=   -4.40
  -0.00002994  -0.00000000   0.00000000         -4.40     -0.00      0.00
  -0.00000000  -0.00002994   0.00000000         -0.00     -4.40      0.00
   0.00000000   0.00000000  -0.00002994          0.00      0.00     -4.40


     BFGS Geometry Optimization

     number of scf cycles    =   1
     number of bfgs steps    =   0

     enthalpy new            =     -94.9672679509 Ry

     new trust radius        =       0.0459015264 bohr
     new conv_thr            =       0.0000000100 Ry

     new unit-cell volume =    245.14090 a.u.^3 (    36.32613 Ang^3 )
     density =      1.05092 g/cm^3

CELL_PARAMETERS (alat=  8.00000000)
   0.492827886   0.492827886   0.492827886
  -0.492827886   0.492827886   0.492827886
  -0.492827886  -0.492827886   0.492827886

ATOMIC_POSITIONS (crystal)
Na       0.000000000   0.000000000   0.000000000



     Writing output data file na.bcc.save
     NEW-OLD atomic charge density approx. for the potential
     extrapolated charge    8.60160, renormalised to    9.00000

     total cpu time spent up to now is       13.3 secs

     per-process dynamical memory:    31.4 Mb

     Self-consistent Calculation

     iteration #  1     ecut=    40.00 Ry     beta=0.70
     Davidson diagonalization with overlap
     c_bands:  1 eigenvalues not converged
     ethr =  1.00E-06,  avg # of iterations =  5.0

     total cpu time spent up to now is       16.0 secs

     total energy              =     -95.01534186 Ry
     Harris-Foulkes estimate   =     -98.17654167 Ry
     estimated scf accuracy    <       0.05172121 Ry

     iteration #  2     ecut=    40.00 Ry     beta=0.70
     Davidson diagonalization with overlap
     ethr =  5.75E-04,  avg # of iterations =  2.8

     total cpu time spent up to now is       18.0 secs

     total energy              =     -95.10703141 Ry
     Harris-Foulkes estimate   =     -95.14467435 Ry
     estimated scf accuracy    <       0.08534510 Ry

     iteration #  3     ecut=    40.00 Ry     beta=0.70
     Davidson diagonalization with overlap
     ethr =  5.75E-04,  avg # of iterations =  2.0

     total cpu time spent up to now is       19.6 secs

     total energy              =     -95.10678637 Ry
     Harris-Foulkes estimate   =     -95.11326969 Ry
     estimated scf accuracy    <       0.01478544 Ry

     iteration #  4     ecut=    40.00 Ry     beta=0.70
     Davidson diagonalization with overlap
     ethr =  1.64E-04,  avg # of iterations =  1.0

     total cpu time spent up to now is       20.9 secs

     total energy              =     -95.10778177 Ry
     Harris-Foulkes estimate   =     -95.10784594 Ry
     estimated scf accuracy    <       0.00273319 Ry

     iteration #  5     ecut=    40.00 Ry     beta=0.70
     Davidson diagonalization with overlap
     ethr =  3.04E-05,  avg # of iterations =  1.1

     total cpu time spent up to now is       22.3 secs

     total energy              =     -95.10690821 Ry
     Harris-Foulkes estimate   =     -95.10783027 Ry
     estimated scf accuracy    <       0.00264271 Ry

     iteration #  6     ecut=    40.00 Ry     beta=0.70
     Davidson diagonalization with overlap
     ethr =  2.94E-05,  avg # of iterations =  1.0

     total cpu time spent up to now is       23.6 secs

     total energy              =     -95.10680581 Ry
     Harris-Foulkes estimate   =     -95.10703763 Ry
     estimated scf accuracy    <       0.00079624 Ry

     iteration #  7     ecut=    40.00 Ry     beta=0.70
     Davidson diagonalization with overlap
     ethr =  8.85E-06,  avg # of iterations =  1.0

     total cpu time spent up to now is       25.0 secs

     total energy              =     -95.10674452 Ry
     Harris-Foulkes estimate   =     -95.10683249 Ry
     estimated scf accuracy    <       0.00032102 Ry

     iteration #  8     ecut=    40.00 Ry     beta=0.70
     Davidson diagonalization with overlap
     ethr =  3.57E-06,  avg # of iterations =  1.1

     total cpu time spent up to now is       26.3 secs

     total energy              =     -95.10666026 Ry
     Harris-Foulkes estimate   =     -95.10675264 Ry
     estimated scf accuracy    <       0.00014433 Ry

     iteration #  9     ecut=    40.00 Ry     beta=0.70
     Davidson diagonalization with overlap
     ethr =  1.60E-06,  avg # of iterations =  2.1

     total cpu time spent up to now is       27.9 secs

     total energy              =     -95.10668586 Ry
     Harris-Foulkes estimate   =     -95.10668643 Ry
     estimated scf accuracy    <       0.00000083 Ry

     iteration # 10     ecut=    40.00 Ry     beta=0.70
     Davidson diagonalization with overlap
     ethr =  9.23E-09,  avg # of iterations =  2.0

     total cpu time spent up to now is       29.6 secs

     End of self-consistent calculation

     Number of k-points >= 100: set verbosity='high' to print the bands.

     the Fermi energy is     1.6918 ev

!    total energy              =     -95.10668609 Ry
     Harris-Foulkes estimate   =     -95.10668610 Ry
     estimated scf accuracy    <          4.8E-09 Ry

     The total energy is the sum of the following terms:

     one-electron contribution =     -87.69638770 Ry
     hartree contribution      =      44.24448409 Ry
     xc contribution           =     -14.27121310 Ry
     ewald contribution        =     -37.38347574 Ry
     smearing contrib. (-TS)   =      -0.00009363 Ry

     convergence has been achieved in  10 iterations

     Forces acting on atoms (cartesian axes, Ry/au):

     atom    1 type  1   force =     0.00000000    0.00000000    0.00000000

     Total force =     0.000000     Total SCF correction =     0.000000


     Computing stress (Cartesian axis) and pressure

          total   stress  (Ry/bohr**3)                   (kbar)     P=   -0.07
  -0.00000050  -0.00000000  -0.00000000         -0.07     -0.00     -0.00
  -0.00000000  -0.00000050  -0.00000000         -0.00     -0.07     -0.00
  -0.00000000   0.00000000  -0.00000050         -0.00      0.00     -0.07


     number of scf cycles    =   2
     number of bfgs steps    =   1

     enthalpy old            =     -94.9672679509 Ry
     enthalpy new            =     -94.9733713519 Ry

     CASE: enthalpy_new < enthalpy_old


     WARNING: bfgs curvature condition failed, Theta= 0.868
     new trust radius        =       0.0683566895 bohr
     new conv_thr            =            1.0E-10 Ry

     new unit-cell volume =    229.43491 a.u.^3 (    33.99875 Ang^3 )
     density =      1.12286 g/cm^3

CELL_PARAMETERS (alat=  8.00000000)
   0.482069716   0.482069716   0.482069716
  -0.482069716   0.482069716   0.482069716
  -0.482069716  -0.482069716   0.482069716

ATOMIC_POSITIONS (crystal)
Na       0.000000000   0.000000000   0.000000000



     Writing output data file na.bcc.save
     NEW-OLD atomic charge density approx. for the potential
     extrapolated charge    8.38433, renormalised to    9.00000

     total cpu time spent up to now is       31.0 secs

     per-process dynamical memory:    31.4 Mb

     Self-consistent Calculation

     iteration #  1     ecut=    40.00 Ry     beta=0.70
     Davidson diagonalization with overlap
     ethr =  1.00E-06,  avg # of iterations =  5.4

     total cpu time spent up to now is       33.8 secs

     total energy              =     -94.90346508 Ry
     Harris-Foulkes estimate   =     -99.73969108 Ry
     estimated scf accuracy    <       0.11635760 Ry

     iteration #  2     ecut=    40.00 Ry     beta=0.70
     Davidson diagonalization with overlap
     ethr =  1.29E-03,  avg # of iterations =  2.7

     total cpu time spent up to now is       35.8 secs

     total energy              =     -95.10550985 Ry
     Harris-Foulkes estimate   =     -95.18928691 Ry
     estimated scf accuracy    <       0.18913663 Ry

     iteration #  3     ecut=    40.00 Ry     beta=0.70
     Davidson diagonalization with overlap
     ethr =  1.29E-03,  avg # of iterations =  2.0

     total cpu time spent up to now is       37.4 secs

     total energy              =     -95.10718088 Ry
     Harris-Foulkes estimate   =     -95.12003570 Ry
     estimated scf accuracy    <       0.03089278 Ry

     iteration #  4     ecut=    40.00 Ry     beta=0.70
     Davidson diagonalization with overlap
     ethr =  3.43E-04,  avg # of iterations =  1.0

     total cpu time spent up to now is       38.7 secs

     total energy              =     -95.10781324 Ry
     Harris-Foulkes estimate   =     -95.10917886 Ry
     estimated scf accuracy    <       0.00653972 Ry

     iteration #  5     ecut=    40.00 Ry     beta=0.70
     Davidson diagonalization with overlap
     ethr =  7.27E-05,  avg # of iterations =  1.0

     total cpu time spent up to now is       40.0 secs

     total energy              =     -95.10713697 Ry
     Harris-Foulkes estimate   =     -95.10801138 Ry
     estimated scf accuracy    <       0.00353359 Ry

     iteration #  6     ecut=    40.00 Ry     beta=0.70
     Davidson diagonalization with overlap
     ethr =  3.93E-05,  avg # of iterations =  1.0

     total cpu time spent up to now is       41.4 secs

     total energy              =     -95.10585726 Ry
     Harris-Foulkes estimate   =     -95.10719822 Ry
     estimated scf accuracy    <       0.00179350 Ry

     iteration #  7     ecut=    40.00 Ry     beta=0.70
     Davidson diagonalization with overlap
     ethr =  1.99E-05,  avg # of iterations =  2.0

     total cpu time spent up to now is       43.0 secs

     total energy              =     -95.10644919 Ry
     Harris-Foulkes estimate   =     -95.10642597 Ry
     estimated scf accuracy    <       0.00008573 Ry

     iteration #  8     ecut=    40.00 Ry     beta=0.70
     Davidson diagonalization with overlap
     ethr =  9.53E-07,  avg # of iterations =  2.1

     total cpu time spent up to now is       44.5 secs

     total energy              =     -95.10636156 Ry
     Harris-Foulkes estimate   =     -95.10645087 Ry
     estimated scf accuracy    <       0.00013922 Ry

     iteration #  9     ecut=    40.00 Ry     beta=0.70
     Davidson diagonalization with overlap
     ethr =  9.53E-07,  avg # of iterations =  2.0

     total cpu time spent up to now is       46.1 secs

     total energy              =     -95.10638685 Ry
     Harris-Foulkes estimate   =     -95.10638731 Ry
     estimated scf accuracy    <       0.00000054 Ry

     iteration # 10     ecut=    40.00 Ry     beta=0.70
     Davidson diagonalization with overlap
     ethr =  5.96E-09,  avg # of iterations =  2.0

     total cpu time spent up to now is       47.7 secs

     total energy              =     -95.10638697 Ry
     Harris-Foulkes estimate   =     -95.10638728 Ry
     estimated scf accuracy    <       0.00000044 Ry

     iteration # 11     ecut=    40.00 Ry     beta=0.70
     Davidson diagonalization with overlap
     ethr =  4.87E-09,  avg # of iterations =  2.0

     total cpu time spent up to now is       49.3 secs

     total energy              =     -95.10638708 Ry
     Harris-Foulkes estimate   =     -95.10638708 Ry
     estimated scf accuracy    <          8.6E-09 Ry

     iteration # 12     ecut=    40.00 Ry     beta=0.70
     Davidson diagonalization with overlap
     ethr =  9.54E-11,  avg # of iterations =  1.0

     total cpu time spent up to now is       50.6 secs

     total energy              =     -95.10638708 Ry
     Harris-Foulkes estimate   =     -95.10638708 Ry
     estimated scf accuracy    <          3.0E-09 Ry

     iteration # 13     ecut=    40.00 Ry     beta=0.70
     Davidson diagonalization with overlap
     ethr =  3.31E-11,  avg # of iterations =  1.0

     total cpu time spent up to now is       52.0 secs

     total energy              =     -95.10638708 Ry
     Harris-Foulkes estimate   =     -95.10638708 Ry
     estimated scf accuracy    <          2.0E-09 Ry

     iteration # 14     ecut=    40.00 Ry     beta=0.70
     Davidson diagonalization with overlap
     ethr =  2.20E-11,  avg # of iterations =  1.9

     total cpu time spent up to now is       53.4 secs

     End of self-consistent calculation

     Number of k-points >= 100: set verbosity='high' to print the bands.

     the Fermi energy is     1.9836 ev

!    total energy              =     -95.10638708 Ry
     Harris-Foulkes estimate   =     -95.10638708 Ry
     estimated scf accuracy    <          8.4E-11 Ry

     The total energy is the sum of the following terms:

     one-electron contribution =     -86.23390884 Ry
     hartree contribution      =      43.62543592 Ry
     xc contribution           =     -14.28006835 Ry
     ewald contribution        =     -38.21774885 Ry
     smearing contrib. (-TS)   =      -0.00009695 Ry

     convergence has been achieved in  14 iterations

     Forces acting on atoms (cartesian axes, Ry/au):

     atom    1 type  1   force =     0.00000000    0.00000000    0.00000000

     Total force =     0.000000     Total SCF correction =     0.000000


     Computing stress (Cartesian axis) and pressure

          total   stress  (Ry/bohr**3)                   (kbar)     P=    6.61
   0.00004490   0.00000000  -0.00000000          6.61      0.00     -0.00
   0.00000000   0.00004490   0.00000000          0.00      6.61      0.00
  -0.00000000   0.00000000   0.00004490         -0.00      0.00      6.61


     number of scf cycles    =   3
     number of bfgs steps    =   2

     enthalpy old            =     -94.9733713519 Ry
     enthalpy new            =     -94.9816137139 Ry

     CASE: enthalpy_new < enthalpy_old

     new trust radius        =       0.1014097165 bohr
     new conv_thr            =            1.0E-10 Ry

     new unit-cell volume =    207.15664 a.u.^3 (    30.69745 Ang^3 )
     density =      1.24361 g/cm^3

CELL_PARAMETERS (alat=  8.00000000)
   0.465932460   0.465932460   0.465932460
  -0.465932460   0.465932460   0.465932460
  -0.465932460  -0.465932460   0.465932460

ATOMIC_POSITIONS (crystal)
Na       0.000000000   0.000000000   0.000000000



     Writing output data file na.bcc.save
     NEW-OLD atomic charge density approx. for the potential
     extrapolated charge    8.03279, renormalised to    9.00000

     total cpu time spent up to now is       54.8 secs

     per-process dynamical memory:    31.4 Mb

     Self-consistent Calculation

     iteration #  1     ecut=    40.00 Ry     beta=0.70
     Davidson diagonalization with overlap
     ethr =  1.00E-06,  avg # of iterations =  6.2

     total cpu time spent up to now is       57.8 secs

     total energy              =     -94.65486569 Ry
     Harris-Foulkes estimate   =    -102.10537095 Ry
     estimated scf accuracy    <       0.26503447 Ry

     iteration #  2     ecut=    40.00 Ry     beta=0.70
     Davidson diagonalization with overlap
     ethr =  2.94E-03,  avg # of iterations =  2.6

     total cpu time spent up to now is       59.8 secs

     total energy              =     -95.09658018 Ry
     Harris-Foulkes estimate   =     -95.28256872 Ry
     estimated scf accuracy    <       0.41574225 Ry

     iteration #  3     ecut=    40.00 Ry     beta=0.70
     Davidson diagonalization with overlap
     ethr =  2.94E-03,  avg # of iterations =  2.0

     total cpu time spent up to now is       61.3 secs

     total energy              =     -95.10668918 Ry
     Harris-Foulkes estimate   =     -95.13111272 Ry
     estimated scf accuracy    <       0.06133777 Ry

     iteration #  4     ecut=    40.00 Ry     beta=0.70
     Davidson diagonalization with overlap
     ethr =  6.82E-04,  avg # of iterations =  1.0

     total cpu time spent up to now is       62.7 secs

     total energy              =     -95.10565162 Ry
     Harris-Foulkes estimate   =     -95.11044849 Ry
     estimated scf accuracy    <       0.01411003 Ry

     iteration #  5     ecut=    40.00 Ry     beta=0.70
     Davidson diagonalization with overlap
     ethr =  1.57E-04,  avg # of iterations =  1.1

     total cpu time spent up to now is       64.0 secs

     total energy              =     -95.10512595 Ry
     Harris-Foulkes estimate   =     -95.10641206 Ry
     estimated scf accuracy    <       0.00436408 Ry

     iteration #  6     ecut=    40.00 Ry     beta=0.70
     Davidson diagonalization with overlap
     ethr =  4.85E-05,  avg # of iterations =  1.1

     total cpu time spent up to now is       65.4 secs

     total energy              =     -95.10401028 Ry
     Harris-Foulkes estimate   =     -95.10525841 Ry
     estimated scf accuracy    <       0.00182350 Ry

     iteration #  7     ecut=    40.00 Ry     beta=0.70
     Davidson diagonalization with overlap
     ethr =  2.03E-05,  avg # of iterations =  2.1

     total cpu time spent up to now is       67.0 secs

     total energy              =     -95.10443250 Ry
     Harris-Foulkes estimate   =     -95.10441973 Ry
     estimated scf accuracy    <       0.00000254 Ry

     iteration #  8     ecut=    40.00 Ry     beta=0.70
     Davidson diagonalization with overlap
     ethr =  2.82E-08,  avg # of iterations =  3.2

     total cpu time spent up to now is       69.0 secs

     total energy              =     -95.10441551 Ry
     Harris-Foulkes estimate   =     -95.10443770 Ry
     estimated scf accuracy    <       0.00004118 Ry

     iteration #  9     ecut=    40.00 Ry     beta=0.70
     Davidson diagonalization with overlap
     ethr =  2.82E-08,  avg # of iterations =  2.9

     total cpu time spent up to now is       70.7 secs

     total energy              =     -95.10441841 Ry
     Harris-Foulkes estimate   =     -95.10442021 Ry
     estimated scf accuracy    <       0.00000285 Ry

     iteration # 10     ecut=    40.00 Ry     beta=0.70
     Davidson diagonalization with overlap
     ethr =  2.82E-08,  avg # of iterations =  2.0

     total cpu time spent up to now is       72.3 secs

     total energy              =     -95.10441890 Ry
     Harris-Foulkes estimate   =     -95.10441891 Ry
     estimated scf accuracy    <       0.00000002 Ry

     iteration # 11     ecut=    40.00 Ry     beta=0.70
     Davidson diagonalization with overlap
     ethr =  2.30E-10,  avg # of iterations =  2.0

     total cpu time spent up to now is       74.0 secs

     total energy              =     -95.10441890 Ry
     Harris-Foulkes estimate   =     -95.10441891 Ry
     estimated scf accuracy    <          9.8E-09 Ry

     iteration # 12     ecut=    40.00 Ry     beta=0.70
     Davidson diagonalization with overlap
     ethr =  1.09E-10,  avg # of iterations =  2.0

     total cpu time spent up to now is       75.6 secs

     total energy              =     -95.10441891 Ry
     Harris-Foulkes estimate   =     -95.10441891 Ry
     estimated scf accuracy    <          5.0E-10 Ry

     iteration # 13     ecut=    40.00 Ry     beta=0.70
     Davidson diagonalization with overlap
     ethr =  5.59E-12,  avg # of iterations =  1.0

     total cpu time spent up to now is       76.9 secs

     total energy              =     -95.10441891 Ry
     Harris-Foulkes estimate   =     -95.10441891 Ry
     estimated scf accuracy    <          4.7E-10 Ry

     iteration # 14     ecut=    40.00 Ry     beta=0.70
     Davidson diagonalization with overlap
     ethr =  5.22E-12,  avg # of iterations =  2.0

     total cpu time spent up to now is       78.5 secs

     End of self-consistent calculation

     Number of k-points >= 100: set verbosity='high' to print the bands.

     the Fermi energy is     2.4766 ev

!    total energy              =     -95.10441891 Ry
     Harris-Foulkes estimate   =     -95.10441891 Ry
     estimated scf accuracy    <          5.3E-13 Ry

     The total energy is the sum of the following terms:

     one-electron contribution =     -83.92015357 Ry
     hartree contribution      =      42.65173699 Ry
     xc contribution           =     -14.29450619 Ry
     ewald contribution        =     -39.54139473 Ry
     smearing contrib. (-TS)   =      -0.00010140 Ry

     convergence has been achieved in  14 iterations

     Forces acting on atoms (cartesian axes, Ry/au):

     atom    1 type  1   force =     0.00000000    0.00000000    0.00000000

     Total force =     0.000000     Total SCF correction =     0.000000


     Computing stress (Cartesian axis) and pressure

          total   stress  (Ry/bohr**3)                   (kbar)     P=   20.25
   0.00013764  -0.00000000   0.00000000         20.25     -0.00      0.00
  -0.00000000   0.00013764  -0.00000000         -0.00     20.25     -0.00
   0.00000000  -0.00000000   0.00013764          0.00     -0.00     20.25


     number of scf cycles    =   4
     number of bfgs steps    =   3

     enthalpy old            =     -94.9816137139 Ry
     enthalpy new            =     -94.9917611106 Ry

     CASE: enthalpy_new < enthalpy_old

     new trust radius        =       0.1495468903 bohr
     new conv_thr            =            1.0E-10 Ry

     new unit-cell volume =    176.51863 a.u.^3 (    26.15736 Ang^3 )
     density =      1.45947 g/cm^3

CELL_PARAMETERS (alat=  8.00000000)
   0.441726577   0.441726577   0.441726577
  -0.441726577   0.441726577   0.441726577
  -0.441726577  -0.441726577   0.441726577

ATOMIC_POSITIONS (crystal)
Na       0.000000000   0.000000000   0.000000000



     Writing output data file na.bcc.save
     NEW-OLD atomic charge density approx. for the potential
     extrapolated charge    7.43898, renormalised to    9.00000

     total cpu time spent up to now is       79.9 secs

     per-process dynamical memory:    31.4 Mb

     Self-consistent Calculation

     iteration #  1     ecut=    40.00 Ry     beta=0.70
     Davidson diagonalization with overlap
     ethr =  1.00E-06,  avg # of iterations =  6.7

     total cpu time spent up to now is       83.1 secs

     total energy              =     -94.10209494 Ry
     Harris-Foulkes estimate   =    -105.65000574 Ry
     estimated scf accuracy    <       0.62627759 Ry

     iteration #  2     ecut=    40.00 Ry     beta=0.70
     Davidson diagonalization with overlap
     ethr =  6.96E-03,  avg # of iterations =  2.4

     total cpu time spent up to now is       85.0 secs

     total energy              =     -95.05835851 Ry
     Harris-Foulkes estimate   =     -95.46910536 Ry
     estimated scf accuracy    <       0.89692199 Ry

     iteration #  3     ecut=    40.00 Ry     beta=0.70
     Davidson diagonalization with overlap
     ethr =  6.96E-03,  avg # of iterations =  2.0

     total cpu time spent up to now is       86.5 secs

     total energy              =     -95.09921606 Ry
     Harris-Foulkes estimate   =     -95.14309146 Ry
     estimated scf accuracy    <       0.10907713 Ry

     iteration #  4     ecut=    40.00 Ry     beta=0.70
     Davidson diagonalization with overlap
     ethr =  1.21E-03,  avg # of iterations =  1.2

     total cpu time spent up to now is       87.9 secs

     total energy              =     -95.09779362 Ry
     Harris-Foulkes estimate   =     -95.10706666 Ry
     estimated scf accuracy    <       0.02282807 Ry

     iteration #  5     ecut=    40.00 Ry     beta=0.70
     Davidson diagonalization with overlap
     ethr =  2.54E-04,  avg # of iterations =  1.3

     total cpu time spent up to now is       89.3 secs

     total energy              =     -95.09673021 Ry
     Harris-Foulkes estimate   =     -95.09952348 Ry
     estimated scf accuracy    <       0.00479414 Ry

     iteration #  6     ecut=    40.00 Ry     beta=0.70
     Davidson diagonalization with overlap
     ethr =  5.33E-05,  avg # of iterations =  2.2

     total cpu time spent up to now is       90.8 secs

     total energy              =     -95.09732085 Ry
     Harris-Foulkes estimate   =     -95.09743990 Ry
     estimated scf accuracy    <       0.00015833 Ry

     iteration #  7     ecut=    40.00 Ry     beta=0.70
     Davidson diagonalization with overlap
     ethr =  1.76E-06,  avg # of iterations =  2.9

     total cpu time spent up to now is       92.6 secs

     total energy              =     -95.09737511 Ry
     Harris-Foulkes estimate   =     -95.09738350 Ry
     estimated scf accuracy    <       0.00000995 Ry

     iteration #  8     ecut=    40.00 Ry     beta=0.70
     Davidson diagonalization with overlap
     ethr =  1.11E-07,  avg # of iterations =  2.0

     total cpu time spent up to now is       94.2 secs

     total energy              =     -95.09737762 Ry
     Harris-Foulkes estimate   =     -95.09738238 Ry
     estimated scf accuracy    <       0.00000754 Ry

     iteration #  9     ecut=    40.00 Ry     beta=0.70
     Davidson diagonalization with overlap
     ethr =  8.37E-08,  avg # of iterations =  2.0

     total cpu time spent up to now is       95.8 secs

     total energy              =     -95.09737905 Ry
     Harris-Foulkes estimate   =     -95.09737906 Ry
     estimated scf accuracy    <          8.3E-09 Ry

     iteration # 10     ecut=    40.00 Ry     beta=0.70
     Davidson diagonalization with overlap
     ethr =  9.25E-11,  avg # of iterations =  2.0

     total cpu time spent up to now is       97.5 secs

     total energy              =     -95.09737906 Ry
     Harris-Foulkes estimate   =     -95.09737906 Ry
     estimated scf accuracy    <          4.0E-09 Ry

     iteration # 11     ecut=    40.00 Ry     beta=0.70
     Davidson diagonalization with overlap
     ethr =  4.40E-11,  avg # of iterations =  2.0

     total cpu time spent up to now is       99.1 secs

     total energy              =     -95.09737906 Ry
     Harris-Foulkes estimate   =     -95.09737906 Ry
     estimated scf accuracy    <          1.3E-10 Ry

     iteration # 12     ecut=    40.00 Ry     beta=0.70
     Davidson diagonalization with overlap
     ethr =  1.47E-12,  avg # of iterations =  1.6

     total cpu time spent up to now is      100.5 secs

     End of self-consistent calculation

     Number of k-points >= 100: set verbosity='high' to print the bands.

     the Fermi energy is     3.3683 ev

!    total energy              =     -95.09737906 Ry
     Harris-Foulkes estimate   =     -95.09737906 Ry
     estimated scf accuracy    <          1.3E-12 Ry

     The total energy is the sum of the following terms:

     one-electron contribution =     -80.14899470 Ry
     hartree contribution      =      41.07883260 Ry
     xc contribution           =     -14.31891408 Ry
     ewald contribution        =     -41.70819754 Ry
     smearing contrib. (-TS)   =      -0.00010534 Ry

     convergence has been achieved in  12 iterations

     Forces acting on atoms (cartesian axes, Ry/au):

     atom    1 type  1   force =     0.00000000    0.00000000    0.00000000

     Total force =     0.000000     Total SCF correction =     0.000000


     Computing stress (Cartesian axis) and pressure

          total   stress  (Ry/bohr**3)                   (kbar)     P=   50.28
   0.00034177   0.00000000  -0.00000000         50.28      0.00     -0.00
   0.00000000   0.00034177   0.00000000          0.00     50.28      0.00
  -0.00000000   0.00000000   0.00034177         -0.00      0.00     50.28


     number of scf cycles    =   5
     number of bfgs steps    =   4

     enthalpy old            =     -94.9917611106 Ry
     enthalpy new            =     -95.0013831029 Ry

     CASE: enthalpy_new < enthalpy_old

     new trust radius        =       0.1177494687 bohr
     new conv_thr            =            1.0E-10 Ry

     new unit-cell volume =    154.07679 a.u.^3 (    22.83182 Ang^3 )
     density =      1.67204 g/cm^3

CELL_PARAMETERS (alat=  8.00000000)
   0.422152233   0.422152233   0.422152233
  -0.422152233   0.422152233   0.422152233
  -0.422152233  -0.422152233   0.422152233

ATOMIC_POSITIONS (crystal)
Na       0.000000000   0.000000000   0.000000000



     Writing output data file na.bcc.save
     NEW-OLD atomic charge density approx. for the potential
     extrapolated charge    7.69003, renormalised to    9.00000

     total cpu time spent up to now is      102.0 secs

     per-process dynamical memory:    31.4 Mb

     Self-consistent Calculation

     iteration #  1     ecut=    40.00 Ry     beta=0.70
     Davidson diagonalization with overlap
     ethr =  1.00E-06,  avg # of iterations =  5.9

     total cpu time spent up to now is      105.0 secs

     total energy              =     -94.35587003 Ry
     Harris-Foulkes estimate   =    -103.63879328 Ry
     estimated scf accuracy    <       0.44930340 Ry

     iteration #  2     ecut=    40.00 Ry     beta=0.70
     Davidson diagonalization with overlap
     ethr =  4.99E-03,  avg # of iterations =  2.2

     total cpu time spent up to now is      106.9 secs

     total energy              =     -95.06503914 Ry
     Harris-Foulkes estimate   =     -95.36822706 Ry
     estimated scf accuracy    <       0.66942159 Ry

     iteration #  3     ecut=    40.00 Ry     beta=0.70
     Davidson diagonalization with overlap
     ethr =  4.99E-03,  avg # of iterations =  1.9

     total cpu time spent up to now is      108.4 secs

     total energy              =     -95.08794821 Ry
     Harris-Foulkes estimate   =     -95.12462384 Ry
     estimated scf accuracy    <       0.08937844 Ry

     iteration #  4     ecut=    40.00 Ry     beta=0.70
     Davidson diagonalization with overlap
     ethr =  9.93E-04,  avg # of iterations =  1.1

     total cpu time spent up to now is      109.7 secs

     total energy              =     -95.08739966 Ry
     Harris-Foulkes estimate   =     -95.09460305 Ry
     estimated scf accuracy    <       0.01767594 Ry

     iteration #  5     ecut=    40.00 Ry     beta=0.70
     Davidson diagonalization with overlap
     ethr =  1.96E-04,  avg # of iterations =  1.2

     total cpu time spent up to now is      111.1 secs

     total energy              =     -95.08703585 Ry
     Harris-Foulkes estimate   =     -95.08873048 Ry
     estimated scf accuracy    <       0.00375868 Ry

     iteration #  6     ecut=    40.00 Ry     beta=0.70
     Davidson diagonalization with overlap
     ethr =  4.18E-05,  avg # of iterations =  1.2

     total cpu time spent up to now is      112.5 secs

     total energy              =     -95.08685835 Ry
     Harris-Foulkes estimate   =     -95.08731959 Ry
     estimated scf accuracy    <       0.00064615 Ry

     iteration #  7     ecut=    40.00 Ry     beta=0.70
     Davidson diagonalization with overlap
     ethr =  7.18E-06,  avg # of iterations =  2.2

     total cpu time spent up to now is      114.1 secs

     total energy              =     -95.08702615 Ry
     Harris-Foulkes estimate   =     -95.08703187 Ry
     estimated scf accuracy    <       0.00000804 Ry

     iteration #  8     ecut=    40.00 Ry     beta=0.70
     Davidson diagonalization with overlap
     ethr =  8.93E-08,  avg # of iterations =  2.1

     total cpu time spent up to now is      115.8 secs

     total energy              =     -95.08702845 Ry
     Harris-Foulkes estimate   =     -95.08702840 Ry
     estimated scf accuracy    <       0.00000017 Ry

     iteration #  9     ecut=    40.00 Ry     beta=0.70
     Davidson diagonalization with overlap
     ethr =  1.87E-09,  avg # of iterations =  1.2

     total cpu time spent up to now is      117.1 secs

     total energy              =     -95.08702838 Ry
     Harris-Foulkes estimate   =     -95.08702846 Ry
     estimated scf accuracy    <       0.00000022 Ry

     iteration # 10     ecut=    40.00 Ry     beta=0.70
     Davidson diagonalization with overlap
     ethr =  1.87E-09,  avg # of iterations =  1.0

     total cpu time spent up to now is      118.5 secs

     total energy              =     -95.08702834 Ry
     Harris-Foulkes estimate   =     -95.08702839 Ry
     estimated scf accuracy    <       0.00000007 Ry

     iteration # 11     ecut=    40.00 Ry     beta=0.70
     Davidson diagonalization with overlap
     ethr =  7.63E-10,  avg # of iterations =  2.0

     total cpu time spent up to now is      120.1 secs

     total energy              =     -95.08702836 Ry
     Harris-Foulkes estimate   =     -95.08702837 Ry
     estimated scf accuracy    <       0.00000001 Ry

     iteration # 12     ecut=    40.00 Ry     beta=0.70
     Davidson diagonalization with overlap
     ethr =  1.35E-10,  avg # of iterations =  1.0

     total cpu time spent up to now is      121.5 secs

     total energy              =     -95.08702836 Ry
     Harris-Foulkes estimate   =     -95.08702836 Ry
     estimated scf accuracy    <          5.5E-09 Ry

     iteration # 13     ecut=    40.00 Ry     beta=0.70
     Davidson diagonalization with overlap
     ethr =  6.11E-11,  avg # of iterations =  2.0

     total cpu time spent up to now is      123.1 secs

     End of self-consistent calculation

     Number of k-points >= 100: set verbosity='high' to print the bands.

     the Fermi energy is     4.2590 ev

!    total energy              =     -95.08702836 Ry
     Harris-Foulkes estimate   =     -95.08702836 Ry
     estimated scf accuracy    <          9.4E-11 Ry

     The total energy is the sum of the following terms:

     one-electron contribution =     -76.80087193 Ry
     hartree contribution      =      39.69774664 Ry
     xc contribution           =     -14.34167586 Ry
     ewald contribution        =     -43.64212222 Ry
     smearing contrib. (-TS)   =      -0.00010500 Ry

     convergence has been achieved in  13 iterations

     Forces acting on atoms (cartesian axes, Ry/au):

     atom    1 type  1   force =     0.00000000    0.00000000    0.00000000

     Total force =     0.000000     Total SCF correction =     0.000000


     Computing stress (Cartesian axis) and pressure

          total   stress  (Ry/bohr**3)                   (kbar)     P=   88.78
   0.00060350  -0.00000000   0.00000000         88.78     -0.00      0.00
  -0.00000000   0.00060350  -0.00000000         -0.00     88.78     -0.00
   0.00000000  -0.00000000   0.00060350          0.00     -0.00     88.78


     number of scf cycles    =   6
     number of bfgs steps    =   5

     enthalpy old            =     -95.0013831029 Ry
     enthalpy new            =     -95.0032369293 Ry

     CASE: enthalpy_new < enthalpy_old

     new trust radius        =       0.0244526259 bohr
     new conv_thr            =            1.0E-10 Ry

     new unit-cell volume =    158.67465 a.u.^3 (    23.51316 Ang^3 )
     density =      1.62359 g/cm^3

CELL_PARAMETERS (alat=  8.00000000)
   0.426310343   0.426310343   0.426310343
  -0.426310343   0.426310343   0.426310343
  -0.426310343  -0.426310343   0.426310343

ATOMIC_POSITIONS (crystal)
Na       0.000000000   0.000000000   0.000000000



     Writing output data file na.bcc.save
     NEW-OLD atomic charge density approx. for the potential
     extrapolated charge    9.26061, renormalised to    9.00000

     total cpu time spent up to now is      124.5 secs

     per-process dynamical memory:    31.4 Mb

     Self-consistent Calculation

     iteration #  1     ecut=    40.00 Ry     beta=0.70
     Davidson diagonalization with overlap
     ethr =  1.00E-06,  avg # of iterations =  3.8

     total cpu time spent up to now is      127.0 secs

     total energy              =     -95.04222921 Ry
     Harris-Foulkes estimate   =     -93.30604929 Ry
     estimated scf accuracy    <       0.02649409 Ry

     iteration #  2     ecut=    40.00 Ry     beta=0.70
     Davidson diagonalization with overlap
     ethr =  2.94E-04,  avg # of iterations =  3.0

     total cpu time spent up to now is      129.0 secs

     total energy              =     -95.09098627 Ry
     Harris-Foulkes estimate   =     -95.11046676 Ry
     estimated scf accuracy    <       0.04446979 Ry

     iteration #  3     ecut=    40.00 Ry     beta=0.70
     Davidson diagonalization with overlap
     ethr =  2.94E-04,  avg # of iterations =  1.2

     total cpu time spent up to now is      130.4 secs

     total energy              =     -95.09092923 Ry
     Harris-Foulkes estimate   =     -95.09373931 Ry
     estimated scf accuracy    <       0.00917919 Ry

     iteration #  4     ecut=    40.00 Ry     beta=0.70
     Davidson diagonalization with overlap
     ethr =  1.02E-04,  avg # of iterations =  1.0

     total cpu time spent up to now is      131.7 secs

     total energy              =     -95.09047866 Ry
     Harris-Foulkes estimate   =     -95.09128017 Ry
     estimated scf accuracy    <       0.00348280 Ry

     iteration #  5     ecut=    40.00 Ry     beta=0.70
     Davidson diagonalization with overlap
     ethr =  3.87E-05,  avg # of iterations =  1.0

     total cpu time spent up to now is      133.1 secs

     total energy              =     -95.08999972 Ry
     Harris-Foulkes estimate   =     -95.09053942 Ry
     estimated scf accuracy    <       0.00188806 Ry

     iteration #  6     ecut=    40.00 Ry     beta=0.70
     Davidson diagonalization with overlap
     ethr =  2.10E-05,  avg # of iterations =  1.0

     total cpu time spent up to now is      134.4 secs

     total energy              =     -95.08959128 Ry
     Harris-Foulkes estimate   =     -95.09004097 Ry
     estimated scf accuracy    <       0.00084851 Ry

     iteration #  7     ecut=    40.00 Ry     beta=0.70
     Davidson diagonalization with overlap
     ethr =  9.43E-06,  avg # of iterations =  1.5

     total cpu time spent up to now is      135.8 secs

     total energy              =     -95.08965810 Ry
     Harris-Foulkes estimate   =     -95.08968222 Ry
     estimated scf accuracy    <       0.00007244 Ry

     iteration #  8     ecut=    40.00 Ry     beta=0.70
     Davidson diagonalization with overlap
     ethr =  8.05E-07,  avg # of iterations =  1.6

     total cpu time spent up to now is      137.2 secs

     total energy              =     -95.08964762 Ry
     Harris-Foulkes estimate   =     -95.08966311 Ry
     estimated scf accuracy    <       0.00002482 Ry

     iteration #  9     ecut=    40.00 Ry     beta=0.70
     Davidson diagonalization with overlap
     ethr =  2.76E-07,  avg # of iterations =  2.0

     total cpu time spent up to now is      138.8 secs

     total energy              =     -95.08965188 Ry
     Harris-Foulkes estimate   =     -95.08965182 Ry
     estimated scf accuracy    <       0.00000032 Ry

     iteration # 10     ecut=    40.00 Ry     beta=0.70
     Davidson diagonalization with overlap
     ethr =  3.51E-09,  avg # of iterations =  1.7

     total cpu time spent up to now is      140.2 secs

     total energy              =     -95.08965157 Ry
     Harris-Foulkes estimate   =     -95.08965190 Ry
     estimated scf accuracy    <       0.00000045 Ry

     iteration # 11     ecut=    40.00 Ry     beta=0.70
     Davidson diagonalization with overlap
     ethr =  3.51E-09,  avg # of iterations =  2.0

     total cpu time spent up to now is      141.8 secs

     total energy              =     -95.08965170 Ry
     Harris-Foulkes estimate   =     -95.08965171 Ry
     estimated scf accuracy    <       0.00000002 Ry

     iteration # 12     ecut=    40.00 Ry     beta=0.70
     Davidson diagonalization with overlap
     ethr =  2.33E-10,  avg # of iterations =  1.0

     total cpu time spent up to now is      143.1 secs

     total energy              =     -95.08965170 Ry
     Harris-Foulkes estimate   =     -95.08965170 Ry
     estimated scf accuracy    <          5.7E-09 Ry

     iteration # 13     ecut=    40.00 Ry     beta=0.70
     Davidson diagonalization with overlap
     ethr =  6.30E-11,  avg # of iterations =  2.0

     total cpu time spent up to now is      144.7 secs

     total energy              =     -95.08965170 Ry
     Harris-Foulkes estimate   =     -95.08965170 Ry
     estimated scf accuracy    <          3.0E-10 Ry

     iteration # 14     ecut=    40.00 Ry     beta=0.70
     Davidson diagonalization with overlap
     ethr =  3.38E-12,  avg # of iterations =  2.0

     total cpu time spent up to now is      146.3 secs

     total energy              =     -95.08965170 Ry
     Harris-Foulkes estimate   =     -95.08965170 Ry
     estimated scf accuracy    <          2.2E-10 Ry

     iteration # 15     ecut=    40.00 Ry     beta=0.70
     Davidson diagonalization with overlap
     ethr =  2.45E-12,  avg # of iterations =  2.0

     total cpu time spent up to now is      147.9 secs

     End of self-consistent calculation

     Number of k-points >= 100: set verbosity='high' to print the bands.

     the Fermi energy is     4.0550 ev

!    total energy              =     -95.08965170 Ry
     Harris-Foulkes estimate   =     -95.08965170 Ry
     estimated scf accuracy    <          2.4E-12 Ry

     The total energy is the sum of the following terms:

     one-electron contribution =     -77.53637039 Ry
     hartree contribution      =      39.99984916 Ry
     xc contribution           =     -14.33657577 Ry
     ewald contribution        =     -43.21644934 Ry
     smearing contrib. (-TS)   =      -0.00010536 Ry

     convergence has been achieved in  15 iterations

     Forces acting on atoms (cartesian axes, Ry/au):

     atom    1 type  1   force =     0.00000000    0.00000000    0.00000000

     Total force =     0.000000     Total SCF correction =     0.000000


     Computing stress (Cartesian axis) and pressure

          total   stress  (Ry/bohr**3)                   (kbar)     P=   79.14
   0.00053799  -0.00000000   0.00000000         79.14     -0.00      0.00
  -0.00000000   0.00053799  -0.00000000         -0.00     79.14     -0.00
   0.00000000  -0.00000000   0.00053799          0.00     -0.00     79.14


     number of scf cycles    =   7
     number of bfgs steps    =   6

     enthalpy old            =     -95.0032369293 Ry
     enthalpy new            =     -95.0033598150 Ry

     CASE: enthalpy_new < enthalpy_old

     new trust radius        =       0.0022286377 bohr
     new conv_thr            =            1.0E-10 Ry

     new unit-cell volume =    158.25393 a.u.^3 (    23.45081 Ang^3 )
     density =      1.62791 g/cm^3

CELL_PARAMETERS (alat=  8.00000000)
   0.425933221   0.425933221   0.425933221
  -0.425933221   0.425933221   0.425933221
  -0.425933221  -0.425933221   0.425933221

ATOMIC_POSITIONS (crystal)
Na       0.000000000   0.000000000   0.000000000



     Writing output data file na.bcc.save
     NEW-OLD atomic charge density approx. for the potential
     extrapolated charge    8.97609, renormalised to    9.00000

     total cpu time spent up to now is      149.3 secs

     per-process dynamical memory:    31.4 Mb

     Self-consistent Calculation

     iteration #  1     ecut=    40.00 Ry     beta=0.70
     Davidson diagonalization with overlap
     ethr =  1.00E-06,  avg # of iterations =  2.0

     total cpu time spent up to now is      151.2 secs

     total energy              =     -95.08906693 Ry
     Harris-Foulkes estimate   =     -95.25226452 Ry
     estimated scf accuracy    <       0.00020060 Ry

     iteration #  2     ecut=    40.00 Ry     beta=0.70
     Davidson diagonalization with overlap
     ethr =  2.23E-06,  avg # of iterations =  2.9

     total cpu time spent up to now is      153.2 secs

     total energy              =     -95.08943034 Ry
     Harris-Foulkes estimate   =     -95.08957765 Ry
     estimated scf accuracy    <       0.00033613 Ry

     iteration #  3     ecut=    40.00 Ry     beta=0.70
     Davidson diagonalization with overlap
     ethr =  2.23E-06,  avg # of iterations =  1.4

     total cpu time spent up to now is      154.6 secs

     total energy              =     -95.08943610 Ry
     Harris-Foulkes estimate   =     -95.08945260 Ry
     estimated scf accuracy    <       0.00006496 Ry

     iteration #  4     ecut=    40.00 Ry     beta=0.70
     Davidson diagonalization with overlap
     ethr =  7.22E-07,  avg # of iterations =  1.0

     total cpu time spent up to now is      155.9 secs

     total energy              =     -95.08942967 Ry
     Harris-Foulkes estimate   =     -95.08943801 Ry
     estimated scf accuracy    <       0.00002998 Ry

     iteration #  5     ecut=    40.00 Ry     beta=0.70
     Davidson diagonalization with overlap
     ethr =  3.33E-07,  avg # of iterations =  1.0

     total cpu time spent up to now is      157.3 secs

     total energy              =     -95.08942644 Ry
     Harris-Foulkes estimate   =     -95.08943035 Ry
     estimated scf accuracy    <       0.00001355 Ry

     iteration #  6     ecut=    40.00 Ry     beta=0.70
     Davidson diagonalization with overlap
     ethr =  1.51E-07,  avg # of iterations =  1.0

     total cpu time spent up to now is      158.6 secs

     total energy              =     -95.08942426 Ry
     Harris-Foulkes estimate   =     -95.08942678 Ry
     estimated scf accuracy    <       0.00000583 Ry

     iteration #  7     ecut=    40.00 Ry     beta=0.70
     Davidson diagonalization with overlap
     ethr =  6.47E-08,  avg # of iterations =  1.0

     total cpu time spent up to now is      160.0 secs

     total energy              =     -95.08942386 Ry
     Harris-Foulkes estimate   =     -95.08942463 Ry
     estimated scf accuracy    <       0.00000119 Ry

     iteration #  8     ecut=    40.00 Ry     beta=0.70
     Davidson diagonalization with overlap
     ethr =  1.32E-08,  avg # of iterations =  2.0

     total cpu time spent up to now is      161.6 secs

     total energy              =     -95.08942410 Ry
     Harris-Foulkes estimate   =     -95.08942410 Ry
     estimated scf accuracy    <          2.6E-09 Ry

     iteration #  9     ecut=    40.00 Ry     beta=0.70
     Davidson diagonalization with overlap
     ethr =  2.90E-11,  avg # of iterations =  2.0

     total cpu time spent up to now is      163.1 secs

     total energy              =     -95.08942410 Ry
     Harris-Foulkes estimate   =     -95.08942410 Ry
     estimated scf accuracy    <          2.0E-09 Ry

     iteration # 10     ecut=    40.00 Ry     beta=0.70
     Davidson diagonalization with overlap
     ethr =  2.18E-11,  avg # of iterations =  2.0

     total cpu time spent up to now is      164.7 secs

     End of self-consistent calculation

     Number of k-points >= 100: set verbosity='high' to print the bands.

     the Fermi energy is     4.0731 ev

!    total energy              =     -95.08942410 Ry
     Harris-Foulkes estimate   =     -95.08942410 Ry
     estimated scf accuracy    <          5.0E-11 Ry

     The total energy is the sum of the following terms:

     one-electron contribution =     -77.47022557 Ry
     hartree contribution      =      39.97265263 Ry
     xc contribution           =     -14.33703260 Ry
     ewald contribution        =     -43.25471323 Ry
     smearing contrib. (-TS)   =      -0.00010534 Ry

     convergence has been achieved in  10 iterations

     Forces acting on atoms (cartesian axes, Ry/au):

     atom    1 type  1   force =     0.00000000    0.00000000    0.00000000

     Total force =     0.000000     Total SCF correction =     0.000000


     Computing stress (Cartesian axis) and pressure

          total   stress  (Ry/bohr**3)                   (kbar)     P=   80.00
   0.00054383  -0.00000000  -0.00000000         80.00     -0.00     -0.00
  -0.00000000   0.00054383   0.00000000         -0.00     80.00      0.00
  -0.00000000  -0.00000000   0.00054383         -0.00     -0.00     80.00


     bfgs converged in   8 scf cycles and   7 bfgs steps
     (criteria: energy <  1.0E-04 Ry, force <  1.0E-03Ry/Bohr, cell <  5.0E-01kbar)

     End of BFGS Geometry Optimization

     Final enthalpy =     -95.0033610228 Ry
Begin final coordinates
     new unit-cell volume =    158.25393 a.u.^3 (    23.45081 Ang^3 )
     density =      1.62791 g/cm^3

CELL_PARAMETERS (alat=  8.00000000)
   0.425933221   0.425933221   0.425933221
  -0.425933221   0.425933221   0.425933221
  -0.425933221  -0.425933221   0.425933221

ATOMIC_POSITIONS (crystal)
Na       0.000000000   0.000000000   0.000000000
End final coordinates



     A final scf calculation at the relaxed structure.
     The G-vectors are recalculated for the final unit cell
     Results may differ from those at the preceding step.

     Parallelization info
     --------------------
     sticks:   dense  smooth     PW     G-vecs:    dense   smooth      PW
     Min         210     102     32                 3848     1354     239
     Max         211     103     33                 3850     1357     242
     Sum         841     411    129                15395     5425     959



     bravais-lattice index     =            3
     lattice parameter (alat)  =       8.0000  a.u.
     unit-cell volume          =     158.2539 (a.u.)^3
     number of atoms/cell      =            1
     number of atomic types    =            1
     number of electrons       =         9.00
     number of Kohn-Sham states=            9
     kinetic-energy cutoff     =      40.0000  Ry
     charge density cutoff     =     320.0000  Ry
     convergence threshold     =      1.0E-10
     mixing beta               =       0.7000
     number of iterations used =            8  plain     mixing
     Exchange-correlation      = SLA  PW   PBE  PBE ( 1  4  3  4 0 0)

     celldm(1)=   8.000000  celldm(2)=   0.000000  celldm(3)=   0.000000
     celldm(4)=   0.000000  celldm(5)=   0.000000  celldm(6)=   0.000000

     crystal axes: (cart. coord. in units of alat)
               a(1) = (   0.425933   0.425933   0.425933 )  
               a(2) = (  -0.425933   0.425933   0.425933 )  
               a(3) = (  -0.425933  -0.425933   0.425933 )  

     reciprocal axes: (cart. coord. in units 2 pi/alat)
               b(1) = (  1.173893 -0.000000  1.173893 )  
               b(2) = ( -1.173893  1.173893 -0.000000 )  
               b(3) = (  0.000000 -1.173893  1.173893 )  


     PseudoPot. # 1 for Na read from file:
     /home/s1333534/quantum_espresso/qe-6.1/pseudo/Na_pbe_v1.uspp.F.UPF
     MD5 check sum: 76a99c7e9422403d3e93cbc85ab7bccb
     Pseudo is Ultrasoft, Zval =  9.0
     Generated by new atomic code, or converted to UPF format
     Using radial grid of  819 points,  5 beta functions with: 
                l(1) =   0
                l(2) =   0
                l(3) =   1
                l(4) =   1
                l(5) =   2
     Q(r) pseudized with  8 coefficients,  rinner =    1.250   1.250   1.250
                                                       1.250   1.250

     atomic species   valence    mass     pseudopotential
        Na             9.00    22.99000     Na( 1.00)

     48 Sym. Ops., with inversion, found



   Cartesian axes

     site n.     atom                  positions (alat units)
         1           Na  tau(   1) = (   0.0000000   0.0000000   0.0000000  )

     number of k points=   250  Marzari-Vanderbilt smearing, width (Ry)=  0.0200

     Number of k-points >= 100: set verbosity='high' to print them.

     Dense  grid:    15395 G-vectors     FFT dimensions: (  36,  36,  36)

     Smooth grid:     5425 G-vectors     FFT dimensions: (  24,  24,  24)

     Estimated max dynamical RAM per process >       8.41MB

     Estimated total allocated dynamical RAM >      33.64MB

     Initial potential from superposition of free atoms

     starting charge    8.99371, renormalised to    9.00000
     Starting wfc are    5 randomized atomic wfcs +    4 random wfc

     Writing output data file na.bcc.save

     total cpu time spent up to now is      166.4 secs

     per-process dynamical memory:    20.2 Mb

     Self-consistent Calculation

     iteration #  1     ecut=    40.00 Ry     beta=0.70
     Davidson diagonalization with overlap
     c_bands:  1 eigenvalues not converged
     c_bands:  1 eigenvalues not converged
     ethr =  1.00E-06,  avg # of iterations = 10.8

     total cpu time spent up to now is      169.1 secs

     total energy              =     -95.08852626 Ry
     Harris-Foulkes estimate   =     -95.08904957 Ry
     estimated scf accuracy    <       0.00145634 Ry

     iteration #  2     ecut=    40.00 Ry     beta=0.70
     Davidson diagonalization with overlap
     ethr =  1.62E-05,  avg # of iterations =  2.0

     total cpu time spent up to now is      170.0 secs

     total energy              =     -95.08872924 Ry
     Harris-Foulkes estimate   =     -95.08877361 Ry
     estimated scf accuracy    <       0.00017026 Ry

     iteration #  3     ecut=    40.00 Ry     beta=0.70
     Davidson diagonalization with overlap
     ethr =  1.89E-06,  avg # of iterations =  2.0

     total cpu time spent up to now is      170.9 secs

     total energy              =     -95.08874963 Ry
     Harris-Foulkes estimate   =     -95.08875083 Ry
     estimated scf accuracy    <       0.00001013 Ry

     iteration #  4     ecut=    40.00 Ry     beta=0.70
     Davidson diagonalization with overlap
     ethr =  1.13E-07,  avg # of iterations =  1.0

     total cpu time spent up to now is      171.7 secs

     total energy              =     -95.08875049 Ry
     Harris-Foulkes estimate   =     -95.08875043 Ry
     estimated scf accuracy    <       0.00000001 Ry

     iteration #  5     ecut=    40.00 Ry     beta=0.70
     Davidson diagonalization with overlap
     ethr =  1.42E-10,  avg # of iterations =  3.0

     total cpu time spent up to now is      172.7 secs

     total energy              =     -95.08875052 Ry
     Harris-Foulkes estimate   =     -95.08875052 Ry
     estimated scf accuracy    <          1.2E-09 Ry

     iteration #  6     ecut=    40.00 Ry     beta=0.70
     Davidson diagonalization with overlap
     ethr =  1.36E-11,  avg # of iterations =  1.5

     total cpu time spent up to now is      173.5 secs

     total energy              =     -95.08875052 Ry
     Harris-Foulkes estimate   =     -95.08875052 Ry
     estimated scf accuracy    <          1.2E-10 Ry

     iteration #  7     ecut=    40.00 Ry     beta=0.70
     Davidson diagonalization with overlap
     ethr =  1.33E-12,  avg # of iterations =  2.0

     total cpu time spent up to now is      174.5 secs

     End of self-consistent calculation

     Number of k-points >= 100: set verbosity='high' to print the bands.

     the Fermi energy is     4.0720 ev

!    total energy              =     -95.08875052 Ry
     Harris-Foulkes estimate   =     -95.08875052 Ry
     estimated scf accuracy    <          3.0E-12 Ry

     The total energy is the sum of the following terms:

     one-electron contribution =     -77.46968660 Ry
     hartree contribution      =      39.97288099 Ry
     xc contribution           =     -14.33712634 Ry
     ewald contribution        =     -43.25471323 Ry
     smearing contrib. (-TS)   =      -0.00010534 Ry

     convergence has been achieved in   7 iterations

     Forces acting on atoms (cartesian axes, Ry/au):

     atom    1 type  1   force =     0.00000000    0.00000000    0.00000000

     Total force =     0.000000     Total SCF correction =     0.000000


     Computing stress (Cartesian axis) and pressure

          total   stress  (Ry/bohr**3)                   (kbar)     P=   78.27
   0.00053209   0.00000000  -0.00000000         78.27      0.00     -0.00
   0.00000000   0.00053209   0.00000000          0.00     78.27      0.00
  -0.00000000   0.00000000   0.00053209         -0.00      0.00     78.27


     Writing output data file na.bcc.save

     init_run     :      1.48s CPU      1.52s WALL (       2 calls)
     electrons    :    153.55s CPU    161.75s WALL (       9 calls)
     update_pot   :      1.67s CPU      1.68s WALL (       7 calls)
     forces       :      1.36s CPU      1.38s WALL (       9 calls)
     stress       :      6.38s CPU      6.42s WALL (       9 calls)

     Called by init_run:
     wfcinit      :      0.78s CPU      0.82s WALL (       2 calls)
     potinit      :      0.10s CPU      0.10s WALL (       2 calls)

     Called by electrons:
     c_bands      :    124.58s CPU    131.55s WALL (     101 calls)
     sum_band     :     25.95s CPU     27.13s WALL (     101 calls)
     v_of_rho     :      1.26s CPU      1.29s WALL (     109 calls)
     newd         :      1.77s CPU      1.77s WALL (     109 calls)
     mix_rho      :      0.12s CPU      0.12s WALL (     101 calls)

     Called by c_bands:
     init_us_2    :      6.69s CPU      6.68s WALL (   55500 calls)
     cegterg      :    118.05s CPU    124.88s WALL (   25250 calls)

     Called by sum_band:
     sum_band:bec :      0.07s CPU      0.08s WALL (   25250 calls)
     addusdens    :      1.89s CPU      1.90s WALL (     101 calls)

     Called by *egterg:
     h_psi        :     97.87s CPU    103.68s WALL (   79483 calls)
     s_psi        :      1.52s CPU      1.19s WALL (   79483 calls)
     g_psi        :      0.79s CPU      0.76s WALL (   53733 calls)
     cdiaghg      :     10.05s CPU     10.44s WALL (   76983 calls)

     Called by h_psi:
     h_psi:pot    :     97.53s CPU    103.18s WALL (   79483 calls)
     h_psi:calbec :      2.42s CPU      1.93s WALL (   79483 calls)
     vloc_psi     :     94.21s CPU     99.76s WALL (   79483 calls)
     add_vuspsi   :      0.79s CPU      1.29s WALL (   79483 calls)

     General routines
     calbec       :      3.27s CPU      2.87s WALL (  115983 calls)
     fft          :      0.63s CPU      0.65s WALL (    1791 calls)
     ffts         :      0.03s CPU      0.03s WALL (     210 calls)
     fftw         :    105.49s CPU    106.23s WALL ( 1375846 calls)
     interpolate  :      0.11s CPU      0.11s WALL (     210 calls)
     davcio       :      0.00s CPU      0.01s WALL (     500 calls)

     Parallel routines
     fft_scatter  :     16.12s CPU     20.18s WALL ( 1377847 calls)

     PWSCF        :  2m46.75s CPU     2m55.15s WALL


   This run was terminated on:  16: 0:16  20Dec2017            

=------------------------------------------------------------------------------=
   JOB DONE.
=------------------------------------------------------------------------------=
