
     Program PWSCF v.6.1 (svn rev. 13369) starts on 20Dec2017 at 15:48:20 

     This program is part of the open-source Quantum ESPRESSO suite
     for quantum simulation of materials; please cite
         "P. Giannozzi et al., J. Phys.:Condens. Matter 21 395502 (2009);
          URL http://www.quantum-espresso.org", 
     in publications or presentations arising from this work. More details at
     http://www.quantum-espresso.org/quote

     Parallel version (MPI), running on     4 processors
     R & G space division:  proc/nbgrp/npool/nimage =       4
     Waiting for input...
     Reading input from standard input

     Current dimensions of program PWSCF are:
     Max number of different atomic species (ntypx) = 10
     Max number of k-points (npk) =  40000
     Max angular momentum in pseudopotentials (lmaxx) =  3

     Subspace diagonalization in iterative solution of the eigenvalue problem:
     a serial algorithm will be used


     Parallelization info
     --------------------
     sticks:   dense  smooth     PW     G-vecs:    dense   smooth      PW
     Min         287     142     43                 6207     2171     375
     Max         288     144     44                 6210     2172     378
     Sum        1151     571    173                24835     8685    1505



     bravais-lattice index     =            3
     lattice parameter (alat)  =       8.0000  a.u.
     unit-cell volume          =     256.0000 (a.u.)^3
     number of atoms/cell      =            1
     number of atomic types    =            1
     number of electrons       =         9.00
     number of Kohn-Sham states=            9
     kinetic-energy cutoff     =      40.0000  Ry
     charge density cutoff     =     320.0000  Ry
     convergence threshold     =      1.0E-08
     mixing beta               =       0.7000
     number of iterations used =            8  plain     mixing
     Exchange-correlation      = SLA  PW   PBE  PBE ( 1  4  3  4 0 0)
     nstep                     =           50


     celldm(1)=   8.000000  celldm(2)=   0.000000  celldm(3)=   0.000000
     celldm(4)=   0.000000  celldm(5)=   0.000000  celldm(6)=   0.000000

     crystal axes: (cart. coord. in units of alat)
               a(1) = (   0.500000   0.500000   0.500000 )  
               a(2) = (  -0.500000   0.500000   0.500000 )  
               a(3) = (  -0.500000  -0.500000   0.500000 )  

     reciprocal axes: (cart. coord. in units 2 pi/alat)
               b(1) = (  1.000000  0.000000  1.000000 )  
               b(2) = ( -1.000000  1.000000  0.000000 )  
               b(3) = (  0.000000 -1.000000  1.000000 )  


     PseudoPot. # 1 for Na read from file:
     /home/s1333534/quantum_espresso/qe-6.1/pseudo/Na_pbe_v1.uspp.F.UPF
     MD5 check sum: 76a99c7e9422403d3e93cbc85ab7bccb
     Pseudo is Ultrasoft, Zval =  9.0
     Generated by new atomic code, or converted to UPF format
     Using radial grid of  819 points,  5 beta functions with: 
                l(1) =   0
                l(2) =   0
                l(3) =   1
                l(4) =   1
                l(5) =   2
     Q(r) pseudized with  8 coefficients,  rinner =    1.250   1.250   1.250
                                                       1.250   1.250

     atomic species   valence    mass     pseudopotential
        Na             9.00    22.99000     Na( 1.00)

     48 Sym. Ops., with inversion, found



   Cartesian axes

     site n.     atom                  positions (alat units)
         1           Na  tau(   1) = (   0.0000000   0.0000000   0.0000000  )

     number of k points=   250  Marzari-Vanderbilt smearing, width (Ry)=  0.0200

     Number of k-points >= 100: set verbosity='high' to print them.

     Dense  grid:    24835 G-vectors     FFT dimensions: (  40,  40,  40)

     Smooth grid:     8685 G-vectors     FFT dimensions: (  27,  27,  27)

     Estimated max dynamical RAM per process >      13.36MB

     Estimated total allocated dynamical RAM >      53.44MB

     Initial potential from superposition of free atoms

     starting charge    8.99371, renormalised to    9.00000
     Starting wfc are    5 randomized atomic wfcs +    4 random wfc

     total cpu time spent up to now is        1.0 secs

     per-process dynamical memory:    19.6 Mb

     Self-consistent Calculation

     iteration #  1     ecut=    40.00 Ry     beta=0.70
     Davidson diagonalization with overlap
     ethr =  1.00E-02,  avg # of iterations =  5.8

     Threshold (ethr) on eigenvalues was too large:
     Diagonalizing with lowered threshold

     Davidson diagonalization with overlap
     ethr =  9.84E-06,  avg # of iterations =  4.8

     total cpu time spent up to now is        5.6 secs

     total energy              =     -95.10637787 Ry
     Harris-Foulkes estimate   =     -95.10656725 Ry
     estimated scf accuracy    <       0.00088332 Ry

     iteration #  2     ecut=    40.00 Ry     beta=0.70
     Davidson diagonalization with overlap
     ethr =  9.81E-06,  avg # of iterations =  2.0

     total cpu time spent up to now is        7.0 secs

     total energy              =     -95.10647616 Ry
     Harris-Foulkes estimate   =     -95.10649624 Ry
     estimated scf accuracy    <       0.00009724 Ry

     iteration #  3     ecut=    40.00 Ry     beta=0.70
     Davidson diagonalization with overlap
     ethr =  1.08E-06,  avg # of iterations =  2.1

     total cpu time spent up to now is        8.6 secs

     total energy              =     -95.10648758 Ry
     Harris-Foulkes estimate   =     -95.10648858 Ry
     estimated scf accuracy    <       0.00000602 Ry

     iteration #  4     ecut=    40.00 Ry     beta=0.70
     Davidson diagonalization with overlap
     ethr =  6.69E-08,  avg # of iterations =  1.0

     total cpu time spent up to now is       10.0 secs

     total energy              =     -95.10648815 Ry
     Harris-Foulkes estimate   =     -95.10648811 Ry
     estimated scf accuracy    <       0.00000001 Ry

     iteration #  5     ecut=    40.00 Ry     beta=0.70
     Davidson diagonalization with overlap
     ethr =  1.40E-10,  avg # of iterations =  3.0

     total cpu time spent up to now is       11.8 secs

     End of self-consistent calculation

     Number of k-points >= 100: set verbosity='high' to print the bands.

     the Fermi energy is     1.5119 ev

!    total energy              =     -95.10648818 Ry
     Harris-Foulkes estimate   =     -95.10648818 Ry
     estimated scf accuracy    <          1.7E-09 Ry

     The total energy is the sum of the following terms:

     one-electron contribution =     -88.63767028 Ry
     hartree contribution      =      44.64403185 Ry
     xc contribution           =     -14.26551967 Ry
     ewald contribution        =     -36.84723868 Ry
     smearing contrib. (-TS)   =      -0.00009141 Ry

     convergence has been achieved in   5 iterations

     Forces acting on atoms (cartesian axes, Ry/au):

     atom    1 type  1   force =     0.00000000    0.00000000    0.00000000

     Total force =     0.000000     Total SCF correction =     0.000000


     Computing stress (Cartesian axis) and pressure

          total   stress  (Ry/bohr**3)                   (kbar)     P=   -4.40
  -0.00002994  -0.00000000   0.00000000         -4.40     -0.00      0.00
  -0.00000000  -0.00002994   0.00000000         -0.00     -4.40      0.00
   0.00000000   0.00000000  -0.00002994          0.00      0.00     -4.40


     BFGS Geometry Optimization

     number of scf cycles    =   1
     number of bfgs steps    =   0

     enthalpy new            =     -95.0194755386 Ry

     new trust radius        =       0.0295866551 bohr
     new conv_thr            =       0.0000000100 Ry

     new unit-cell volume =    248.96465 a.u.^3 (    36.89275 Ang^3 )
     density =      1.03478 g/cm^3

CELL_PARAMETERS (alat=  8.00000000)
   0.495377085   0.495377085   0.495377085
  -0.495377085   0.495377085   0.495377085
  -0.495377085  -0.495377085   0.495377085

ATOMIC_POSITIONS (crystal)
Na       0.000000000   0.000000000   0.000000000



     Writing output data file na.bcc.save
     NEW-OLD atomic charge density approx. for the potential
     extrapolated charge    8.74585, renormalised to    9.00000

     total cpu time spent up to now is       13.2 secs

     per-process dynamical memory:    31.4 Mb

     Self-consistent Calculation

     iteration #  1     ecut=    40.00 Ry     beta=0.70
     Davidson diagonalization with overlap
     c_bands:  1 eigenvalues not converged
     ethr =  1.00E-06,  avg # of iterations =  4.5

     total cpu time spent up to now is       15.8 secs

     total energy              =     -95.06763544 Ry
     Harris-Foulkes estimate   =     -97.07979658 Ry
     estimated scf accuracy    <       0.02195271 Ry

     iteration #  2     ecut=    40.00 Ry     beta=0.70
     Davidson diagonalization with overlap
     ethr =  2.44E-04,  avg # of iterations =  2.9

     total cpu time spent up to now is       17.8 secs

     total energy              =     -95.10700751 Ry
     Harris-Foulkes estimate   =     -95.12306621 Ry
     estimated scf accuracy    <       0.03648986 Ry

     iteration #  3     ecut=    40.00 Ry     beta=0.70
     Davidson diagonalization with overlap
     ethr =  2.44E-04,  avg # of iterations =  2.0

     total cpu time spent up to now is       19.3 secs

     total energy              =     -95.10675483 Ry
     Harris-Foulkes estimate   =     -95.10958373 Ry
     estimated scf accuracy    <       0.00657536 Ry

     iteration #  4     ecut=    40.00 Ry     beta=0.70
     Davidson diagonalization with overlap
     ethr =  7.31E-05,  avg # of iterations =  1.0

     total cpu time spent up to now is       20.7 secs

     total energy              =     -95.10743713 Ry
     Harris-Foulkes estimate   =     -95.10720730 Ry
     estimated scf accuracy    <       0.00129565 Ry

     iteration #  5     ecut=    40.00 Ry     beta=0.70
     Davidson diagonalization with overlap
     ethr =  1.44E-05,  avg # of iterations =  1.0

     total cpu time spent up to now is       22.0 secs

     total energy              =     -95.10688515 Ry
     Harris-Foulkes estimate   =     -95.10746414 Ry
     estimated scf accuracy    <       0.00182958 Ry

     iteration #  6     ecut=    40.00 Ry     beta=0.70
     Davidson diagonalization with overlap
     ethr =  1.44E-05,  avg # of iterations =  1.0

     total cpu time spent up to now is       23.3 secs

     total energy              =     -95.10670539 Ry
     Harris-Foulkes estimate   =     -95.10695035 Ry
     estimated scf accuracy    <       0.00067043 Ry

     iteration #  7     ecut=    40.00 Ry     beta=0.70
     Davidson diagonalization with overlap
     ethr =  7.45E-06,  avg # of iterations =  1.0

     total cpu time spent up to now is       24.7 secs

     total energy              =     -95.10660843 Ry
     Harris-Foulkes estimate   =     -95.10673773 Ry
     estimated scf accuracy    <       0.00019482 Ry

     iteration #  8     ecut=    40.00 Ry     beta=0.70
     Davidson diagonalization with overlap
     ethr =  2.16E-06,  avg # of iterations =  2.1

     total cpu time spent up to now is       26.3 secs

     total energy              =     -95.10665037 Ry
     Harris-Foulkes estimate   =     -95.10665012 Ry
     estimated scf accuracy    <       0.00000020 Ry

     iteration #  9     ecut=    40.00 Ry     beta=0.70
     Davidson diagonalization with overlap
     ethr =  2.23E-09,  avg # of iterations =  2.1

     total cpu time spent up to now is       27.9 secs

     total energy              =     -95.10665016 Ry
     Harris-Foulkes estimate   =     -95.10665047 Ry
     estimated scf accuracy    <       0.00000100 Ry

     iteration # 10     ecut=    40.00 Ry     beta=0.70
     Davidson diagonalization with overlap
     ethr =  2.23E-09,  avg # of iterations =  2.0

     total cpu time spent up to now is       29.5 secs

     total energy              =     -95.10665074 Ry
     Harris-Foulkes estimate   =     -95.10665027 Ry
     estimated scf accuracy    <       0.00000078 Ry

     iteration # 11     ecut=    40.00 Ry     beta=0.70
     Davidson diagonalization with overlap
     ethr =  2.23E-09,  avg # of iterations =  1.6

     total cpu time spent up to now is       30.9 secs

     total energy              =     -95.10665391 Ry
     Harris-Foulkes estimate   =     -95.10665076 Ry
     estimated scf accuracy    <       0.00000274 Ry

     iteration # 12     ecut=    40.00 Ry     beta=0.70
     Davidson diagonalization with overlap
     ethr =  2.23E-09,  avg # of iterations =  2.0

     total cpu time spent up to now is       32.5 secs

     total energy              =     -95.10664976 Ry
     Harris-Foulkes estimate   =     -95.10665402 Ry
     estimated scf accuracy    <       0.00001551 Ry

     iteration # 13     ecut=    40.00 Ry     beta=0.70
     Davidson diagonalization with overlap
     ethr =  2.23E-09,  avg # of iterations =  2.2

     total cpu time spent up to now is       34.2 secs

     End of self-consistent calculation

     Number of k-points >= 100: set verbosity='high' to print the bands.

     the Fermi energy is     1.6267 ev

!    total energy              =     -95.10665008 Ry
     Harris-Foulkes estimate   =     -95.10665008 Ry
     estimated scf accuracy    <          3.9E-09 Ry

     The total energy is the sum of the following terms:

     one-electron contribution =     -88.03364621 Ry
     hartree contribution      =      44.38728805 Ry
     xc contribution           =     -14.26909780 Ry
     ewald contribution        =     -37.19110127 Ry
     smearing contrib. (-TS)   =      -0.00009284 Ry

     convergence has been achieved in  13 iterations

     Forces acting on atoms (cartesian axes, Ry/au):

     atom    1 type  1   force =     0.00000000    0.00000000    0.00000000

     Total force =     0.000000     Total SCF correction =     0.000000


     Computing stress (Cartesian axis) and pressure

          total   stress  (Ry/bohr**3)                   (kbar)     P=   -2.13
  -0.00001446   0.00000000  -0.00000000         -2.13      0.00     -0.00
   0.00000000  -0.00001446   0.00000000          0.00     -2.13      0.00
  -0.00000000   0.00000000  -0.00001446         -0.00      0.00     -2.13


     number of scf cycles    =   2
     number of bfgs steps    =   1

     enthalpy old            =     -95.0194755386 Ry
     enthalpy new            =     -95.0220286971 Ry

     CASE: enthalpy_new < enthalpy_old


     WARNING: bfgs curvature condition failed, Theta= 0.851
     new trust radius        =       0.0441743413 bohr
     new conv_thr            =            1.0E-10 Ry

     new unit-cell volume =    238.65517 a.u.^3 (    35.36505 Ang^3 )
     density =      1.07948 g/cm^3

CELL_PARAMETERS (alat=  8.00000000)
   0.488442713   0.488442713   0.488442713
  -0.488442713   0.488442713   0.488442713
  -0.488442713  -0.488442713   0.488442713

ATOMIC_POSITIONS (crystal)
Na       0.000000000   0.000000000   0.000000000



     Writing output data file na.bcc.save
     NEW-OLD atomic charge density approx. for the potential
     extrapolated charge    8.61149, renormalised to    9.00000

     total cpu time spent up to now is       35.6 secs

     per-process dynamical memory:    31.4 Mb

     Self-consistent Calculation

     iteration #  1     ecut=    40.00 Ry     beta=0.70
     Davidson diagonalization with overlap
     ethr =  1.00E-06,  avg # of iterations =  4.8

     total cpu time spent up to now is       38.2 secs

     total energy              =     -95.01972800 Ry
     Harris-Foulkes estimate   =     -98.07958398 Ry
     estimated scf accuracy    <       0.04922703 Ry

     iteration #  2     ecut=    40.00 Ry     beta=0.70
     Davidson diagonalization with overlap
     ethr =  5.47E-04,  avg # of iterations =  2.8

     total cpu time spent up to now is       40.2 secs

     total energy              =     -95.10701187 Ry
     Harris-Foulkes estimate   =     -95.14283960 Ry
     estimated scf accuracy    <       0.08125297 Ry

     iteration #  3     ecut=    40.00 Ry     beta=0.70
     Davidson diagonalization with overlap
     ethr =  5.47E-04,  avg # of iterations =  2.0

     total cpu time spent up to now is       41.7 secs

     total energy              =     -95.10667061 Ry
     Harris-Foulkes estimate   =     -95.11293311 Ry
     estimated scf accuracy    <       0.01412748 Ry

     iteration #  4     ecut=    40.00 Ry     beta=0.70
     Davidson diagonalization with overlap
     ethr =  1.57E-04,  avg # of iterations =  1.0

     total cpu time spent up to now is       43.1 secs

     total energy              =     -95.10774328 Ry
     Harris-Foulkes estimate   =     -95.10771750 Ry
     estimated scf accuracy    <       0.00251060 Ry

     iteration #  5     ecut=    40.00 Ry     beta=0.70
     Davidson diagonalization with overlap
     ethr =  2.79E-05,  avg # of iterations =  1.0

     total cpu time spent up to now is       44.4 secs

     total energy              =     -95.10685860 Ry
     Harris-Foulkes estimate   =     -95.10778899 Ry
     estimated scf accuracy    <       0.00262846 Ry

     iteration #  6     ecut=    40.00 Ry     beta=0.70
     Davidson diagonalization with overlap
     ethr =  2.79E-05,  avg # of iterations =  1.0

     total cpu time spent up to now is       45.8 secs

     total energy              =     -95.10679944 Ry
     Harris-Foulkes estimate   =     -95.10699283 Ry
     estimated scf accuracy    <       0.00076646 Ry

     iteration #  7     ecut=    40.00 Ry     beta=0.70
     Davidson diagonalization with overlap
     ethr =  8.52E-06,  avg # of iterations =  1.0

     total cpu time spent up to now is       47.1 secs

     total energy              =     -95.10681047 Ry
     Harris-Foulkes estimate   =     -95.10681999 Ry
     estimated scf accuracy    <       0.00035932 Ry

     iteration #  8     ecut=    40.00 Ry     beta=0.70
     Davidson diagonalization with overlap
     ethr =  3.99E-06,  avg # of iterations =  1.1

     total cpu time spent up to now is       48.4 secs

     total energy              =     -95.10657963 Ry
     Harris-Foulkes estimate   =     -95.10681165 Ry
     estimated scf accuracy    <       0.00035059 Ry

     iteration #  9     ecut=    40.00 Ry     beta=0.70
     Davidson diagonalization with overlap
     ethr =  3.90E-06,  avg # of iterations =  2.0

     total cpu time spent up to now is       50.0 secs

     total energy              =     -95.10665464 Ry
     Harris-Foulkes estimate   =     -95.10665465 Ry
     estimated scf accuracy    <       0.00000002 Ry

     iteration # 10     ecut=    40.00 Ry     beta=0.70
     Davidson diagonalization with overlap
     ethr =  1.91E-10,  avg # of iterations =  3.0

     total cpu time spent up to now is       51.9 secs

     total energy              =     -95.10665470 Ry
     Harris-Foulkes estimate   =     -95.10665471 Ry
     estimated scf accuracy    <       0.00000004 Ry

     iteration # 11     ecut=    40.00 Ry     beta=0.70
     Davidson diagonalization with overlap
     ethr =  1.91E-10,  avg # of iterations =  1.0

     total cpu time spent up to now is       53.2 secs

     total energy              =     -95.10665469 Ry
     Harris-Foulkes estimate   =     -95.10665470 Ry
     estimated scf accuracy    <       0.00000002 Ry

     iteration # 12     ecut=    40.00 Ry     beta=0.70
     Davidson diagonalization with overlap
     ethr =  1.91E-10,  avg # of iterations =  2.0

     total cpu time spent up to now is       54.8 secs

     total energy              =     -95.10665470 Ry
     Harris-Foulkes estimate   =     -95.10665470 Ry
     estimated scf accuracy    <          1.9E-09 Ry

     iteration # 13     ecut=    40.00 Ry     beta=0.70
     Davidson diagonalization with overlap
     ethr =  2.11E-11,  avg # of iterations =  2.0

     total cpu time spent up to now is       56.5 secs

     total energy              =     -95.10665469 Ry
     Harris-Foulkes estimate   =     -95.10665470 Ry
     estimated scf accuracy    <       0.00000002 Ry

     iteration # 14     ecut=    40.00 Ry     beta=0.70
     Davidson diagonalization with overlap
     ethr =  2.11E-11,  avg # of iterations =  2.2

     total cpu time spent up to now is       58.1 secs

     total energy              =     -95.10665470 Ry
     Harris-Foulkes estimate   =     -95.10665470 Ry
     estimated scf accuracy    <          1.3E-09 Ry

     iteration # 15     ecut=    40.00 Ry     beta=0.70
     Davidson diagonalization with overlap
     ethr =  1.49E-11,  avg # of iterations =  1.0

     total cpu time spent up to now is       59.4 secs

     total energy              =     -95.10665470 Ry
     Harris-Foulkes estimate   =     -95.10665470 Ry
     estimated scf accuracy    <          6.5E-10 Ry

     iteration # 16     ecut=    40.00 Ry     beta=0.70
     Davidson diagonalization with overlap
     ethr =  7.18E-12,  avg # of iterations =  1.0

     total cpu time spent up to now is       60.8 secs

     total energy              =     -95.10665469 Ry
     Harris-Foulkes estimate   =     -95.10665470 Ry
     estimated scf accuracy    <          1.2E-09 Ry

     iteration # 17     ecut=    40.00 Ry     beta=0.70
     Davidson diagonalization with overlap
     ethr =  7.18E-12,  avg # of iterations =  2.0

     total cpu time spent up to now is       62.4 secs

     total energy              =     -95.10665470 Ry
     Harris-Foulkes estimate   =     -95.10665470 Ry
     estimated scf accuracy    <          6.7E-10 Ry

     iteration # 18     ecut=    40.00 Ry     beta=0.70
     Davidson diagonalization with overlap
     ethr =  7.18E-12,  avg # of iterations =  1.0

     total cpu time spent up to now is       63.7 secs

     total energy              =     -95.10665470 Ry
     Harris-Foulkes estimate   =     -95.10665470 Ry
     estimated scf accuracy    <          5.6E-10 Ry

     iteration # 19     ecut=    40.00 Ry     beta=0.70
     Davidson diagonalization with overlap
     ethr =  6.28E-12,  avg # of iterations =  1.0

     total cpu time spent up to now is       65.1 secs

     total energy              =     -95.10665470 Ry
     Harris-Foulkes estimate   =     -95.10665470 Ry
     estimated scf accuracy    <          1.9E-10 Ry

     iteration # 20     ecut=    40.00 Ry     beta=0.70
     Davidson diagonalization with overlap
     ethr =  2.12E-12,  avg # of iterations =  1.0

     total cpu time spent up to now is       66.4 secs

     total energy              =     -95.10665470 Ry
     Harris-Foulkes estimate   =     -95.10665470 Ry
     estimated scf accuracy    <          1.4E-10 Ry

     iteration # 21     ecut=    40.00 Ry     beta=0.70
     Davidson diagonalization with overlap
     ethr =  1.59E-12,  avg # of iterations =  2.0

     total cpu time spent up to now is       67.9 secs

     End of self-consistent calculation

     Number of k-points >= 100: set verbosity='high' to print the bands.

     the Fermi energy is     1.8075 ev

!    total energy              =     -95.10665470 Ry
     Harris-Foulkes estimate   =     -95.10665470 Ry
     estimated scf accuracy    <          4.3E-13 Ry

     The total energy is the sum of the following terms:

     one-electron contribution =     -87.10748241 Ry
     hartree contribution      =      43.99473572 Ry
     xc contribution           =     -14.27471339 Ry
     ewald contribution        =     -37.71909962 Ry
     smearing contrib. (-TS)   =      -0.00009500 Ry

     convergence has been achieved in  21 iterations

     Forces acting on atoms (cartesian axes, Ry/au):

     atom    1 type  1   force =     0.00000000    0.00000000    0.00000000

     Total force =     0.000000     Total SCF correction =     0.000000


     Computing stress (Cartesian axis) and pressure

          total   stress  (Ry/bohr**3)                   (kbar)     P=    2.11
   0.00001437  -0.00000000   0.00000000          2.11     -0.00      0.00
  -0.00000000   0.00001437  -0.00000000         -0.00      2.11     -0.00
   0.00000000  -0.00000000   0.00001437          0.00     -0.00      2.11


     number of scf cycles    =   3
     number of bfgs steps    =   2

     enthalpy old            =     -95.0220286971 Ry
     enthalpy new            =     -95.0255374362 Ry

     CASE: enthalpy_new < enthalpy_old

     new trust radius        =       0.0657961076 bohr
     new conv_thr            =            1.0E-10 Ry

     new unit-cell volume =    223.73082 a.u.^3 (    33.15349 Ang^3 )
     density =      1.15149 g/cm^3

CELL_PARAMETERS (alat=  8.00000000)
   0.478041154   0.478041154   0.478041154
  -0.478041154   0.478041154   0.478041154
  -0.478041154  -0.478041154   0.478041154

ATOMIC_POSITIONS (crystal)
Na       0.000000000   0.000000000   0.000000000



     Writing output data file na.bcc.save
     NEW-OLD atomic charge density approx. for the potential
     extrapolated charge    8.40006, renormalised to    9.00000

     total cpu time spent up to now is       69.3 secs

     per-process dynamical memory:    31.4 Mb

     Self-consistent Calculation

     iteration #  1     ecut=    40.00 Ry     beta=0.70
     Davidson diagonalization with overlap
     ethr =  1.00E-06,  avg # of iterations =  5.3

     total cpu time spent up to now is       72.1 secs

     total energy              =     -94.91297862 Ry
     Harris-Foulkes estimate   =     -99.59167022 Ry
     estimated scf accuracy    <       0.11070200 Ry

     iteration #  2     ecut=    40.00 Ry     beta=0.70
     Davidson diagonalization with overlap
     ethr =  1.23E-03,  avg # of iterations =  2.7

     total cpu time spent up to now is       74.1 secs

     total energy              =     -95.10534460 Ry
     Harris-Foulkes estimate   =     -95.18509377 Ry
     estimated scf accuracy    <       0.18010498 Ry

     iteration #  3     ecut=    40.00 Ry     beta=0.70
     Davidson diagonalization with overlap
     ethr =  1.23E-03,  avg # of iterations =  2.0

     total cpu time spent up to now is       75.6 secs

     total energy              =     -95.10661296 Ry
     Harris-Foulkes estimate   =     -95.11911767 Ry
     estimated scf accuracy    <       0.02957628 Ry

     iteration #  4     ecut=    40.00 Ry     beta=0.70
     Davidson diagonalization with overlap
     ethr =  3.29E-04,  avg # of iterations =  1.0

     total cpu time spent up to now is       77.0 secs

     total energy              =     -95.10742619 Ry
     Harris-Foulkes estimate   =     -95.10861367 Ry
     estimated scf accuracy    <       0.00596097 Ry

     iteration #  5     ecut=    40.00 Ry     beta=0.70
     Davidson diagonalization with overlap
     ethr =  6.62E-05,  avg # of iterations =  1.0

     total cpu time spent up to now is       78.3 secs

     total energy              =     -95.10679590 Ry
     Harris-Foulkes estimate   =     -95.10760800 Ry
     estimated scf accuracy    <       0.00335072 Ry

     iteration #  6     ecut=    40.00 Ry     beta=0.70
     Davidson diagonalization with overlap
     ethr =  3.72E-05,  avg # of iterations =  1.0

     total cpu time spent up to now is       79.6 secs

     total energy              =     -95.10556361 Ry
     Harris-Foulkes estimate   =     -95.10685302 Ry
     estimated scf accuracy    <       0.00172470 Ry

     iteration #  7     ecut=    40.00 Ry     beta=0.70
     Davidson diagonalization with overlap
     ethr =  1.92E-05,  avg # of iterations =  2.0

     total cpu time spent up to now is       81.2 secs

     total energy              =     -95.10613555 Ry
     Harris-Foulkes estimate   =     -95.10611280 Ry
     estimated scf accuracy    <       0.00008353 Ry

     iteration #  8     ecut=    40.00 Ry     beta=0.70
     Davidson diagonalization with overlap
     ethr =  9.28E-07,  avg # of iterations =  2.0

     total cpu time spent up to now is       82.7 secs

     total energy              =     -95.10604860 Ry
     Harris-Foulkes estimate   =     -95.10613717 Ry
     estimated scf accuracy    <       0.00013587 Ry

     iteration #  9     ecut=    40.00 Ry     beta=0.70
     Davidson diagonalization with overlap
     ethr =  9.28E-07,  avg # of iterations =  2.0

     total cpu time spent up to now is       84.3 secs

     total energy              =     -95.10607485 Ry
     Harris-Foulkes estimate   =     -95.10607498 Ry
     estimated scf accuracy    <       0.00000020 Ry

     iteration # 10     ecut=    40.00 Ry     beta=0.70
     Davidson diagonalization with overlap
     ethr =  2.27E-09,  avg # of iterations =  3.0

     total cpu time spent up to now is       86.1 secs

     total energy              =     -95.10607475 Ry
     Harris-Foulkes estimate   =     -95.10607520 Ry
     estimated scf accuracy    <       0.00000066 Ry

     iteration # 11     ecut=    40.00 Ry     beta=0.70
     Davidson diagonalization with overlap
     ethr =  2.27E-09,  avg # of iterations =  2.0

     total cpu time spent up to now is       87.8 secs

     total energy              =     -95.10607490 Ry
     Harris-Foulkes estimate   =     -95.10607490 Ry
     estimated scf accuracy    <          2.9E-09 Ry

     iteration # 12     ecut=    40.00 Ry     beta=0.70
     Davidson diagonalization with overlap
     ethr =  3.23E-11,  avg # of iterations =  1.0

     total cpu time spent up to now is       89.1 secs

     total energy              =     -95.10607490 Ry
     Harris-Foulkes estimate   =     -95.10607490 Ry
     estimated scf accuracy    <          1.3E-09 Ry

     iteration # 13     ecut=    40.00 Ry     beta=0.70
     Davidson diagonalization with overlap
     ethr =  1.46E-11,  avg # of iterations =  1.0

     total cpu time spent up to now is       90.4 secs

     total energy              =     -95.10607490 Ry
     Harris-Foulkes estimate   =     -95.10607490 Ry
     estimated scf accuracy    <          6.2E-10 Ry

     iteration # 14     ecut=    40.00 Ry     beta=0.70
     Davidson diagonalization with overlap
     ethr =  6.93E-12,  avg # of iterations =  1.0

     total cpu time spent up to now is       91.8 secs

     total energy              =     -95.10607490 Ry
     Harris-Foulkes estimate   =     -95.10607490 Ry
     estimated scf accuracy    <          1.3E-09 Ry

     iteration # 15     ecut=    40.00 Ry     beta=0.70
     Davidson diagonalization with overlap
     ethr =  6.93E-12,  avg # of iterations =  2.0

     total cpu time spent up to now is       93.4 secs

     End of self-consistent calculation

     Number of k-points >= 100: set verbosity='high' to print the bands.

     the Fermi energy is     2.1001 ev

!    total energy              =     -95.10607490 Ry
     Harris-Foulkes estimate   =     -95.10607490 Ry
     estimated scf accuracy    <          1.8E-12 Ry

     The total energy is the sum of the following terms:

     one-electron contribution =     -85.67021165 Ry
     hartree contribution      =      43.38759872 Ry
     xc contribution           =     -14.28354528 Ry
     ewald contribution        =     -38.53981854 Ry
     smearing contrib. (-TS)   =      -0.00009815 Ry

     convergence has been achieved in  15 iterations

     Forces acting on atoms (cartesian axes, Ry/au):

     atom    1 type  1   force =     0.00000000    0.00000000    0.00000000

     Total force =     0.000000     Total SCF correction =     0.000000


     Computing stress (Cartesian axis) and pressure

          total   stress  (Ry/bohr**3)                   (kbar)     P=    9.62
   0.00006540  -0.00000000  -0.00000000          9.62     -0.00     -0.00
   0.00000000   0.00006540   0.00000000          0.00      9.62      0.00
   0.00000000   0.00000000   0.00006540          0.00      0.00      9.62


     number of scf cycles    =   4
     number of bfgs steps    =   3

     enthalpy old            =     -95.0255374362 Ry
     enthalpy new            =     -95.0300303268 Ry

     CASE: enthalpy_new < enthalpy_old

     new trust radius        =       0.0976376431 bohr
     new conv_thr            =            1.0E-10 Ry

     new unit-cell volume =    202.53160 a.u.^3 (    30.01209 Ang^3 )
     density =      1.27201 g/cm^3

CELL_PARAMETERS (alat=  8.00000000)
   0.462438816   0.462438816   0.462438816
  -0.462438816   0.462438816   0.462438816
  -0.462438816  -0.462438816   0.462438816

ATOMIC_POSITIONS (crystal)
Na       0.000000000   0.000000000   0.000000000



     Writing output data file na.bcc.save
     NEW-OLD atomic charge density approx. for the potential
     extrapolated charge    8.05862, renormalised to    9.00000

     total cpu time spent up to now is       95.0 secs

     per-process dynamical memory:    31.4 Mb

     Self-consistent Calculation

     iteration #  1     ecut=    40.00 Ry     beta=0.70
     Davidson diagonalization with overlap
     ethr =  1.00E-06,  avg # of iterations =  6.1

     total cpu time spent up to now is       98.0 secs

     total energy              =     -94.67601293 Ry
     Harris-Foulkes estimate   =    -101.87859807 Ry
     estimated scf accuracy    <       0.25177892 Ry

     iteration #  2     ecut=    40.00 Ry     beta=0.70
     Davidson diagonalization with overlap
     ethr =  2.80E-03,  avg # of iterations =  2.6

     total cpu time spent up to now is      100.0 secs

     total energy              =     -95.09667158 Ry
     Harris-Foulkes estimate   =     -95.27370028 Ry
     estimated scf accuracy    <       0.39607930 Ry

     iteration #  3     ecut=    40.00 Ry     beta=0.70
     Davidson diagonalization with overlap
     ethr =  2.80E-03,  avg # of iterations =  2.0

     total cpu time spent up to now is      101.5 secs

     total energy              =     -95.10560851 Ry
     Harris-Foulkes estimate   =     -95.12935003 Ry
     estimated scf accuracy    <       0.05898222 Ry

     iteration #  4     ecut=    40.00 Ry     beta=0.70
     Davidson diagonalization with overlap
     ethr =  6.55E-04,  avg # of iterations =  1.0

     total cpu time spent up to now is      102.8 secs

     total energy              =     -95.10484582 Ry
     Harris-Foulkes estimate   =     -95.10934610 Ry
     estimated scf accuracy    <       0.01314938 Ry

     iteration #  5     ecut=    40.00 Ry     beta=0.70
     Davidson diagonalization with overlap
     ethr =  1.46E-04,  avg # of iterations =  1.1

     total cpu time spent up to now is      104.2 secs

     total energy              =     -95.10446859 Ry
     Harris-Foulkes estimate   =     -95.10557104 Ry
     estimated scf accuracy    <       0.00402792 Ry

     iteration #  6     ecut=    40.00 Ry     beta=0.70
     Davidson diagonalization with overlap
     ethr =  4.48E-05,  avg # of iterations =  1.1

     total cpu time spent up to now is      105.5 secs

     total energy              =     -95.10333364 Ry
     Harris-Foulkes estimate   =     -95.10457617 Ry
     estimated scf accuracy    <       0.00184453 Ry

     iteration #  7     ecut=    40.00 Ry     beta=0.70
     Davidson diagonalization with overlap
     ethr =  2.05E-05,  avg # of iterations =  2.1

     total cpu time spent up to now is      107.1 secs

     total energy              =     -95.10374104 Ry
     Harris-Foulkes estimate   =     -95.10372758 Ry
     estimated scf accuracy    <       0.00000032 Ry

     iteration #  8     ecut=    40.00 Ry     beta=0.70
     Davidson diagonalization with overlap
     ethr =  3.55E-09,  avg # of iterations =  3.1

     total cpu time spent up to now is      109.2 secs

     total energy              =     -95.10372290 Ry
     Harris-Foulkes estimate   =     -95.10375004 Ry
     estimated scf accuracy    <       0.00004895 Ry

     iteration #  9     ecut=    40.00 Ry     beta=0.70
     Davidson diagonalization with overlap
     ethr =  3.55E-09,  avg # of iterations =  3.0

     total cpu time spent up to now is      111.0 secs

     total energy              =     -95.10372723 Ry
     Harris-Foulkes estimate   =     -95.10372895 Ry
     estimated scf accuracy    <       0.00000263 Ry

     iteration # 10     ecut=    40.00 Ry     beta=0.70
     Davidson diagonalization with overlap
     ethr =  3.55E-09,  avg # of iterations =  2.8

     total cpu time spent up to now is      112.8 secs

     total energy              =     -95.10372774 Ry
     Harris-Foulkes estimate   =     -95.10372774 Ry
     estimated scf accuracy    <          6.7E-09 Ry

     iteration # 11     ecut=    40.00 Ry     beta=0.70
     Davidson diagonalization with overlap
     ethr =  7.44E-11,  avg # of iterations =  2.0

     total cpu time spent up to now is      114.3 secs

     total energy              =     -95.10372774 Ry
     Harris-Foulkes estimate   =     -95.10372775 Ry
     estimated scf accuracy    <       0.00000001 Ry

     iteration # 12     ecut=    40.00 Ry     beta=0.70
     Davidson diagonalization with overlap
     ethr =  7.44E-11,  avg # of iterations =  1.6

     total cpu time spent up to now is      115.8 secs

     total energy              =     -95.10372774 Ry
     Harris-Foulkes estimate   =     -95.10372774 Ry
     estimated scf accuracy    <          1.0E-09 Ry

     iteration # 13     ecut=    40.00 Ry     beta=0.70
     Davidson diagonalization with overlap
     ethr =  1.11E-11,  avg # of iterations =  1.3

     total cpu time spent up to now is      117.1 secs

     total energy              =     -95.10372774 Ry
     Harris-Foulkes estimate   =     -95.10372774 Ry
     estimated scf accuracy    <          4.6E-10 Ry

     iteration # 14     ecut=    40.00 Ry     beta=0.70
     Davidson diagonalization with overlap
     ethr =  5.10E-12,  avg # of iterations =  2.0

     total cpu time spent up to now is      118.7 secs

     End of self-consistent calculation

     Number of k-points >= 100: set verbosity='high' to print the bands.

     the Fermi energy is     2.5932 ev

!    total energy              =     -95.10372774 Ry
     Harris-Foulkes estimate   =     -95.10372774 Ry
     estimated scf accuracy    <          1.2E-11 Ry

     The total energy is the sum of the following terms:

     one-electron contribution =     -83.39901717 Ry
     hartree contribution      =      42.43332693 Ry
     xc contribution           =     -14.29781225 Ry
     ewald contribution        =     -39.84012303 Ry
     smearing contrib. (-TS)   =      -0.00010222 Ry

     convergence has been achieved in  14 iterations

     Forces acting on atoms (cartesian axes, Ry/au):

     atom    1 type  1   force =     0.00000000    0.00000000    0.00000000

     Total force =     0.000000     Total SCF correction =     0.000000


     Computing stress (Cartesian axis) and pressure

          total   stress  (Ry/bohr**3)                   (kbar)     P=   23.76
   0.00016150   0.00000000  -0.00000000         23.76      0.00     -0.00
   0.00000000   0.00016150   0.00000000          0.00     23.76      0.00
  -0.00000000   0.00000000   0.00016150         -0.00      0.00     23.76


     number of scf cycles    =   5
     number of bfgs steps    =   4

     enthalpy old            =     -95.0300303268 Ry
     enthalpy new            =     -95.0348886378 Ry

     CASE: enthalpy_new < enthalpy_old

     new trust radius        =       0.1440466105 bohr
     new conv_thr            =            1.0E-10 Ry

     new unit-cell volume =    173.31187 a.u.^3 (    25.68217 Ang^3 )
     density =      1.48647 g/cm^3

CELL_PARAMETERS (alat=  8.00000000)
   0.439035310   0.439035310   0.439035310
  -0.439035310   0.439035310   0.439035310
  -0.439035310  -0.439035310   0.439035310

ATOMIC_POSITIONS (crystal)
Na       0.000000000   0.000000000   0.000000000



     Writing output data file na.bcc.save
     NEW-OLD atomic charge density approx. for the potential
     extrapolated charge    7.48369, renormalised to    9.00000

     total cpu time spent up to now is      120.1 secs

     per-process dynamical memory:    31.4 Mb

     Self-consistent Calculation

     iteration #  1     ecut=    40.00 Ry     beta=0.70
     Davidson diagonalization with overlap
     ethr =  1.00E-06,  avg # of iterations =  6.6

     total cpu time spent up to now is      123.3 secs

     total energy              =     -94.14983513 Ry
     Harris-Foulkes estimate   =    -105.30511347 Ry
     estimated scf accuracy    <       0.59281233 Ry

     iteration #  2     ecut=    40.00 Ry     beta=0.70
     Davidson diagonalization with overlap
     ethr =  6.59E-03,  avg # of iterations =  2.4

     total cpu time spent up to now is      125.2 secs

     total energy              =     -95.06066798 Ry
     Harris-Foulkes estimate   =     -95.45161796 Ry
     estimated scf accuracy    <       0.85547011 Ry

     iteration #  3     ecut=    40.00 Ry     beta=0.70
     Davidson diagonalization with overlap
     ethr =  6.59E-03,  avg # of iterations =  2.0

     total cpu time spent up to now is      126.7 secs

     total energy              =     -95.09792802 Ry
     Harris-Foulkes estimate   =     -95.14062554 Ry
     estimated scf accuracy    <       0.10585538 Ry

     iteration #  4     ecut=    40.00 Ry     beta=0.70
     Davidson diagonalization with overlap
     ethr =  1.18E-03,  avg # of iterations =  1.2

     total cpu time spent up to now is      128.0 secs

     total energy              =     -95.09663133 Ry
     Harris-Foulkes estimate   =     -95.10558374 Ry
     estimated scf accuracy    <       0.02198986 Ry

     iteration #  5     ecut=    40.00 Ry     beta=0.70
     Davidson diagonalization with overlap
     ethr =  2.44E-04,  avg # of iterations =  1.3

     total cpu time spent up to now is      129.4 secs

     total energy              =     -95.09568586 Ry
     Harris-Foulkes estimate   =     -95.09829970 Ry
     estimated scf accuracy    <       0.00460537 Ry

     iteration #  6     ecut=    40.00 Ry     beta=0.70
     Davidson diagonalization with overlap
     ethr =  5.12E-05,  avg # of iterations =  2.2

     total cpu time spent up to now is      130.9 secs

     total energy              =     -95.09616506 Ry
     Harris-Foulkes estimate   =     -95.09631895 Ry
     estimated scf accuracy    <       0.00020649 Ry

     iteration #  7     ecut=    40.00 Ry     beta=0.70
     Davidson diagonalization with overlap
     ethr =  2.29E-06,  avg # of iterations =  2.8

     total cpu time spent up to now is      132.7 secs

     total energy              =     -95.09623214 Ry
     Harris-Foulkes estimate   =     -95.09624099 Ry
     estimated scf accuracy    <       0.00001053 Ry

     iteration #  8     ecut=    40.00 Ry     beta=0.70
     Davidson diagonalization with overlap
     ethr =  1.17E-07,  avg # of iterations =  2.0

     total cpu time spent up to now is      134.3 secs

     total energy              =     -95.09623627 Ry
     Harris-Foulkes estimate   =     -95.09623908 Ry
     estimated scf accuracy    <       0.00000632 Ry

     iteration #  9     ecut=    40.00 Ry     beta=0.70
     Davidson diagonalization with overlap
     ethr =  7.03E-08,  avg # of iterations =  1.0

     total cpu time spent up to now is      135.6 secs

     total energy              =     -95.09623597 Ry
     Harris-Foulkes estimate   =     -95.09623672 Ry
     estimated scf accuracy    <       0.00000104 Ry

     iteration # 10     ecut=    40.00 Ry     beta=0.70
     Davidson diagonalization with overlap
     ethr =  1.15E-08,  avg # of iterations =  2.0

     total cpu time spent up to now is      137.2 secs

     total energy              =     -95.09623629 Ry
     Harris-Foulkes estimate   =     -95.09623632 Ry
     estimated scf accuracy    <       0.00000005 Ry

     iteration # 11     ecut=    40.00 Ry     beta=0.70
     Davidson diagonalization with overlap
     ethr =  5.09E-10,  avg # of iterations =  2.0

     total cpu time spent up to now is      138.8 secs

     total energy              =     -95.09623630 Ry
     Harris-Foulkes estimate   =     -95.09623630 Ry
     estimated scf accuracy    <          4.2E-10 Ry

     iteration # 12     ecut=    40.00 Ry     beta=0.70
     Davidson diagonalization with overlap
     ethr =  4.71E-12,  avg # of iterations =  1.1

     total cpu time spent up to now is      140.2 secs

     End of self-consistent calculation

     Number of k-points >= 100: set verbosity='high' to print the bands.

     the Fermi energy is     3.4808 ev

!    total energy              =     -95.09623630 Ry
     Harris-Foulkes estimate   =     -95.09623630 Ry
     estimated scf accuracy    <          4.5E-11 Ry

     The total energy is the sum of the following terms:

     one-electron contribution =     -79.70536068 Ry
     hartree contribution      =      40.89495408 Ry
     xc contribution           =     -14.32185720 Ry
     ewald contribution        =     -41.96386699 Ry
     smearing contrib. (-TS)   =      -0.00010550 Ry

     convergence has been achieved in  12 iterations

     Forces acting on atoms (cartesian axes, Ry/au):

     atom    1 type  1   force =     0.00000000    0.00000000    0.00000000

     Total force =     0.000000     Total SCF correction =     0.000000


     Computing stress (Cartesian axis) and pressure

          total   stress  (Ry/bohr**3)                   (kbar)     P=   54.55
   0.00037081  -0.00000000   0.00000000         54.55     -0.00      0.00
  -0.00000000   0.00037081  -0.00000000         -0.00     54.55     -0.00
   0.00000000   0.00000000   0.00037081          0.00      0.00     54.55


     number of scf cycles    =   6
     number of bfgs steps    =   5

     enthalpy old            =     -95.0348886378 Ry
     enthalpy new            =     -95.0373287830 Ry

     CASE: enthalpy_new < enthalpy_old

     new trust radius        =       0.0189601689 bohr
     new conv_thr            =            1.0E-10 Ry

     new unit-cell volume =    177.08300 a.u.^3 (    26.24099 Ang^3 )
     density =      1.45482 g/cm^3

CELL_PARAMETERS (alat=  8.00000000)
   0.442196841   0.442196841   0.442196841
  -0.442196841   0.442196841   0.442196841
  -0.442196841  -0.442196841   0.442196841

ATOMIC_POSITIONS (crystal)
Na       0.000000000   0.000000000   0.000000000



     Writing output data file na.bcc.save
     NEW-OLD atomic charge density approx. for the potential
     extrapolated charge    9.19153, renormalised to    9.00000

     total cpu time spent up to now is      141.6 secs

     per-process dynamical memory:    31.4 Mb

     Self-consistent Calculation

     iteration #  1     ecut=    40.00 Ry     beta=0.70
     Davidson diagonalization with overlap
     ethr =  1.00E-06,  avg # of iterations =  3.5

     total cpu time spent up to now is      144.0 secs

     total energy              =     -95.07231832 Ry
     Harris-Foulkes estimate   =     -93.73985805 Ry
     estimated scf accuracy    <       0.01410380 Ry

     iteration #  2     ecut=    40.00 Ry     beta=0.70
     Davidson diagonalization with overlap
     ethr =  1.57E-04,  avg # of iterations =  3.0

     total cpu time spent up to now is      146.0 secs

     total energy              =     -95.09821832 Ry
     Harris-Foulkes estimate   =     -95.10859538 Ry
     estimated scf accuracy    <       0.02367772 Ry

     iteration #  3     ecut=    40.00 Ry     beta=0.70
     Davidson diagonalization with overlap
     ethr =  1.57E-04,  avg # of iterations =  1.3

     total cpu time spent up to now is      147.4 secs

     total energy              =     -95.09825804 Ry
     Harris-Foulkes estimate   =     -95.09970710 Ry
     estimated scf accuracy    <       0.00481600 Ry

     iteration #  4     ecut=    40.00 Ry     beta=0.70
     Davidson diagonalization with overlap
     ethr =  5.35E-05,  avg # of iterations =  1.0

     total cpu time spent up to now is      148.8 secs

     total energy              =     -95.09794253 Ry
     Harris-Foulkes estimate   =     -95.09843875 Ry
     estimated scf accuracy    <       0.00186261 Ry

     iteration #  5     ecut=    40.00 Ry     beta=0.70
     Davidson diagonalization with overlap
     ethr =  2.07E-05,  avg # of iterations =  1.0

     total cpu time spent up to now is      150.1 secs

     total energy              =     -95.09769422 Ry
     Harris-Foulkes estimate   =     -95.09798451 Ry
     estimated scf accuracy    <       0.00088253 Ry

     iteration #  6     ecut=    40.00 Ry     beta=0.70
     Davidson diagonalization with overlap
     ethr =  9.81E-06,  avg # of iterations =  1.0

     total cpu time spent up to now is      151.4 secs

     total energy              =     -95.09756485 Ry
     Harris-Foulkes estimate   =     -95.09772142 Ry
     estimated scf accuracy    <       0.00032969 Ry

     iteration #  7     ecut=    40.00 Ry     beta=0.70
     Davidson diagonalization with overlap
     ethr =  3.66E-06,  avg # of iterations =  1.0

     total cpu time spent up to now is      152.8 secs

     total energy              =     -95.09756892 Ry
     Harris-Foulkes estimate   =     -95.09759156 Ry
     estimated scf accuracy    <       0.00004869 Ry

     iteration #  8     ecut=    40.00 Ry     beta=0.70
     Davidson diagonalization with overlap
     ethr =  5.41E-07,  avg # of iterations =  2.0

     total cpu time spent up to now is      154.2 secs

     total energy              =     -95.09756994 Ry
     Harris-Foulkes estimate   =     -95.09757388 Ry
     estimated scf accuracy    <       0.00000741 Ry

     iteration #  9     ecut=    40.00 Ry     beta=0.70
     Davidson diagonalization with overlap
     ethr =  8.24E-08,  avg # of iterations =  1.8

     total cpu time spent up to now is      155.7 secs

     total energy              =     -95.09757041 Ry
     Harris-Foulkes estimate   =     -95.09757080 Ry
     estimated scf accuracy    <       0.00000067 Ry

     iteration # 10     ecut=    40.00 Ry     beta=0.70
     Davidson diagonalization with overlap
     ethr =  7.45E-09,  avg # of iterations =  2.0

     total cpu time spent up to now is      157.2 secs

     total energy              =     -95.09757050 Ry
     Harris-Foulkes estimate   =     -95.09757052 Ry
     estimated scf accuracy    <       0.00000002 Ry

     iteration # 11     ecut=    40.00 Ry     beta=0.70
     Davidson diagonalization with overlap
     ethr =  2.74E-10,  avg # of iterations =  2.0

     total cpu time spent up to now is      158.8 secs

     total energy              =     -95.09757051 Ry
     Harris-Foulkes estimate   =     -95.09757052 Ry
     estimated scf accuracy    <       0.00000001 Ry

     iteration # 12     ecut=    40.00 Ry     beta=0.70
     Davidson diagonalization with overlap
     ethr =  1.53E-10,  avg # of iterations =  1.0

     total cpu time spent up to now is      160.2 secs

     total energy              =     -95.09757051 Ry
     Harris-Foulkes estimate   =     -95.09757051 Ry
     estimated scf accuracy    <          2.4E-09 Ry

     iteration # 13     ecut=    40.00 Ry     beta=0.70
     Davidson diagonalization with overlap
     ethr =  2.69E-11,  avg # of iterations =  2.0

     total cpu time spent up to now is      161.8 secs

     total energy              =     -95.09757051 Ry
     Harris-Foulkes estimate   =     -95.09757051 Ry
     estimated scf accuracy    <          1.3E-10 Ry

     iteration # 14     ecut=    40.00 Ry     beta=0.70
     Davidson diagonalization with overlap
     ethr =  1.48E-12,  avg # of iterations =  1.0

     total cpu time spent up to now is      163.1 secs

     total energy              =     -95.09757051 Ry
     Harris-Foulkes estimate   =     -95.09757051 Ry
     estimated scf accuracy    <          1.4E-10 Ry

     iteration # 15     ecut=    40.00 Ry     beta=0.70
     Davidson diagonalization with overlap
     ethr =  1.48E-12,  avg # of iterations =  1.7

     total cpu time spent up to now is      164.5 secs

     End of self-consistent calculation

     Number of k-points >= 100: set verbosity='high' to print the bands.

     the Fermi energy is     3.3490 ev

!    total energy              =     -95.09757051 Ry
     Harris-Foulkes estimate   =     -95.09757051 Ry
     estimated scf accuracy    <          6.4E-13 Ry

     The total energy is the sum of the following terms:

     one-electron contribution =     -80.22598141 Ry
     hartree contribution      =      41.11076146 Ry
     xc contribution           =     -14.31840322 Ry
     ewald contribution        =     -41.66384204 Ry
     smearing contrib. (-TS)   =      -0.00010531 Ry

     convergence has been achieved in  15 iterations

     Forces acting on atoms (cartesian axes, Ry/au):

     atom    1 type  1   force =     0.00000000    0.00000000    0.00000000

     Total force =     0.000000     Total SCF correction =     0.000000


     Computing stress (Cartesian axis) and pressure

          total   stress  (Ry/bohr**3)                   (kbar)     P=   49.53
   0.00033671  -0.00000000   0.00000000         49.53     -0.00      0.00
  -0.00000000   0.00033671   0.00000000         -0.00     49.53      0.00
   0.00000000   0.00000000   0.00033671          0.00      0.00     49.53


     bfgs converged in   7 scf cycles and   6 bfgs steps
     (criteria: energy <  1.0E-04 Ry, force <  1.0E-03Ry/Bohr, cell <  5.0E-01kbar)

     End of BFGS Geometry Optimization

     Final enthalpy =     -95.0373812150 Ry
Begin final coordinates
     new unit-cell volume =    177.08300 a.u.^3 (    26.24099 Ang^3 )
     density =      1.45482 g/cm^3

CELL_PARAMETERS (alat=  8.00000000)
   0.442196841   0.442196841   0.442196841
  -0.442196841   0.442196841   0.442196841
  -0.442196841  -0.442196841   0.442196841

ATOMIC_POSITIONS (crystal)
Na       0.000000000   0.000000000   0.000000000
End final coordinates



     A final scf calculation at the relaxed structure.
     The G-vectors are recalculated for the final unit cell
     Results may differ from those at the preceding step.

     Parallelization info
     --------------------
     sticks:   dense  smooth     PW     G-vecs:    dense   smooth      PW
     Min         226     112     34                 4279     1511     265
     Max         227     113     35                 4280     1514     266
     Sum         905     451    139                17117     6051    1061



     bravais-lattice index     =            3
     lattice parameter (alat)  =       8.0000  a.u.
     unit-cell volume          =     177.0830 (a.u.)^3
     number of atoms/cell      =            1
     number of atomic types    =            1
     number of electrons       =         9.00
     number of Kohn-Sham states=            9
     kinetic-energy cutoff     =      40.0000  Ry
     charge density cutoff     =     320.0000  Ry
     convergence threshold     =      1.0E-10
     mixing beta               =       0.7000
     number of iterations used =            8  plain     mixing
     Exchange-correlation      = SLA  PW   PBE  PBE ( 1  4  3  4 0 0)

     celldm(1)=   8.000000  celldm(2)=   0.000000  celldm(3)=   0.000000
     celldm(4)=   0.000000  celldm(5)=   0.000000  celldm(6)=   0.000000

     crystal axes: (cart. coord. in units of alat)
               a(1) = (   0.442197   0.442197   0.442197 )  
               a(2) = (  -0.442197   0.442197   0.442197 )  
               a(3) = (  -0.442197  -0.442197   0.442197 )  

     reciprocal axes: (cart. coord. in units 2 pi/alat)
               b(1) = (  1.130718  0.000000  1.130718 )  
               b(2) = ( -1.130718  1.130718 -0.000000 )  
               b(3) = (  0.000000 -1.130718  1.130718 )  


     PseudoPot. # 1 for Na read from file:
     /home/s1333534/quantum_espresso/qe-6.1/pseudo/Na_pbe_v1.uspp.F.UPF
     MD5 check sum: 76a99c7e9422403d3e93cbc85ab7bccb
     Pseudo is Ultrasoft, Zval =  9.0
     Generated by new atomic code, or converted to UPF format
     Using radial grid of  819 points,  5 beta functions with: 
                l(1) =   0
                l(2) =   0
                l(3) =   1
                l(4) =   1
                l(5) =   2
     Q(r) pseudized with  8 coefficients,  rinner =    1.250   1.250   1.250
                                                       1.250   1.250

     atomic species   valence    mass     pseudopotential
        Na             9.00    22.99000     Na( 1.00)

     48 Sym. Ops., with inversion, found



   Cartesian axes

     site n.     atom                  positions (alat units)
         1           Na  tau(   1) = (   0.0000000   0.0000000   0.0000000  )

     number of k points=   250  Marzari-Vanderbilt smearing, width (Ry)=  0.0200

     Number of k-points >= 100: set verbosity='high' to print them.

     Dense  grid:    17117 G-vectors     FFT dimensions: (  36,  36,  36)

     Smooth grid:     6051 G-vectors     FFT dimensions: (  25,  25,  25)

     Estimated max dynamical RAM per process >       9.29MB

     Estimated total allocated dynamical RAM >      37.18MB

     Initial potential from superposition of free atoms

     starting charge    8.99371, renormalised to    9.00000
     Starting wfc are    5 randomized atomic wfcs +    4 random wfc

     Writing output data file na.bcc.save

     total cpu time spent up to now is      166.3 secs

     per-process dynamical memory:    21.1 Mb

     Self-consistent Calculation

     iteration #  1     ecut=    40.00 Ry     beta=0.70
     Davidson diagonalization with overlap
     c_bands:  1 eigenvalues not converged
     c_bands:  1 eigenvalues not converged
     ethr =  1.00E-06,  avg # of iterations = 11.0

     total cpu time spent up to now is      169.2 secs

     total energy              =     -95.09690698 Ry
     Harris-Foulkes estimate   =     -95.09734058 Ry
     estimated scf accuracy    <       0.00121572 Ry

     iteration #  2     ecut=    40.00 Ry     beta=0.70
     Davidson diagonalization with overlap
     ethr =  1.35E-05,  avg # of iterations =  2.0

     total cpu time spent up to now is      170.1 secs

     total energy              =     -95.09707084 Ry
     Harris-Foulkes estimate   =     -95.09710814 Ry
     estimated scf accuracy    <       0.00014125 Ry

     iteration #  3     ecut=    40.00 Ry     beta=0.70
     Davidson diagonalization with overlap
     ethr =  1.57E-06,  avg # of iterations =  2.0

     total cpu time spent up to now is      171.1 secs

     total energy              =     -95.09708721 Ry
     Harris-Foulkes estimate   =     -95.09708852 Ry
     estimated scf accuracy    <       0.00000851 Ry

     iteration #  4     ecut=    40.00 Ry     beta=0.70
     Davidson diagonalization with overlap
     ethr =  9.46E-08,  avg # of iterations =  1.0

     total cpu time spent up to now is      171.9 secs

     total energy              =     -95.09708794 Ry
     Harris-Foulkes estimate   =     -95.09708788 Ry
     estimated scf accuracy    <       0.00000001 Ry

     iteration #  5     ecut=    40.00 Ry     beta=0.70
     Davidson diagonalization with overlap
     ethr =  1.19E-10,  avg # of iterations =  3.0

     total cpu time spent up to now is      173.0 secs

     total energy              =     -95.09708797 Ry
     Harris-Foulkes estimate   =     -95.09708796 Ry
     estimated scf accuracy    <          1.0E-09 Ry

     iteration #  6     ecut=    40.00 Ry     beta=0.70
     Davidson diagonalization with overlap
     ethr =  1.16E-11,  avg # of iterations =  1.5

     total cpu time spent up to now is      173.9 secs

     End of self-consistent calculation

     Number of k-points >= 100: set verbosity='high' to print the bands.

     the Fermi energy is     3.3478 ev

!    total energy              =     -95.09708797 Ry
     Harris-Foulkes estimate   =     -95.09708797 Ry
     estimated scf accuracy    <          3.2E-11 Ry

     The total energy is the sum of the following terms:

     one-electron contribution =     -80.22514871 Ry
     hartree contribution      =      41.11024173 Ry
     xc contribution           =     -14.31823364 Ry
     ewald contribution        =     -41.66384204 Ry
     smearing contrib. (-TS)   =      -0.00010531 Ry

     convergence has been achieved in   6 iterations

     Forces acting on atoms (cartesian axes, Ry/au):

     atom    1 type  1   force =     0.00000000    0.00000000    0.00000000

     Total force =     0.000000     Total SCF correction =     0.000000


     Computing stress (Cartesian axis) and pressure

          total   stress  (Ry/bohr**3)                   (kbar)     P=   46.58
   0.00031662  -0.00000000   0.00000000         46.58     -0.00      0.00
  -0.00000000   0.00031662   0.00000000         -0.00     46.58      0.00
   0.00000000   0.00000000   0.00031662          0.00      0.00     46.58


     Writing output data file na.bcc.save

     init_run     :      1.49s CPU      1.54s WALL (       2 calls)
     electrons    :    154.54s CPU    162.39s WALL (       8 calls)
     update_pot   :      1.43s CPU      1.44s WALL (       6 calls)
     forces       :      1.20s CPU      1.21s WALL (       8 calls)
     stress       :      5.70s CPU      5.73s WALL (       8 calls)

     Called by init_run:
     wfcinit      :      0.81s CPU      0.84s WALL (       2 calls)
     potinit      :      0.10s CPU      0.10s WALL (       2 calls)

     Called by electrons:
     c_bands      :    125.35s CPU    131.96s WALL (     102 calls)
     sum_band     :     26.41s CPU     27.61s WALL (     102 calls)
     v_of_rho     :      1.23s CPU      1.24s WALL (     109 calls)
     newd         :      1.51s CPU      1.53s WALL (     109 calls)
     mix_rho      :      0.13s CPU      0.13s WALL (     102 calls)

     Called by c_bands:
     init_us_2    :      6.72s CPU      6.67s WALL (   55500 calls)
     cegterg      :    118.76s CPU    125.29s WALL (   25500 calls)

     Called by sum_band:
     sum_band:bec :      0.08s CPU      0.08s WALL (   25500 calls)
     addusdens    :      1.89s CPU      1.90s WALL (     102 calls)

     Called by *egterg:
     h_psi        :     98.52s CPU    104.14s WALL (   79272 calls)
     s_psi        :      1.52s CPU      1.19s WALL (   79272 calls)
     g_psi        :      0.79s CPU      0.76s WALL (   53272 calls)
     cdiaghg      :     10.02s CPU     10.40s WALL (   77022 calls)

     Called by h_psi:
     h_psi:pot    :     98.20s CPU    103.63s WALL (   79272 calls)
     h_psi:calbec :      2.47s CPU      1.94s WALL (   79272 calls)
     vloc_psi     :     94.86s CPU    100.21s WALL (   79272 calls)
     add_vuspsi   :      0.78s CPU      1.28s WALL (   79272 calls)

     General routines
     calbec       :      3.28s CPU      2.86s WALL (  114772 calls)
     fft          :      0.58s CPU      0.59s WALL (    1786 calls)
     ffts         :      0.03s CPU      0.03s WALL (     211 calls)
     fftw         :    106.73s CPU    107.08s WALL ( 1380044 calls)
     interpolate  :      0.10s CPU      0.11s WALL (     211 calls)
     davcio       :      0.00s CPU      0.01s WALL (     500 calls)

     Parallel routines
     fft_scatter  :     16.57s CPU     20.31s WALL ( 1382041 calls)

     PWSCF        :  2m46.38s CPU     2m54.65s WALL


   This run was terminated on:  15:51:14  20Dec2017            

=------------------------------------------------------------------------------=
   JOB DONE.
=------------------------------------------------------------------------------=
