
     Program PWSCF v.6.1 (svn rev. 13369) starts on  2Feb2018 at  8:16:14 

     This program is part of the open-source Quantum ESPRESSO suite
     for quantum simulation of materials; please cite
         "P. Giannozzi et al., J. Phys.:Condens. Matter 21 395502 (2009);
          URL http://www.quantum-espresso.org", 
     in publications or presentations arising from this work. More details at
     http://www.quantum-espresso.org/quote

     Parallel version (MPI), running on    64 processors
     K-points division:     npool     =       4
     R & G space division:  proc/nbgrp/npool/nimage =      16
     Waiting for input...
     Reading input from standard input

     Current dimensions of program PWSCF are:
     Max number of different atomic species (ntypx) = 10
     Max number of k-points (npk) =  80000
     Max angular momentum in pseudopotentials (lmaxx) =  3

     Subspace diagonalization in iterative solution of the eigenvalue problem:
     a serial algorithm will be used


     Parallelization info
     --------------------
     sticks:   dense  smooth     PW     G-vecs:    dense   smooth      PW
     Min          62      30      9                 1240      437      76
     Max          63      31     10                 1242      441      79
     Sum        1001     487    159                19861     7011    1253



     bravais-lattice index     =            3
     lattice parameter (alat)  =       7.4500  a.u.
     unit-cell volume          =     206.7468 (a.u.)^3
     number of atoms/cell      =            1
     number of atomic types    =            1
     number of electrons       =         9.00
     number of Kohn-Sham states=            9
     kinetic-energy cutoff     =      40.0000  Ry
     charge density cutoff     =     320.0000  Ry
     convergence threshold     =      1.0E-10
     mixing beta               =       0.7000
     number of iterations used =            8  plain     mixing
     Exchange-correlation      = SLA  PW   PBE  PBE ( 1  4  3  4 0 0)

     celldm(1)=   7.450000  celldm(2)=   0.000000  celldm(3)=   0.000000
     celldm(4)=   0.000000  celldm(5)=   0.000000  celldm(6)=   0.000000

     crystal axes: (cart. coord. in units of alat)
               a(1) = (   0.500000   0.500000   0.500000 )  
               a(2) = (  -0.500000   0.500000   0.500000 )  
               a(3) = (  -0.500000  -0.500000   0.500000 )  

     reciprocal axes: (cart. coord. in units 2 pi/alat)
               b(1) = (  1.000000  0.000000  1.000000 )  
               b(2) = ( -1.000000  1.000000  0.000000 )  
               b(3) = (  0.000000 -1.000000  1.000000 )  


     PseudoPot. # 1 for Na read from file:
     /home/s1333534/quantum_espresso/qe-6.1/pseudo/Na_pbe_v1.uspp.F.UPF
     MD5 check sum: 76a99c7e9422403d3e93cbc85ab7bccb
     Pseudo is Ultrasoft, Zval =  9.0
     Generated by new atomic code, or converted to UPF format
     Using radial grid of  819 points,  5 beta functions with: 
                l(1) =   0
                l(2) =   0
                l(3) =   1
                l(4) =   1
                l(5) =   2
     Q(r) pseudized with  8 coefficients,  rinner =    1.250   1.250   1.250
                                                       1.250   1.250

     atomic species   valence    mass     pseudopotential
        Na             9.00    22.99000     Na( 1.00)

     48 Sym. Ops., with inversion, found



   Cartesian axes

     site n.     atom                  positions (alat units)
         1           Na  tau(   1) = (   0.0000000   0.0000000   0.0000000  )

     number of k points=   250  Marzari-Vanderbilt smearing, width (Ry)=  0.0200

     Number of k-points >= 100: set verbosity='high' to print them.

     Dense  grid:    19861 G-vectors     FFT dimensions: (  40,  40,  40)

     Smooth grid:     7011 G-vectors     FFT dimensions: (  25,  25,  25)

     Estimated max dynamical RAM per process >       1.42MB

     Estimated total allocated dynamical RAM >      90.69MB

     Initial potential from superposition of free atoms

     starting charge    8.99371, renormalised to    9.00000
     Starting wfc are    5 randomized atomic wfcs +    4 random wfc

     total cpu time spent up to now is        0.5 secs

     per-process dynamical memory:     6.9 Mb

     Self-consistent Calculation

     iteration #  1     ecut=    40.00 Ry     beta=0.70
     Davidson diagonalization with overlap
     ethr =  1.00E-02,  avg # of iterations =  5.7

     Threshold (ethr) on eigenvalues was too large:
     Diagonalizing with lowered threshold

     Davidson diagonalization with overlap
     ethr =  1.11E-05,  avg # of iterations =  4.2

     total cpu time spent up to now is        2.5 secs

     total energy              =     -95.10379024 Ry
     Harris-Foulkes estimate   =     -95.10411201 Ry
     estimated scf accuracy    <       0.00099840 Ry

     iteration #  2     ecut=    40.00 Ry     beta=0.70
     Davidson diagonalization with overlap
     ethr =  1.11E-05,  avg # of iterations =  2.0

     total cpu time spent up to now is        3.1 secs

     total energy              =     -95.10391352 Ry
     Harris-Foulkes estimate   =     -95.10394168 Ry
     estimated scf accuracy    <       0.00011216 Ry

     iteration #  3     ecut=    40.00 Ry     beta=0.70
     Davidson diagonalization with overlap
     ethr =  1.25E-06,  avg # of iterations =  2.1

     total cpu time spent up to now is        3.7 secs

     total energy              =     -95.10392623 Ry
     Harris-Foulkes estimate   =     -95.10392750 Ry
     estimated scf accuracy    <       0.00000683 Ry

     iteration #  4     ecut=    40.00 Ry     beta=0.70
     Davidson diagonalization with overlap
     ethr =  7.59E-08,  avg # of iterations =  1.0

     total cpu time spent up to now is        4.2 secs

     total energy              =     -95.10392685 Ry
     Harris-Foulkes estimate   =     -95.10392680 Ry
     estimated scf accuracy    <          9.3E-09 Ry

     iteration #  5     ecut=    40.00 Ry     beta=0.70
     Davidson diagonalization with overlap
     ethr =  1.03E-10,  avg # of iterations =  3.0

     total cpu time spent up to now is        4.9 secs

     total energy              =     -95.10392688 Ry
     Harris-Foulkes estimate   =     -95.10392687 Ry
     estimated scf accuracy    <          1.4E-09 Ry

     iteration #  6     ecut=    40.00 Ry     beta=0.70
     Davidson diagonalization with overlap
     ethr =  1.52E-11,  avg # of iterations =  1.6

     total cpu time spent up to now is        5.4 secs

     End of self-consistent calculation

     Number of k-points >= 100: set verbosity='high' to print the bands.

     the Fermi energy is     2.4860 ev

!    total energy              =     -95.10392688 Ry
     Harris-Foulkes estimate   =     -95.10392688 Ry
     estimated scf accuracy    <          2.0E-11 Ry

     The total energy is the sum of the following terms:

     one-electron contribution =     -83.87357568 Ry
     hartree contribution      =      42.63175019 Ry
     xc contribution           =     -14.29449530 Ry
     ewald contribution        =     -39.56750462 Ry
     smearing contrib. (-TS)   =      -0.00010147 Ry

     convergence has been achieved in   6 iterations


     Computing stress (Cartesian axis) and pressure

          total   stress  (Ry/bohr**3)                   (kbar)     P=   17.42
   0.00011839   0.00000000  -0.00000000         17.42      0.00     -0.00
   0.00000000   0.00011839   0.00000000          0.00     17.42      0.00
  -0.00000000   0.00000000   0.00011839         -0.00      0.00     17.42


     Writing output data file na.bcc.save

     init_run     :      0.27s CPU      0.30s WALL (       1 calls)
     electrons    :      4.49s CPU      4.87s WALL (       1 calls)
     stress       :      0.17s CPU      0.17s WALL (       1 calls)

     Called by init_run:
     wfcinit      :      0.13s CPU      0.14s WALL (       1 calls)
     potinit      :      0.02s CPU      0.02s WALL (       1 calls)

     Called by electrons:
     c_bands      :      3.78s CPU      4.11s WALL (       7 calls)
     sum_band     :      0.57s CPU      0.61s WALL (       7 calls)
     v_of_rho     :      0.07s CPU      0.07s WALL (       7 calls)
     newd         :      0.05s CPU      0.06s WALL (       7 calls)
     mix_rho      :      0.01s CPU      0.01s WALL (       7 calls)

     Called by c_bands:
     init_us_2    :      0.07s CPU      0.07s WALL (    1008 calls)
     cegterg      :      3.28s CPU      3.60s WALL (     441 calls)

     Called by sum_band:
     sum_band:bec :      0.00s CPU      0.01s WALL (     441 calls)
     addusdens    :      0.06s CPU      0.07s WALL (       7 calls)

     Called by *egterg:
     h_psi        :      2.14s CPU      2.31s WALL (    1761 calls)
     s_psi        :      0.03s CPU      0.03s WALL (    1761 calls)
     g_psi        :      0.01s CPU      0.01s WALL (    1257 calls)
     cdiaghg      :      0.74s CPU      0.81s WALL (    1635 calls)

     Called by h_psi:
     h_psi:pot    :      2.12s CPU      2.29s WALL (    1761 calls)
     h_psi:calbec :      0.12s CPU      0.13s WALL (    1761 calls)
     vloc_psi     :      1.96s CPU      2.11s WALL (    1761 calls)
     add_vuspsi   :      0.03s CPU      0.04s WALL (    1761 calls)

     General routines
     calbec       :      0.15s CPU      0.16s WALL (    2265 calls)
     fft          :      0.07s CPU      0.08s WALL (     117 calls)
     ffts         :      0.00s CPU      0.00s WALL (      14 calls)
     fftw         :      2.02s CPU      2.17s WALL (   25709 calls)
     interpolate  :      0.01s CPU      0.01s WALL (      14 calls)
     davcio       :      0.00s CPU      0.02s WALL (      63 calls)

     Parallel routines
     fft_scatter  :      1.14s CPU      1.23s WALL (   25840 calls)

     PWSCF        :     6.08s CPU         6.63s WALL


   This run was terminated on:   8:16:21   2Feb2018            

=------------------------------------------------------------------------------=
   JOB DONE.
=------------------------------------------------------------------------------=
