
     Program PWSCF v.6.1 (svn rev. 13369) starts on 20Dec2017 at 14:17:34 

     This program is part of the open-source Quantum ESPRESSO suite
     for quantum simulation of materials; please cite
         "P. Giannozzi et al., J. Phys.:Condens. Matter 21 395502 (2009);
          URL http://www.quantum-espresso.org", 
     in publications or presentations arising from this work. More details at
     http://www.quantum-espresso.org/quote

     Parallel version (MPI), running on     4 processors
     R & G space division:  proc/nbgrp/npool/nimage =       4
     Waiting for input...
     Reading input from standard input

     Current dimensions of program PWSCF are:
     Max number of different atomic species (ntypx) = 10
     Max number of k-points (npk) =  40000
     Max angular momentum in pseudopotentials (lmaxx) =  3

     Subspace diagonalization in iterative solution of the eigenvalue problem:
     a serial algorithm will be used


     Parallelization info
     --------------------
     sticks:   dense  smooth     PW     G-vecs:    dense   smooth      PW
     Min         192      94     34                 3581     1255     266
     Max         193      95     35                 3585     1258     267
     Sum         769     379    139                14331     5029    1067



     bravais-lattice index     =            2
     lattice parameter (alat)  =       8.3987  a.u.
     unit-cell volume          =     148.1068 (a.u.)^3
     number of atoms/cell      =            1
     number of atomic types    =            1
     number of electrons       =         9.00
     number of Kohn-Sham states=            9
     kinetic-energy cutoff     =      40.0000  Ry
     charge density cutoff     =     320.0000  Ry
     convergence threshold     =      1.0E-08
     mixing beta               =       0.7000
     number of iterations used =            8  plain     mixing
     Exchange-correlation      = SLA  PW   PBE  PBE ( 1  4  3  4 0 0)
     nstep                     =           50


     celldm(1)=   8.398691  celldm(2)=   0.000000  celldm(3)=   0.000000
     celldm(4)=   0.000000  celldm(5)=   0.000000  celldm(6)=   0.000000

     crystal axes: (cart. coord. in units of alat)
               a(1) = (  -0.500000   0.000000   0.500000 )  
               a(2) = (   0.000000   0.500000   0.500000 )  
               a(3) = (  -0.500000   0.500000   0.000000 )  

     reciprocal axes: (cart. coord. in units 2 pi/alat)
               b(1) = ( -1.000000 -1.000000  1.000000 )  
               b(2) = (  1.000000  1.000000  1.000000 )  
               b(3) = ( -1.000000  1.000000 -1.000000 )  


     PseudoPot. # 1 for Na read from file:
     /home/s1333534/quantum_espresso/qe-6.1/pseudo/Na_pbe_v1.uspp.F.UPF
     MD5 check sum: 76a99c7e9422403d3e93cbc85ab7bccb
     Pseudo is Ultrasoft, Zval =  9.0
     Generated by new atomic code, or converted to UPF format
     Using radial grid of  819 points,  5 beta functions with: 
                l(1) =   0
                l(2) =   0
                l(3) =   1
                l(4) =   1
                l(5) =   2
     Q(r) pseudized with  8 coefficients,  rinner =    1.250   1.250   1.250
                                                       1.250   1.250

     atomic species   valence    mass     pseudopotential
        Na             9.00    22.99000     Na( 1.00)

     48 Sym. Ops., with inversion, found



   Cartesian axes

     site n.     atom                  positions (alat units)
         1           Na  tau(   1) = (   0.0000000   0.0000000   0.0000000  )

     number of k points=   770  Marzari-Vanderbilt smearing, width (Ry)=  0.0200

     Number of k-points >= 100: set verbosity='high' to print them.

     Dense  grid:    14331 G-vectors     FFT dimensions: (  36,  36,  36)

     Smooth grid:     5029 G-vectors     FFT dimensions: (  24,  24,  24)

     Estimated max dynamical RAM per process >      19.19MB

     Estimated total allocated dynamical RAM >      76.77MB

     Initial potential from superposition of free atoms

     starting charge    8.99371, renormalised to    9.00000
     Starting wfc are    5 randomized atomic wfcs +    4 random wfc

     total cpu time spent up to now is        1.3 secs

     per-process dynamical memory:    27.3 Mb

     Self-consistent Calculation

     iteration #  1     ecut=    40.00 Ry     beta=0.70
     Davidson diagonalization with overlap
     ethr =  1.00E-02,  avg # of iterations =  5.2

     Threshold (ethr) on eigenvalues was too large:
     Diagonalizing with lowered threshold

     Davidson diagonalization with overlap
     ethr =  1.86E-05,  avg # of iterations =  2.8

     total cpu time spent up to now is        9.2 secs

     total energy              =     -95.08193263 Ry
     Harris-Foulkes estimate   =     -95.08255253 Ry
     estimated scf accuracy    <       0.00167615 Ry

     iteration #  2     ecut=    40.00 Ry     beta=0.70
     Davidson diagonalization with overlap
     ethr =  1.86E-05,  avg # of iterations =  2.0

     total cpu time spent up to now is       11.9 secs

     total energy              =     -95.08215296 Ry
     Harris-Foulkes estimate   =     -95.08220262 Ry
     estimated scf accuracy    <       0.00018876 Ry

     iteration #  3     ecut=    40.00 Ry     beta=0.70
     Davidson diagonalization with overlap
     ethr =  2.10E-06,  avg # of iterations =  2.2

     total cpu time spent up to now is       14.7 secs

     total energy              =     -95.08217731 Ry
     Harris-Foulkes estimate   =     -95.08217862 Ry
     estimated scf accuracy    <       0.00001090 Ry

     iteration #  4     ecut=    40.00 Ry     beta=0.70
     Davidson diagonalization with overlap
     ethr =  1.21E-07,  avg # of iterations =  1.0

     total cpu time spent up to now is       17.1 secs

     total energy              =     -95.08217830 Ry
     Harris-Foulkes estimate   =     -95.08217824 Ry
     estimated scf accuracy    <       0.00000002 Ry

     iteration #  5     ecut=    40.00 Ry     beta=0.70
     Davidson diagonalization with overlap
     ethr =  1.69E-10,  avg # of iterations =  3.0

     total cpu time spent up to now is       20.6 secs

     End of self-consistent calculation

     Number of k-points >= 100: set verbosity='high' to print the bands.

     the Fermi energy is     4.5419 ev

!    total energy              =     -95.08217834 Ry
     Harris-Foulkes estimate   =     -95.08217834 Ry
     estimated scf accuracy    <          2.2E-09 Ry

     The total energy is the sum of the following terms:

     one-electron contribution =     -75.80756557 Ry
     hartree contribution      =      39.29249948 Ry
     xc contribution           =     -14.34902074 Ry
     ewald contribution        =     -44.21805901 Ry
     smearing contrib. (-TS)   =      -0.00003251 Ry

     convergence has been achieved in   5 iterations

     Forces acting on atoms (cartesian axes, Ry/au):

     atom    1 type  1   force =     0.00000000    0.00000000    0.00000000

     Total force =     0.000000     Total SCF correction =     0.000000


     Computing stress (Cartesian axis) and pressure

          total   stress  (Ry/bohr**3)                   (kbar)     P=  102.74
   0.00069839  -0.00000000   0.00000000        102.74     -0.00      0.00
  -0.00000000   0.00069839   0.00000000         -0.00    102.74      0.00
   0.00000000   0.00000000   0.00069839          0.00      0.00    102.74


     BFGS Geometry Optimization

     number of scf cycles    =   1
     number of bfgs steps    =   0

     enthalpy new            =     -94.9814974000 Ry

     new trust radius        =       0.0011322869 bohr
     new conv_thr            =       0.0000000100 Ry

     new unit-cell volume =    148.31355 a.u.^3 (    21.97780 Ang^3 )
     density =      1.73702 g/cm^3

CELL_PARAMETERS (alat=  8.39869131)
  -0.500232600   0.000000000   0.500232600
  -0.000000000   0.500232600   0.500232600
  -0.500232600   0.500232600   0.000000000

ATOMIC_POSITIONS (crystal)
Na       0.000000000   0.000000000   0.000000000



     Writing output data file na.fcc.save
     NEW-OLD atomic charge density approx. for the potential
     extrapolated charge    9.01254, renormalised to    9.00000

     total cpu time spent up to now is       22.6 secs

     per-process dynamical memory:    34.5 Mb

     Self-consistent Calculation

     iteration #  1     ecut=    40.00 Ry     beta=0.70
     Davidson diagonalization with overlap
     ethr =  1.00E-06,  avg # of iterations =  2.0

     total cpu time spent up to now is       26.0 secs

     total energy              =     -95.08222380 Ry
     Harris-Foulkes estimate   =     -94.99874781 Ry
     estimated scf accuracy    <       0.00005532 Ry

     iteration #  2     ecut=    40.00 Ry     beta=0.70
     Davidson diagonalization with overlap
     ethr =  6.15E-07,  avg # of iterations =  2.9

     total cpu time spent up to now is       29.3 secs

     total energy              =     -95.08232435 Ry
     Harris-Foulkes estimate   =     -95.08236516 Ry
     estimated scf accuracy    <       0.00009307 Ry

     iteration #  3     ecut=    40.00 Ry     beta=0.70
     Davidson diagonalization with overlap
     ethr =  6.15E-07,  avg # of iterations =  1.4

     total cpu time spent up to now is       31.8 secs

     total energy              =     -95.08232565 Ry
     Harris-Foulkes estimate   =     -95.08233044 Ry
     estimated scf accuracy    <       0.00001818 Ry

     iteration #  4     ecut=    40.00 Ry     beta=0.70
     Davidson diagonalization with overlap
     ethr =  2.02E-07,  avg # of iterations =  1.0

     total cpu time spent up to now is       34.2 secs

     total energy              =     -95.08232420 Ry
     Harris-Foulkes estimate   =     -95.08232623 Ry
     estimated scf accuracy    <       0.00000810 Ry

     iteration #  5     ecut=    40.00 Ry     beta=0.70
     Davidson diagonalization with overlap
     ethr =  9.00E-08,  avg # of iterations =  1.0

     total cpu time spent up to now is       36.6 secs

     total energy              =     -95.08232305 Ry
     Harris-Foulkes estimate   =     -95.08232435 Ry
     estimated scf accuracy    <       0.00000408 Ry

     iteration #  6     ecut=    40.00 Ry     beta=0.70
     Davidson diagonalization with overlap
     ethr =  4.53E-08,  avg # of iterations =  1.0

     total cpu time spent up to now is       38.9 secs

     total energy              =     -95.08232234 Ry
     Harris-Foulkes estimate   =     -95.08232317 Ry
     estimated scf accuracy    <       0.00000156 Ry

     iteration #  7     ecut=    40.00 Ry     beta=0.70
     Davidson diagonalization with overlap
     ethr =  1.73E-08,  avg # of iterations =  1.4

     total cpu time spent up to now is       41.4 secs

     total energy              =     -95.08232243 Ry
     Harris-Foulkes estimate   =     -95.08232251 Ry
     estimated scf accuracy    <       0.00000013 Ry

     iteration #  8     ecut=    40.00 Ry     beta=0.70
     Davidson diagonalization with overlap
     ethr =  1.42E-09,  avg # of iterations =  2.0

     total cpu time spent up to now is       44.3 secs

     End of self-consistent calculation

     Number of k-points >= 100: set verbosity='high' to print the bands.

     the Fermi energy is     4.5316 ev

!    total energy              =     -95.08232246 Ry
     Harris-Foulkes estimate   =     -95.08232246 Ry
     estimated scf accuracy    <          9.7E-10 Ry

     The total energy is the sum of the following terms:

     one-electron contribution =     -75.84320131 Ry
     hartree contribution      =      39.30721789 Ry
     xc contribution           =     -14.34880816 Ry
     ewald contribution        =     -44.19749836 Ry
     smearing contrib. (-TS)   =      -0.00003252 Ry

     convergence has been achieved in   8 iterations

     Forces acting on atoms (cartesian axes, Ry/au):

     atom    1 type  1   force =     0.00000000    0.00000000    0.00000000

     Total force =     0.000000     Total SCF correction =     0.000000


     Computing stress (Cartesian axis) and pressure

          total   stress  (Ry/bohr**3)                   (kbar)     P=  102.62
   0.00069758  -0.00000000   0.00000000        102.62     -0.00      0.00
  -0.00000000   0.00069758   0.00000000         -0.00    102.62      0.00
   0.00000000   0.00000000   0.00069758          0.00      0.00    102.62


     number of scf cycles    =   2
     number of bfgs steps    =   1

     enthalpy old            =     -94.9814974000 Ry
     enthalpy new            =     -94.9815009405 Ry

     CASE: enthalpy_new < enthalpy_old


     WARNING: bfgs curvature condition failed, Theta= 0.836
     new trust radius        =       0.0012458052 bohr
     new conv_thr            =            1.0E-10 Ry

     new unit-cell volume =    148.54124 a.u.^3 (    22.01154 Ang^3 )
     density =      1.73435 g/cm^3

CELL_PARAMETERS (alat=  8.39869131)
  -0.500488459   0.000000000   0.500488459
  -0.000000000   0.500488459   0.500488459
  -0.500488459   0.500488459   0.000000000

ATOMIC_POSITIONS (crystal)
Na       0.000000000   0.000000000   0.000000000



     Writing output data file na.fcc.save
     NEW-OLD atomic charge density approx. for the potential
     extrapolated charge    9.01379, renormalised to    9.00000

     total cpu time spent up to now is       46.3 secs

     per-process dynamical memory:    34.5 Mb

     Self-consistent Calculation

     iteration #  1     ecut=    40.00 Ry     beta=0.70
     Davidson diagonalization with overlap
     ethr =  1.00E-06,  avg # of iterations =  2.0

     total cpu time spent up to now is       49.7 secs

     total energy              =     -95.08236032 Ry
     Harris-Foulkes estimate   =     -94.99054827 Ry
     estimated scf accuracy    <       0.00006758 Ry

     iteration #  2     ecut=    40.00 Ry     beta=0.70
     Davidson diagonalization with overlap
     ethr =  7.51E-07,  avg # of iterations =  2.9

     total cpu time spent up to now is       53.0 secs

     total energy              =     -95.08248238 Ry
     Harris-Foulkes estimate   =     -95.08253194 Ry
     estimated scf accuracy    <       0.00011282 Ry

     iteration #  3     ecut=    40.00 Ry     beta=0.70
     Davidson diagonalization with overlap
     ethr =  7.51E-07,  avg # of iterations =  1.4

     total cpu time spent up to now is       55.5 secs

     total energy              =     -95.08248408 Ry
     Harris-Foulkes estimate   =     -95.08248979 Ry
     estimated scf accuracy    <       0.00002193 Ry

     iteration #  4     ecut=    40.00 Ry     beta=0.70
     Davidson diagonalization with overlap
     ethr =  2.44E-07,  avg # of iterations =  1.0

     total cpu time spent up to now is       57.9 secs

     total energy              =     -95.08248235 Ry
     Harris-Foulkes estimate   =     -95.08248477 Ry
     estimated scf accuracy    <       0.00000988 Ry

     iteration #  5     ecut=    40.00 Ry     beta=0.70
     Davidson diagonalization with overlap
     ethr =  1.10E-07,  avg # of iterations =  1.0

     total cpu time spent up to now is       60.2 secs

     total energy              =     -95.08248088 Ry
     Harris-Foulkes estimate   =     -95.08248252 Ry
     estimated scf accuracy    <       0.00000507 Ry

     iteration #  6     ecut=    40.00 Ry     beta=0.70
     Davidson diagonalization with overlap
     ethr =  5.64E-08,  avg # of iterations =  1.0

     total cpu time spent up to now is       62.6 secs

     total energy              =     -95.08248007 Ry
     Harris-Foulkes estimate   =     -95.08248104 Ry
     estimated scf accuracy    <       0.00000190 Ry

     iteration #  7     ecut=    40.00 Ry     beta=0.70
     Davidson diagonalization with overlap
     ethr =  2.11E-08,  avg # of iterations =  1.1

     total cpu time spent up to now is       65.0 secs

     total energy              =     -95.08248012 Ry
     Harris-Foulkes estimate   =     -95.08248026 Ry
     estimated scf accuracy    <       0.00000021 Ry

     iteration #  8     ecut=    40.00 Ry     beta=0.70
     Davidson diagonalization with overlap
     ethr =  2.30E-09,  avg # of iterations =  2.0

     total cpu time spent up to now is       67.9 secs

     total energy              =     -95.08248017 Ry
     Harris-Foulkes estimate   =     -95.08248017 Ry
     estimated scf accuracy    <          8.6E-10 Ry

     iteration #  9     ecut=    40.00 Ry     beta=0.70
     Davidson diagonalization with overlap
     ethr =  9.50E-12,  avg # of iterations =  2.0

     total cpu time spent up to now is       70.9 secs

     total energy              =     -95.08248017 Ry
     Harris-Foulkes estimate   =     -95.08248017 Ry
     estimated scf accuracy    <          4.6E-10 Ry

     iteration # 10     ecut=    40.00 Ry     beta=0.70
     Davidson diagonalization with overlap
     ethr =  5.16E-12,  avg # of iterations =  1.0

     total cpu time spent up to now is       73.2 secs

     total energy              =     -95.08248017 Ry
     Harris-Foulkes estimate   =     -95.08248017 Ry
     estimated scf accuracy    <          3.3E-10 Ry

     iteration # 11     ecut=    40.00 Ry     beta=0.70
     Davidson diagonalization with overlap
     ethr =  3.72E-12,  avg # of iterations =  1.4

     total cpu time spent up to now is       75.7 secs

     End of self-consistent calculation

     Number of k-points >= 100: set verbosity='high' to print the bands.

     the Fermi energy is     4.5203 ev

!    total energy              =     -95.08248017 Ry
     Harris-Foulkes estimate   =     -95.08248017 Ry
     estimated scf accuracy    <          2.5E-11 Ry

     The total energy is the sum of the following terms:

     one-electron contribution =     -75.88200367 Ry
     hartree contribution      =      39.32294962 Ry
     xc contribution           =     -14.34848985 Ry
     ewald contribution        =     -44.17490372 Ry
     smearing contrib. (-TS)   =      -0.00003254 Ry

     convergence has been achieved in  11 iterations

     Forces acting on atoms (cartesian axes, Ry/au):

     atom    1 type  1   force =     0.00000000    0.00000000    0.00000000

     Total force =     0.000000     Total SCF correction =     0.000000


     Computing stress (Cartesian axis) and pressure

          total   stress  (Ry/bohr**3)                   (kbar)     P=  101.50
   0.00068998   0.00000000  -0.00000000        101.50      0.00     -0.00
   0.00000000   0.00068998   0.00000000          0.00    101.50      0.00
  -0.00000000   0.00000000   0.00068998         -0.00      0.00    101.50


     number of scf cycles    =   3
     number of bfgs steps    =   2

     enthalpy old            =     -94.9815009405 Ry
     enthalpy new            =     -94.9815038670 Ry

     CASE: enthalpy_new < enthalpy_old

     new trust radius        =       0.0016740148 bohr
     new conv_thr            =            1.0E-10 Ry

     new unit-cell volume =    148.84749 a.u.^3 (    22.05692 Ang^3 )
     density =      1.73078 g/cm^3

CELL_PARAMETERS (alat=  8.39869131)
  -0.500832175   0.000000000   0.500832175
  -0.000000000   0.500832175   0.500832175
  -0.500832175   0.500832175   0.000000000

ATOMIC_POSITIONS (crystal)
Na       0.000000000   0.000000000   0.000000000



     Writing output data file na.fcc.save
     NEW-OLD atomic charge density approx. for the potential
     extrapolated charge    9.01850, renormalised to    9.00000

     total cpu time spent up to now is       77.8 secs

     per-process dynamical memory:    34.5 Mb

     Self-consistent Calculation

     iteration #  1     ecut=    40.00 Ry     beta=0.70
     Davidson diagonalization with overlap
     ethr =  1.00E-06,  avg # of iterations =  2.0

     total cpu time spent up to now is       81.2 secs

     total energy              =     -95.08247502 Ry
     Harris-Foulkes estimate   =     -94.95920046 Ry
     estimated scf accuracy    <       0.00012110 Ry

     iteration #  2     ecut=    40.00 Ry     beta=0.70
     Davidson diagonalization with overlap
     ethr =  1.35E-06,  avg # of iterations =  2.9

     total cpu time spent up to now is       84.8 secs

     total energy              =     -95.08269482 Ry
     Harris-Foulkes estimate   =     -95.08278402 Ry
     estimated scf accuracy    <       0.00020332 Ry

     iteration #  3     ecut=    40.00 Ry     beta=0.70
     Davidson diagonalization with overlap
     ethr =  1.35E-06,  avg # of iterations =  1.4

     total cpu time spent up to now is       87.3 secs

     total energy              =     -95.08269726 Ry
     Harris-Foulkes estimate   =     -95.08270816 Ry
     estimated scf accuracy    <       0.00003962 Ry

     iteration #  4     ecut=    40.00 Ry     beta=0.70
     Davidson diagonalization with overlap
     ethr =  4.40E-07,  avg # of iterations =  1.0

     total cpu time spent up to now is       89.7 secs

     total energy              =     -95.08269446 Ry
     Harris-Foulkes estimate   =     -95.08269855 Ry
     estimated scf accuracy    <       0.00001691 Ry

     iteration #  5     ecut=    40.00 Ry     beta=0.70
     Davidson diagonalization with overlap
     ethr =  1.88E-07,  avg # of iterations =  1.0

     total cpu time spent up to now is       92.0 secs

     total energy              =     -95.08269221 Ry
     Harris-Foulkes estimate   =     -95.08269476 Ry
     estimated scf accuracy    <       0.00000875 Ry

     iteration #  6     ecut=    40.00 Ry     beta=0.70
     Davidson diagonalization with overlap
     ethr =  9.72E-08,  avg # of iterations =  1.0

     total cpu time spent up to now is       94.4 secs

     total energy              =     -95.08269045 Ry
     Harris-Foulkes estimate   =     -95.08269242 Ry
     estimated scf accuracy    <       0.00000377 Ry

     iteration #  7     ecut=    40.00 Ry     beta=0.70
     Davidson diagonalization with overlap
     ethr =  4.19E-08,  avg # of iterations =  1.2

     total cpu time spent up to now is       96.8 secs

     total energy              =     -95.08269063 Ry
     Harris-Foulkes estimate   =     -95.08269084 Ry
     estimated scf accuracy    <       0.00000035 Ry

     iteration #  8     ecut=    40.00 Ry     beta=0.70
     Davidson diagonalization with overlap
     ethr =  3.89E-09,  avg # of iterations =  2.0

     total cpu time spent up to now is       99.7 secs

     total energy              =     -95.08269069 Ry
     Harris-Foulkes estimate   =     -95.08269069 Ry
     estimated scf accuracy    <          7.7E-09 Ry

     iteration #  9     ecut=    40.00 Ry     beta=0.70
     Davidson diagonalization with overlap
     ethr =  8.57E-11,  avg # of iterations =  1.0

     total cpu time spent up to now is      102.0 secs

     total energy              =     -95.08269069 Ry
     Harris-Foulkes estimate   =     -95.08269069 Ry
     estimated scf accuracy    <          1.2E-09 Ry

     iteration # 10     ecut=    40.00 Ry     beta=0.70
     Davidson diagonalization with overlap
     ethr =  1.34E-11,  avg # of iterations =  1.0

     total cpu time spent up to now is      104.4 secs

     total energy              =     -95.08269069 Ry
     Harris-Foulkes estimate   =     -95.08269069 Ry
     estimated scf accuracy    <          1.5E-09 Ry

     iteration # 11     ecut=    40.00 Ry     beta=0.70
     Davidson diagonalization with overlap
     ethr =  1.34E-11,  avg # of iterations =  2.0

     total cpu time spent up to now is      107.3 secs

     End of self-consistent calculation

     Number of k-points >= 100: set verbosity='high' to print the bands.

     the Fermi energy is     4.5052 ev

!    total energy              =     -95.08269069 Ry
     Harris-Foulkes estimate   =     -95.08269069 Ry
     estimated scf accuracy    <          7.9E-11 Ry

     The total energy is the sum of the following terms:

     one-electron contribution =     -75.93426431 Ry
     hartree contribution      =      39.34430080 Ry
     xc contribution           =     -14.34810768 Ry
     ewald contribution        =     -44.14458693 Ry
     smearing contrib. (-TS)   =      -0.00003257 Ry

     convergence has been achieved in  11 iterations

     Forces acting on atoms (cartesian axes, Ry/au):

     atom    1 type  1   force =     0.00000000    0.00000000    0.00000000

     Total force =     0.000000     Total SCF correction =     0.000000


     Computing stress (Cartesian axis) and pressure

          total   stress  (Ry/bohr**3)                   (kbar)     P=  100.57
   0.00068368  -0.00000000  -0.00000000        100.57     -0.00     -0.00
  -0.00000000   0.00068368   0.00000000         -0.00    100.57      0.00
  -0.00000000   0.00000000   0.00068368         -0.00      0.00    100.57


     number of scf cycles    =   4
     number of bfgs steps    =   3

     enthalpy old            =     -94.9815038670 Ry
     enthalpy new            =     -94.9815062059 Ry

     CASE: enthalpy_new < enthalpy_old

     new trust radius        =       0.0010377757 bohr
     new conv_thr            =            1.0E-10 Ry

     new unit-cell volume =    149.03749 a.u.^3 (    22.08508 Ang^3 )
     density =      1.72858 g/cm^3

CELL_PARAMETERS (alat=  8.39869131)
  -0.501045183   0.000000000   0.501045183
  -0.000000000   0.501045183   0.501045183
  -0.501045183   0.501045183   0.000000000

ATOMIC_POSITIONS (crystal)
Na       0.000000000   0.000000000   0.000000000



     Writing output data file na.fcc.save
     NEW-OLD atomic charge density approx. for the potential
     extrapolated charge    9.01147, renormalised to    9.00000

     total cpu time spent up to now is      109.4 secs

     per-process dynamical memory:    34.5 Mb

     Self-consistent Calculation

     iteration #  1     ecut=    40.00 Ry     beta=0.70
     Davidson diagonalization with overlap
     ethr =  1.00E-06,  avg # of iterations =  2.0

     total cpu time spent up to now is      112.7 secs

     total energy              =     -95.08273783 Ry
     Harris-Foulkes estimate   =     -95.00627730 Ry
     estimated scf accuracy    <       0.00004633 Ry

     iteration #  2     ecut=    40.00 Ry     beta=0.70
     Davidson diagonalization with overlap
     ethr =  5.15E-07,  avg # of iterations =  2.9

     total cpu time spent up to now is      116.0 secs

     total energy              =     -95.08282195 Ry
     Harris-Foulkes estimate   =     -95.08285610 Ry
     estimated scf accuracy    <       0.00007785 Ry

     iteration #  3     ecut=    40.00 Ry     beta=0.70
     Davidson diagonalization with overlap
     ethr =  5.15E-07,  avg # of iterations =  1.4

     total cpu time spent up to now is      118.5 secs

     total energy              =     -95.08282309 Ry
     Harris-Foulkes estimate   =     -95.08282705 Ry
     estimated scf accuracy    <       0.00001519 Ry

     iteration #  4     ecut=    40.00 Ry     beta=0.70
     Davidson diagonalization with overlap
     ethr =  1.69E-07,  avg # of iterations =  1.0

     total cpu time spent up to now is      120.9 secs

     total energy              =     -95.08282188 Ry
     Harris-Foulkes estimate   =     -95.08282356 Ry
     estimated scf accuracy    <       0.00000683 Ry

     iteration #  5     ecut=    40.00 Ry     beta=0.70
     Davidson diagonalization with overlap
     ethr =  7.59E-08,  avg # of iterations =  1.0

     total cpu time spent up to now is      123.3 secs

     total energy              =     -95.08282088 Ry
     Harris-Foulkes estimate   =     -95.08282200 Ry
     estimated scf accuracy    <       0.00000349 Ry

     iteration #  6     ecut=    40.00 Ry     beta=0.70
     Davidson diagonalization with overlap
     ethr =  3.87E-08,  avg # of iterations =  1.0

     total cpu time spent up to now is      125.6 secs

     total energy              =     -95.08282033 Ry
     Harris-Foulkes estimate   =     -95.08282099 Ry
     estimated scf accuracy    <       0.00000131 Ry

     iteration #  7     ecut=    40.00 Ry     beta=0.70
     Davidson diagonalization with overlap
     ethr =  1.46E-08,  avg # of iterations =  1.1

     total cpu time spent up to now is      128.0 secs

     total energy              =     -95.08282035 Ry
     Harris-Foulkes estimate   =     -95.08282045 Ry
     estimated scf accuracy    <       0.00000015 Ry

     iteration #  8     ecut=    40.00 Ry     beta=0.70
     Davidson diagonalization with overlap
     ethr =  1.66E-09,  avg # of iterations =  2.0

     total cpu time spent up to now is      130.9 secs

     total energy              =     -95.08282038 Ry
     Harris-Foulkes estimate   =     -95.08282039 Ry
     estimated scf accuracy    <          7.2E-10 Ry

     iteration #  9     ecut=    40.00 Ry     beta=0.70
     Davidson diagonalization with overlap
     ethr =  8.01E-12,  avg # of iterations =  2.0

     total cpu time spent up to now is      133.8 secs

     total energy              =     -95.08282039 Ry
     Harris-Foulkes estimate   =     -95.08282039 Ry
     estimated scf accuracy    <          3.0E-10 Ry

     iteration # 10     ecut=    40.00 Ry     beta=0.70
     Davidson diagonalization with overlap
     ethr =  3.38E-12,  avg # of iterations =  1.0

     total cpu time spent up to now is      136.2 secs

     total energy              =     -95.08282039 Ry
     Harris-Foulkes estimate   =     -95.08282039 Ry
     estimated scf accuracy    <          3.1E-10 Ry

     iteration # 11     ecut=    40.00 Ry     beta=0.70
     Davidson diagonalization with overlap
     ethr =  3.38E-12,  avg # of iterations =  2.0

     total cpu time spent up to now is      139.0 secs

     End of self-consistent calculation

     Number of k-points >= 100: set verbosity='high' to print the bands.

     the Fermi energy is     4.4958 ev

!    total energy              =     -95.08282039 Ry
     Harris-Foulkes estimate   =     -95.08282039 Ry
     estimated scf accuracy    <          3.5E-12 Ry

     The total energy is the sum of the following terms:

     one-electron contribution =     -75.96665271 Ry
     hartree contribution      =      39.35756407 Ry
     xc contribution           =     -14.34787925 Ry
     ewald contribution        =     -44.12581990 Ry
     smearing contrib. (-TS)   =      -0.00003259 Ry

     convergence has been achieved in  11 iterations

     Forces acting on atoms (cartesian axes, Ry/au):

     atom    1 type  1   force =     0.00000000    0.00000000    0.00000000

     Total force =     0.000000     Total SCF correction =     0.000000


     Computing stress (Cartesian axis) and pressure

          total   stress  (Ry/bohr**3)                   (kbar)     P=  100.13
   0.00068069  -0.00000000  -0.00000000        100.13     -0.00     -0.00
  -0.00000000   0.00068069   0.00000000         -0.00    100.13      0.00
  -0.00000000  -0.00000000   0.00068069         -0.00     -0.00    100.13


     bfgs converged in   5 scf cycles and   4 bfgs steps
     (criteria: energy <  1.0E-04 Ry, force <  1.0E-03Ry/Bohr, cell <  5.0E-01kbar)

     End of BFGS Geometry Optimization

     Final enthalpy =     -94.9815067420 Ry
Begin final coordinates
     new unit-cell volume =    149.03749 a.u.^3 (    22.08508 Ang^3 )
     density =      1.72858 g/cm^3

CELL_PARAMETERS (alat=  8.39869131)
  -0.501045183   0.000000000   0.501045183
  -0.000000000   0.501045183   0.501045183
  -0.501045183   0.501045183   0.000000000

ATOMIC_POSITIONS (crystal)
Na       0.000000000   0.000000000   0.000000000
End final coordinates



     A final scf calculation at the relaxed structure.
     The G-vectors are recalculated for the final unit cell
     Results may differ from those at the preceding step.

     Parallelization info
     --------------------
     sticks:   dense  smooth     PW     G-vecs:    dense   smooth      PW
     Min         192      94     34                 3581     1255     266
     Max         193      95     35                 3585     1258     267
     Sum         769     379    139                14331     5029    1067



     bravais-lattice index     =            2
     lattice parameter (alat)  =       8.3987  a.u.
     unit-cell volume          =     149.0375 (a.u.)^3
     number of atoms/cell      =            1
     number of atomic types    =            1
     number of electrons       =         9.00
     number of Kohn-Sham states=            9
     kinetic-energy cutoff     =      40.0000  Ry
     charge density cutoff     =     320.0000  Ry
     convergence threshold     =      1.0E-10
     mixing beta               =       0.7000
     number of iterations used =            8  plain     mixing
     Exchange-correlation      = SLA  PW   PBE  PBE ( 1  4  3  4 0 0)

     celldm(1)=   8.398691  celldm(2)=   0.000000  celldm(3)=   0.000000
     celldm(4)=   0.000000  celldm(5)=   0.000000  celldm(6)=   0.000000

     crystal axes: (cart. coord. in units of alat)
               a(1) = (  -0.501045   0.000000   0.501045 )  
               a(2) = (  -0.000000   0.501045   0.501045 )  
               a(3) = (  -0.501045   0.501045   0.000000 )  

     reciprocal axes: (cart. coord. in units 2 pi/alat)
               b(1) = ( -0.997914 -0.997914  0.997914 )  
               b(2) = (  0.997914  0.997914  0.997914 )  
               b(3) = ( -0.997914  0.997914 -0.997914 )  


     PseudoPot. # 1 for Na read from file:
     /home/s1333534/quantum_espresso/qe-6.1/pseudo/Na_pbe_v1.uspp.F.UPF
     MD5 check sum: 76a99c7e9422403d3e93cbc85ab7bccb
     Pseudo is Ultrasoft, Zval =  9.0
     Generated by new atomic code, or converted to UPF format
     Using radial grid of  819 points,  5 beta functions with: 
                l(1) =   0
                l(2) =   0
                l(3) =   1
                l(4) =   1
                l(5) =   2
     Q(r) pseudized with  8 coefficients,  rinner =    1.250   1.250   1.250
                                                       1.250   1.250

     atomic species   valence    mass     pseudopotential
        Na             9.00    22.99000     Na( 1.00)

     48 Sym. Ops., with inversion, found



   Cartesian axes

     site n.     atom                  positions (alat units)
         1           Na  tau(   1) = (  -0.0000000   0.0000000   0.0000000  )

     number of k points=   770  Marzari-Vanderbilt smearing, width (Ry)=  0.0200

     Number of k-points >= 100: set verbosity='high' to print them.

     Dense  grid:    14331 G-vectors     FFT dimensions: (  36,  36,  36)

     Smooth grid:     5029 G-vectors     FFT dimensions: (  24,  24,  24)

     Estimated max dynamical RAM per process >      19.30MB

     Estimated total allocated dynamical RAM >      77.20MB

     Initial potential from superposition of free atoms

     starting charge    8.99371, renormalised to    9.00000
     Starting wfc are    5 randomized atomic wfcs +    4 random wfc

     Writing output data file na.fcc.save

     total cpu time spent up to now is      142.1 secs

     per-process dynamical memory:    34.3 Mb

     Self-consistent Calculation

     iteration #  1     ecut=    40.00 Ry     beta=0.70
     Davidson diagonalization with overlap
     ethr =  1.00E-06,  avg # of iterations = 10.2

     total cpu time spent up to now is      150.3 secs

     total energy              =     -95.08259719 Ry
     Harris-Foulkes estimate   =     -95.08322265 Ry
     estimated scf accuracy    <       0.00166471 Ry

     iteration #  2     ecut=    40.00 Ry     beta=0.70
     Davidson diagonalization with overlap
     ethr =  1.85E-05,  avg # of iterations =  2.0

     total cpu time spent up to now is      153.1 secs

     total energy              =     -95.08282216 Ry
     Harris-Foulkes estimate   =     -95.08287464 Ry
     estimated scf accuracy    <       0.00019232 Ry

     iteration #  3     ecut=    40.00 Ry     beta=0.70
     Davidson diagonalization with overlap
     ethr =  2.14E-06,  avg # of iterations =  2.0

     total cpu time spent up to now is      155.9 secs

     total energy              =     -95.08284636 Ry
     Harris-Foulkes estimate   =     -95.08284780 Ry
     estimated scf accuracy    <       0.00001117 Ry

     iteration #  4     ecut=    40.00 Ry     beta=0.70
     Davidson diagonalization with overlap
     ethr =  1.24E-07,  avg # of iterations =  1.0

     total cpu time spent up to now is      158.3 secs

     total energy              =     -95.08284733 Ry
     Harris-Foulkes estimate   =     -95.08284727 Ry
     estimated scf accuracy    <       0.00000001 Ry

     iteration #  5     ecut=    40.00 Ry     beta=0.70
     Davidson diagonalization with overlap
     ethr =  1.59E-10,  avg # of iterations =  3.0

     total cpu time spent up to now is      161.6 secs

     total energy              =     -95.08284737 Ry
     Harris-Foulkes estimate   =     -95.08284737 Ry
     estimated scf accuracy    <          1.8E-09 Ry

     iteration #  6     ecut=    40.00 Ry     beta=0.70
     Davidson diagonalization with overlap
     ethr =  2.03E-11,  avg # of iterations =  1.6

     total cpu time spent up to now is      164.1 secs

     End of self-consistent calculation

     Number of k-points >= 100: set verbosity='high' to print the bands.

     the Fermi energy is     4.4959 ev

!    total energy              =     -95.08284737 Ry
     Harris-Foulkes estimate   =     -95.08284737 Ry
     estimated scf accuracy    <          6.2E-11 Ry

     The total energy is the sum of the following terms:

     one-electron contribution =     -75.96672890 Ry
     hartree contribution      =      39.35762897 Ry
     xc contribution           =     -14.34789495 Ry
     ewald contribution        =     -44.12581990 Ry
     smearing contrib. (-TS)   =      -0.00003260 Ry

     convergence has been achieved in   6 iterations

     Forces acting on atoms (cartesian axes, Ry/au):

     atom    1 type  1   force =     0.00000000    0.00000000    0.00000000

     Total force =     0.000000     Total SCF correction =     0.000000


     Computing stress (Cartesian axis) and pressure

          total   stress  (Ry/bohr**3)                   (kbar)     P=  100.39
   0.00068243   0.00000000  -0.00000000        100.39      0.00     -0.00
   0.00000000   0.00068243  -0.00000000          0.00    100.39     -0.00
  -0.00000000  -0.00000000   0.00068243         -0.00     -0.00    100.39


     Writing output data file na.fcc.save

     init_run     :      2.45s CPU      2.52s WALL (       2 calls)
     electrons    :    145.55s CPU    151.44s WALL (       6 calls)
     update_pot   :      0.55s CPU      0.55s WALL (       4 calls)
     forces       :      1.09s CPU      1.12s WALL (       6 calls)
     stress       :      5.87s CPU      5.91s WALL (       6 calls)

     Called by init_run:
     wfcinit      :      1.81s CPU      1.89s WALL (       2 calls)
     potinit      :      0.06s CPU      0.07s WALL (       2 calls)

     Called by electrons:
     c_bands      :    120.51s CPU    125.60s WALL (      53 calls)
     sum_band     :     24.05s CPU     24.82s WALL (      53 calls)
     v_of_rho     :      0.46s CPU      0.47s WALL (      58 calls)
     newd         :      0.55s CPU      0.57s WALL (      58 calls)
     mix_rho      :      0.03s CPU      0.03s WALL (      53 calls)

     Called by c_bands:
     init_us_2    :      6.42s CPU      6.18s WALL (   92400 calls)
     cegterg      :    114.00s CPU    119.13s WALL (   40810 calls)

     Called by sum_band:
     sum_band:bec :      0.10s CPU      0.12s WALL (   40810 calls)
     addusdens    :      0.60s CPU      0.61s WALL (      53 calls)

     Called by *egterg:
     h_psi        :     90.38s CPU     94.33s WALL (  118995 calls)
     s_psi        :      1.61s CPU      1.20s WALL (  118995 calls)
     g_psi        :      0.81s CPU      0.69s WALL (   76645 calls)
     cdiaghg      :     14.24s CPU     14.75s WALL (  113605 calls)

     Called by h_psi:
     h_psi:pot    :     90.06s CPU     93.83s WALL (  118995 calls)
     h_psi:calbec :      2.65s CPU      2.21s WALL (  118995 calls)
     vloc_psi     :     86.38s CPU     89.98s WALL (  118995 calls)
     add_vuspsi   :      0.87s CPU      1.33s WALL (  118995 calls)

     General routines
     calbec       :      3.78s CPU      3.45s WALL (  182905 calls)
     fft          :      0.26s CPU      0.27s WALL (     960 calls)
     ffts         :      0.01s CPU      0.01s WALL (     111 calls)
     fftw         :     97.17s CPU     94.58s WALL ( 2139546 calls)
     interpolate  :      0.04s CPU      0.04s WALL (     111 calls)
     davcio       :      0.01s CPU      0.01s WALL (    1540 calls)

     Parallel routines
     fft_scatter  :     20.04s CPU     21.65s WALL ( 2140617 calls)

     PWSCF        :  2m39.61s CPU     2m45.92s WALL


   This run was terminated on:  14:20:20  20Dec2017            

=------------------------------------------------------------------------------=
   JOB DONE.
=------------------------------------------------------------------------------=
