
     Program PWSCF v.6.1 (svn rev. 13369) starts on 20Dec2017 at 13:34: 1 

     This program is part of the open-source Quantum ESPRESSO suite
     for quantum simulation of materials; please cite
         "P. Giannozzi et al., J. Phys.:Condens. Matter 21 395502 (2009);
          URL http://www.quantum-espresso.org", 
     in publications or presentations arising from this work. More details at
     http://www.quantum-espresso.org/quote

     Parallel version (MPI), running on     4 processors
     R & G space division:  proc/nbgrp/npool/nimage =       4
     Waiting for input...
     Reading input from standard input

     Current dimensions of program PWSCF are:
     Max number of different atomic species (ntypx) = 10
     Max number of k-points (npk) =  40000
     Max angular momentum in pseudopotentials (lmaxx) =  3

     Subspace diagonalization in iterative solution of the eigenvalue problem:
     a serial algorithm will be used


     Parallelization info
     --------------------
     sticks:   dense  smooth     PW     G-vecs:    dense   smooth      PW
     Min         264     129     42                 5664     1996     367
     Max         265     130     43                 5665     1999     368
     Sum        1057     517    169                22659     7991    1471



     bravais-lattice index     =            2
     lattice parameter (alat)  =       9.7966  a.u.
     unit-cell volume          =     235.0567 (a.u.)^3
     number of atoms/cell      =            1
     number of atomic types    =            1
     number of electrons       =         9.00
     number of Kohn-Sham states=            9
     kinetic-energy cutoff     =      40.0000  Ry
     charge density cutoff     =     320.0000  Ry
     convergence threshold     =      1.0E-08
     mixing beta               =       0.7000
     number of iterations used =            8  plain     mixing
     Exchange-correlation      = SLA  PW   PBE  PBE ( 1  4  3  4 0 0)
     nstep                     =           50


     celldm(1)=   9.796648  celldm(2)=   0.000000  celldm(3)=   0.000000
     celldm(4)=   0.000000  celldm(5)=   0.000000  celldm(6)=   0.000000

     crystal axes: (cart. coord. in units of alat)
               a(1) = (  -0.500000   0.000000   0.500000 )  
               a(2) = (   0.000000   0.500000   0.500000 )  
               a(3) = (  -0.500000   0.500000   0.000000 )  

     reciprocal axes: (cart. coord. in units 2 pi/alat)
               b(1) = ( -1.000000 -1.000000  1.000000 )  
               b(2) = (  1.000000  1.000000  1.000000 )  
               b(3) = ( -1.000000  1.000000 -1.000000 )  


     PseudoPot. # 1 for Na read from file:
     /home/s1333534/quantum_espresso/qe-6.1/pseudo/Na_pbe_v1.uspp.F.UPF
     MD5 check sum: 76a99c7e9422403d3e93cbc85ab7bccb
     Pseudo is Ultrasoft, Zval =  9.0
     Generated by new atomic code, or converted to UPF format
     Using radial grid of  819 points,  5 beta functions with: 
                l(1) =   0
                l(2) =   0
                l(3) =   1
                l(4) =   1
                l(5) =   2
     Q(r) pseudized with  8 coefficients,  rinner =    1.250   1.250   1.250
                                                       1.250   1.250

     atomic species   valence    mass     pseudopotential
        Na             9.00    22.99000     Na( 1.00)

     48 Sym. Ops., with inversion, found



   Cartesian axes

     site n.     atom                  positions (alat units)
         1           Na  tau(   1) = (   0.0000000   0.0000000   0.0000000  )

     number of k points=   770  Marzari-Vanderbilt smearing, width (Ry)=  0.0200

     Number of k-points >= 100: set verbosity='high' to print them.

     Dense  grid:    22659 G-vectors     FFT dimensions: (  40,  40,  40)

     Smooth grid:     7991 G-vectors     FFT dimensions: (  27,  27,  27)

     Estimated max dynamical RAM per process >      30.28MB

     Estimated total allocated dynamical RAM >     121.13MB

     Initial potential from superposition of free atoms

     starting charge    8.99371, renormalised to    9.00000
     Starting wfc are    5 randomized atomic wfcs +    4 random wfc

     total cpu time spent up to now is        2.1 secs

     per-process dynamical memory:    39.2 Mb

     Self-consistent Calculation

     iteration #  1     ecut=    40.00 Ry     beta=0.70
     Davidson diagonalization with overlap
     ethr =  1.00E-02,  avg # of iterations =  5.4

     Threshold (ethr) on eigenvalues was too large:
     Diagonalizing with lowered threshold

     Davidson diagonalization with overlap
     ethr =  1.01E-05,  avg # of iterations =  3.9

     total cpu time spent up to now is       15.3 secs

     total energy              =     -95.10620430 Ry
     Harris-Foulkes estimate   =     -95.10644860 Ry
     estimated scf accuracy    <       0.00090497 Ry

     iteration #  2     ecut=    40.00 Ry     beta=0.70
     Davidson diagonalization with overlap
     ethr =  1.01E-05,  avg # of iterations =  2.0

     total cpu time spent up to now is       19.7 secs

     total energy              =     -95.10630641 Ry
     Harris-Foulkes estimate   =     -95.10632959 Ry
     estimated scf accuracy    <       0.00009905 Ry

     iteration #  3     ecut=    40.00 Ry     beta=0.70
     Davidson diagonalization with overlap
     ethr =  1.10E-06,  avg # of iterations =  2.1

     total cpu time spent up to now is       24.4 secs

     total energy              =     -95.10631829 Ry
     Harris-Foulkes estimate   =     -95.10631940 Ry
     estimated scf accuracy    <       0.00000594 Ry

     iteration #  4     ecut=    40.00 Ry     beta=0.70
     Davidson diagonalization with overlap
     ethr =  6.60E-08,  avg # of iterations =  1.0

     total cpu time spent up to now is       28.4 secs

     total energy              =     -95.10631885 Ry
     Harris-Foulkes estimate   =     -95.10631880 Ry
     estimated scf accuracy    <       0.00000001 Ry

     iteration #  5     ecut=    40.00 Ry     beta=0.70
     Davidson diagonalization with overlap
     ethr =  1.15E-10,  avg # of iterations =  3.0

     total cpu time spent up to now is       34.0 secs

     End of self-consistent calculation

     Number of k-points >= 100: set verbosity='high' to print the bands.

     the Fermi energy is     1.8716 ev

!    total energy              =     -95.10631888 Ry
     Harris-Foulkes estimate   =     -95.10631888 Ry
     estimated scf accuracy    <          1.6E-09 Ry

     The total energy is the sum of the following terms:

     one-electron contribution =     -86.77847065 Ry
     hartree contribution      =      43.85712973 Ry
     xc contribution           =     -14.27667929 Ry
     ewald contribution        =     -37.90825406 Ry
     smearing contrib. (-TS)   =      -0.00004461 Ry

     convergence has been achieved in   5 iterations

     Forces acting on atoms (cartesian axes, Ry/au):

     atom    1 type  1   force =     0.00000000    0.00000000    0.00000000

     Total force =     0.000000     Total SCF correction =     0.000000


     Computing stress (Cartesian axis) and pressure

          total   stress  (Ry/bohr**3)                   (kbar)     P=    2.59
   0.00001761   0.00000000   0.00000000          2.59      0.00      0.00
   0.00000000   0.00001761  -0.00000000          0.00      2.59     -0.00
   0.00000000  -0.00000000   0.00001761          0.00     -0.00      2.59


     BFGS Geometry Optimization

     number of scf cycles    =   1
     number of bfgs steps    =   0

     enthalpy new            =     -95.1063188821 Ry

     new trust radius        =       0.0013498891 bohr
     new conv_thr            =       0.0000000100 Ry

     new unit-cell volume =    235.36723 a.u.^3 (    34.87782 Ang^3 )
     density =      1.09456 g/cm^3

CELL_PARAMETERS (alat=  9.79664818)
  -0.500220116  -0.000000000   0.500220116
   0.000000000   0.500220116   0.500220116
  -0.500220116   0.500220116  -0.000000000

ATOMIC_POSITIONS (crystal)
Na       0.000000000   0.000000000   0.000000000



     Writing output data file na.fcc.save
     NEW-OLD atomic charge density approx. for the potential
     extrapolated charge    9.01187, renormalised to    9.00000

     total cpu time spent up to now is       36.7 secs

     per-process dynamical memory:    50.2 Mb

     Self-consistent Calculation

     iteration #  1     ecut=    40.00 Ry     beta=0.70
     Davidson diagonalization with overlap
     ethr =  1.00E-06,  avg # of iterations =  2.0

     total cpu time spent up to now is       42.2 secs

     total energy              =     -95.10623066 Ry
     Harris-Foulkes estimate   =     -95.01506769 Ry
     estimated scf accuracy    <       0.00005214 Ry

     iteration #  2     ecut=    40.00 Ry     beta=0.70
     Davidson diagonalization with overlap
     ethr =  5.79E-07,  avg # of iterations =  2.9

     total cpu time spent up to now is       47.5 secs

     total energy              =     -95.10632560 Ry
     Harris-Foulkes estimate   =     -95.10636389 Ry
     estimated scf accuracy    <       0.00008718 Ry

     iteration #  3     ecut=    40.00 Ry     beta=0.70
     Davidson diagonalization with overlap
     ethr =  5.79E-07,  avg # of iterations =  1.6

     total cpu time spent up to now is       51.7 secs

     total energy              =     -95.10632630 Ry
     Harris-Foulkes estimate   =     -95.10633128 Ry
     estimated scf accuracy    <       0.00001711 Ry

     iteration #  4     ecut=    40.00 Ry     beta=0.70
     Davidson diagonalization with overlap
     ethr =  1.90E-07,  avg # of iterations =  1.0

     total cpu time spent up to now is       55.7 secs

     total energy              =     -95.10632480 Ry
     Harris-Foulkes estimate   =     -95.10632698 Ry
     estimated scf accuracy    <       0.00000674 Ry

     iteration #  5     ecut=    40.00 Ry     beta=0.70
     Davidson diagonalization with overlap
     ethr =  7.49E-08,  avg # of iterations =  1.0

     total cpu time spent up to now is       59.6 secs

     total energy              =     -95.10632421 Ry
     Harris-Foulkes estimate   =     -95.10632502 Ry
     estimated scf accuracy    <       0.00000254 Ry

     iteration #  6     ecut=    40.00 Ry     beta=0.70
     Davidson diagonalization with overlap
     ethr =  2.83E-08,  avg # of iterations =  1.0

     total cpu time spent up to now is       63.6 secs

     total energy              =     -95.10632362 Ry
     Harris-Foulkes estimate   =     -95.10632429 Ry
     estimated scf accuracy    <       0.00000097 Ry

     iteration #  7     ecut=    40.00 Ry     beta=0.70
     Davidson diagonalization with overlap
     ethr =  1.08E-08,  avg # of iterations =  2.0

     total cpu time spent up to now is       68.4 secs

     End of self-consistent calculation

     Number of k-points >= 100: set verbosity='high' to print the bands.

     the Fermi energy is     1.8657 ev

!    total energy              =     -95.10632384 Ry
     Harris-Foulkes estimate   =     -95.10632385 Ry
     estimated scf accuracy    <          1.5E-09 Ry

     The total energy is the sum of the following terms:

     one-electron contribution =     -86.80748584 Ry
     hartree contribution      =      43.86923196 Ry
     xc contribution           =     -14.27645234 Ry
     ewald contribution        =     -37.89157297 Ry
     smearing contrib. (-TS)   =      -0.00004466 Ry

     convergence has been achieved in   7 iterations

     Forces acting on atoms (cartesian axes, Ry/au):

     atom    1 type  1   force =     0.00000000    0.00000000    0.00000000

     Total force =     0.000000     Total SCF correction =     0.000000


     Computing stress (Cartesian axis) and pressure

          total   stress  (Ry/bohr**3)                   (kbar)     P=    1.96
   0.00001334  -0.00000000  -0.00000000          1.96     -0.00     -0.00
  -0.00000000   0.00001334  -0.00000000         -0.00      1.96     -0.00
  -0.00000000  -0.00000000   0.00001334         -0.00     -0.00      1.96


     number of scf cycles    =   2
     number of bfgs steps    =   1

     enthalpy old            =     -95.1063188821 Ry
     enthalpy new            =     -95.1063238442 Ry

     CASE: enthalpy_new < enthalpy_old

     new trust radius        =       0.0014852048 bohr
     new conv_thr            =            1.0E-10 Ry

     new unit-cell volume =    235.70917 a.u.^3 (    34.92850 Ang^3 )
     density =      1.09297 g/cm^3

CELL_PARAMETERS (alat=  9.79664818)
  -0.500462244  -0.000000000   0.500462244
   0.000000000   0.500462244   0.500462244
  -0.500462244   0.500462244  -0.000000000

ATOMIC_POSITIONS (crystal)
Na       0.000000000   0.000000000   0.000000000



     Writing output data file na.fcc.save
     NEW-OLD atomic charge density approx. for the potential
     extrapolated charge    9.01305, renormalised to    9.00000

     total cpu time spent up to now is       71.1 secs

     per-process dynamical memory:    50.2 Mb

     Self-consistent Calculation

     iteration #  1     ecut=    40.00 Ry     beta=0.70
     Davidson diagonalization with overlap
     ethr =  1.00E-06,  avg # of iterations =  2.0

     total cpu time spent up to now is       76.6 secs

     total energy              =     -95.10621677 Ry
     Harris-Foulkes estimate   =     -95.00595827 Ry
     estimated scf accuracy    <       0.00006238 Ry

     iteration #  2     ecut=    40.00 Ry     beta=0.70
     Davidson diagonalization with overlap
     ethr =  6.93E-07,  avg # of iterations =  3.0

     total cpu time spent up to now is       81.9 secs

     total energy              =     -95.10633117 Ry
     Harris-Foulkes estimate   =     -95.10637727 Ry
     estimated scf accuracy    <       0.00010518 Ry

     iteration #  3     ecut=    40.00 Ry     beta=0.70
     Davidson diagonalization with overlap
     ethr =  6.93E-07,  avg # of iterations =  1.6

     total cpu time spent up to now is       86.1 secs

     total energy              =     -95.10633189 Ry
     Harris-Foulkes estimate   =     -95.10633799 Ry
     estimated scf accuracy    <       0.00002075 Ry

     iteration #  4     ecut=    40.00 Ry     beta=0.70
     Davidson diagonalization with overlap
     ethr =  2.31E-07,  avg # of iterations =  1.0

     total cpu time spent up to now is       90.1 secs

     total energy              =     -95.10633008 Ry
     Harris-Foulkes estimate   =     -95.10633272 Ry
     estimated scf accuracy    <       0.00000811 Ry

     iteration #  5     ecut=    40.00 Ry     beta=0.70
     Davidson diagonalization with overlap
     ethr =  9.01E-08,  avg # of iterations =  1.0

     total cpu time spent up to now is       94.1 secs

     total energy              =     -95.10632939 Ry
     Harris-Foulkes estimate   =     -95.10633035 Ry
     estimated scf accuracy    <       0.00000304 Ry

     iteration #  6     ecut=    40.00 Ry     beta=0.70
     Davidson diagonalization with overlap
     ethr =  3.37E-08,  avg # of iterations =  1.0

     total cpu time spent up to now is       98.0 secs

     total energy              =     -95.10632869 Ry
     Harris-Foulkes estimate   =     -95.10632949 Ry
     estimated scf accuracy    <       0.00000117 Ry

     iteration #  7     ecut=    40.00 Ry     beta=0.70
     Davidson diagonalization with overlap
     ethr =  1.30E-08,  avg # of iterations =  2.0

     total cpu time spent up to now is      102.8 secs

     total energy              =     -95.10632896 Ry
     Harris-Foulkes estimate   =     -95.10632895 Ry
     estimated scf accuracy    <          6.9E-10 Ry

     iteration #  8     ecut=    40.00 Ry     beta=0.70
     Davidson diagonalization with overlap
     ethr =  7.64E-12,  avg # of iterations =  3.0

     total cpu time spent up to now is      108.4 secs

     total energy              =     -95.10632895 Ry
     Harris-Foulkes estimate   =     -95.10632896 Ry
     estimated scf accuracy    <       0.00000001 Ry

     iteration #  9     ecut=    40.00 Ry     beta=0.70
     Davidson diagonalization with overlap
     ethr =  7.64E-12,  avg # of iterations =  3.0

     total cpu time spent up to now is      113.8 secs

     total energy              =     -95.10632895 Ry
     Harris-Foulkes estimate   =     -95.10632895 Ry
     estimated scf accuracy    <          1.4E-09 Ry

     iteration # 10     ecut=    40.00 Ry     beta=0.70
     Davidson diagonalization with overlap
     ethr =  7.64E-12,  avg # of iterations =  2.0

     total cpu time spent up to now is      118.5 secs

     End of self-consistent calculation

     Number of k-points >= 100: set verbosity='high' to print the bands.

     the Fermi energy is     1.8592 ev

!    total energy              =     -95.10632895 Ry
     Harris-Foulkes estimate   =     -95.10632895 Ry
     estimated scf accuracy    <          2.3E-11 Ry

     The total energy is the sum of the following terms:

     one-electron contribution =     -86.83975340 Ry
     hartree contribution      =      43.88299860 Ry
     xc contribution           =     -14.27628872 Ry
     ewald contribution        =     -37.87324072 Ry
     smearing contrib. (-TS)   =      -0.00004472 Ry

     convergence has been achieved in  10 iterations

     Forces acting on atoms (cartesian axes, Ry/au):

     atom    1 type  1   force =     0.00000000    0.00000000    0.00000000

     Total force =     0.000000     Total SCF correction =     0.000000


     Computing stress (Cartesian axis) and pressure

          total   stress  (Ry/bohr**3)                   (kbar)     P=    2.08
   0.00001411   0.00000000   0.00000000          2.08      0.00      0.00
   0.00000000   0.00001411  -0.00000000          0.00      2.08     -0.00
   0.00000000  -0.00000000   0.00001411          0.00     -0.00      2.08


     number of scf cycles    =   3
     number of bfgs steps    =   2

     enthalpy old            =     -95.1063238442 Ry
     enthalpy new            =     -95.1063289516 Ry

     CASE: enthalpy_new < enthalpy_old


     WARNING: bfgs curvature condition failed, Theta= 0.684
     uphill step: resetting bfgs history

     new trust radius        =       0.0010834281 bohr
     new conv_thr            =            1.0E-10 Ry

     new unit-cell volume =    235.95877 a.u.^3 (    34.96548 Ang^3 )
     density =      1.09181 g/cm^3

CELL_PARAMETERS (alat=  9.79664818)
  -0.500638829  -0.000000000   0.500638829
   0.000000000   0.500638829   0.500638829
  -0.500638829   0.500638829  -0.000000000

ATOMIC_POSITIONS (crystal)
Na       0.000000000   0.000000000   0.000000000



     Writing output data file na.fcc.save
     NEW-OLD atomic charge density approx. for the potential
     extrapolated charge    9.00951, renormalised to    9.00000

     total cpu time spent up to now is      121.3 secs

     per-process dynamical memory:    50.2 Mb

     Self-consistent Calculation

     iteration #  1     ecut=    40.00 Ry     beta=0.70
     Davidson diagonalization with overlap
     ethr =  1.00E-06,  avg # of iterations =  2.0

     total cpu time spent up to now is      126.7 secs

     total energy              =     -95.10627271 Ry
     Harris-Foulkes estimate   =     -95.03313130 Ry
     estimated scf accuracy    <       0.00003335 Ry

     iteration #  2     ecut=    40.00 Ry     beta=0.70
     Davidson diagonalization with overlap
     ethr =  3.71E-07,  avg # of iterations =  3.0

     total cpu time spent up to now is      132.0 secs

     total energy              =     -95.10633358 Ry
     Harris-Foulkes estimate   =     -95.10635813 Ry
     estimated scf accuracy    <       0.00005593 Ry

     iteration #  3     ecut=    40.00 Ry     beta=0.70
     Davidson diagonalization with overlap
     ethr =  3.71E-07,  avg # of iterations =  1.6

     total cpu time spent up to now is      136.2 secs

     total energy              =     -95.10633402 Ry
     Harris-Foulkes estimate   =     -95.10633723 Ry
     estimated scf accuracy    <       0.00001099 Ry

     iteration #  4     ecut=    40.00 Ry     beta=0.70
     Davidson diagonalization with overlap
     ethr =  1.22E-07,  avg # of iterations =  1.0

     total cpu time spent up to now is      140.2 secs

     total energy              =     -95.10633305 Ry
     Harris-Foulkes estimate   =     -95.10633446 Ry
     estimated scf accuracy    <       0.00000434 Ry

     iteration #  5     ecut=    40.00 Ry     beta=0.70
     Davidson diagonalization with overlap
     ethr =  4.82E-08,  avg # of iterations =  1.0

     total cpu time spent up to now is      144.2 secs

     total energy              =     -95.10633267 Ry
     Harris-Foulkes estimate   =     -95.10633319 Ry
     estimated scf accuracy    <       0.00000163 Ry

     iteration #  6     ecut=    40.00 Ry     beta=0.70
     Davidson diagonalization with overlap
     ethr =  1.81E-08,  avg # of iterations =  1.0

     total cpu time spent up to now is      148.1 secs

     total energy              =     -95.10633233 Ry
     Harris-Foulkes estimate   =     -95.10633273 Ry
     estimated scf accuracy    <       0.00000061 Ry

     iteration #  7     ecut=    40.00 Ry     beta=0.70
     Davidson diagonalization with overlap
     ethr =  6.82E-09,  avg # of iterations =  2.0

     total cpu time spent up to now is      152.8 secs

     total energy              =     -95.10633244 Ry
     Harris-Foulkes estimate   =     -95.10633245 Ry
     estimated scf accuracy    <          2.5E-09 Ry

     iteration #  8     ecut=    40.00 Ry     beta=0.70
     Davidson diagonalization with overlap
     ethr =  2.79E-11,  avg # of iterations =  2.0

     total cpu time spent up to now is      157.7 secs

     total energy              =     -95.10633244 Ry
     Harris-Foulkes estimate   =     -95.10633245 Ry
     estimated scf accuracy    <          2.2E-09 Ry

     iteration #  9     ecut=    40.00 Ry     beta=0.70
     Davidson diagonalization with overlap
     ethr =  2.50E-11,  avg # of iterations =  1.0

     total cpu time spent up to now is      161.6 secs

     total energy              =     -95.10633244 Ry
     Harris-Foulkes estimate   =     -95.10633244 Ry
     estimated scf accuracy    <          4.6E-10 Ry

     iteration # 10     ecut=    40.00 Ry     beta=0.70
     Davidson diagonalization with overlap
     ethr =  5.13E-12,  avg # of iterations =  2.0

     total cpu time spent up to now is      166.5 secs

     total energy              =     -95.10633244 Ry
     Harris-Foulkes estimate   =     -95.10633244 Ry
     estimated scf accuracy    <          2.3E-10 Ry

     iteration # 11     ecut=    40.00 Ry     beta=0.70
     Davidson diagonalization with overlap
     ethr =  2.59E-12,  avg # of iterations =  2.0

     total cpu time spent up to now is      171.2 secs

     End of self-consistent calculation

     Number of k-points >= 100: set verbosity='high' to print the bands.

     the Fermi energy is     1.8546 ev

!    total energy              =     -95.10633244 Ry
     Harris-Foulkes estimate   =     -95.10633244 Ry
     estimated scf accuracy    <          6.0E-14 Ry

     The total energy is the sum of the following terms:

     one-electron contribution =     -86.86318566 Ry
     hartree contribution      =      43.89293048 Ry
     xc contribution           =     -14.27615040 Ry
     ewald contribution        =     -37.85988211 Ry
     smearing contrib. (-TS)   =      -0.00004476 Ry

     convergence has been achieved in  11 iterations

     Forces acting on atoms (cartesian axes, Ry/au):

     atom    1 type  1   force =     0.00000000    0.00000000    0.00000000

     Total force =     0.000000     Total SCF correction =     0.000000


     Computing stress (Cartesian axis) and pressure

          total   stress  (Ry/bohr**3)                   (kbar)     P=    2.00
   0.00001359  -0.00000000   0.00000000          2.00     -0.00      0.00
  -0.00000000   0.00001359  -0.00000000         -0.00      2.00     -0.00
   0.00000000  -0.00000000   0.00001359          0.00     -0.00      2.00


     number of scf cycles    =   4
     number of bfgs steps    =   3

     enthalpy old            =     -95.1063289516 Ry
     enthalpy new            =     -95.1063324441 Ry

     CASE: enthalpy_new < enthalpy_old


     WARNING: bfgs curvature condition failed, Theta= 0.831
     new trust radius        =       0.0011919811 bohr
     new conv_thr            =            1.0E-10 Ry

     new unit-cell volume =    236.23352 a.u.^3 (    35.00620 Ang^3 )
     density =      1.09054 g/cm^3

CELL_PARAMETERS (alat=  9.79664818)
  -0.500833072  -0.000000000   0.500833072
   0.000000000   0.500833072   0.500833072
  -0.500833072   0.500833072  -0.000000000

ATOMIC_POSITIONS (crystal)
Na       0.000000000   0.000000000   0.000000000



     Writing output data file na.fcc.save
     NEW-OLD atomic charge density approx. for the potential
     extrapolated charge    9.01046, renormalised to    9.00000

     total cpu time spent up to now is      174.0 secs

     per-process dynamical memory:    50.2 Mb

     Self-consistent Calculation

     iteration #  1     ecut=    40.00 Ry     beta=0.70
     Davidson diagonalization with overlap
     ethr =  1.00E-06,  avg # of iterations =  2.0

     total cpu time spent up to now is      179.4 secs

     total energy              =     -95.10626376 Ry
     Harris-Foulkes estimate   =     -95.02582195 Ry
     estimated scf accuracy    <       0.00004039 Ry

     iteration #  2     ecut=    40.00 Ry     beta=0.70
     Davidson diagonalization with overlap
     ethr =  4.49E-07,  avg # of iterations =  3.0

     total cpu time spent up to now is      186.7 secs

     total energy              =     -95.10633744 Ry
     Harris-Foulkes estimate   =     -95.10636714 Ry
     estimated scf accuracy    <       0.00006768 Ry

     iteration #  3     ecut=    40.00 Ry     beta=0.70
     Davidson diagonalization with overlap
     ethr =  4.49E-07,  avg # of iterations =  1.6

     total cpu time spent up to now is      190.9 secs

     total energy              =     -95.10633797 Ry
     Harris-Foulkes estimate   =     -95.10634184 Ry
     estimated scf accuracy    <       0.00001329 Ry

     iteration #  4     ecut=    40.00 Ry     beta=0.70
     Davidson diagonalization with overlap
     ethr =  1.48E-07,  avg # of iterations =  1.0

     total cpu time spent up to now is      194.9 secs

     total energy              =     -95.10633679 Ry
     Harris-Foulkes estimate   =     -95.10633850 Ry
     estimated scf accuracy    <       0.00000525 Ry

     iteration #  5     ecut=    40.00 Ry     beta=0.70
     Davidson diagonalization with overlap
     ethr =  5.83E-08,  avg # of iterations =  1.0

     total cpu time spent up to now is      198.8 secs

     total energy              =     -95.10633634 Ry
     Harris-Foulkes estimate   =     -95.10633697 Ry
     estimated scf accuracy    <       0.00000197 Ry

     iteration #  6     ecut=    40.00 Ry     beta=0.70
     Davidson diagonalization with overlap
     ethr =  2.19E-08,  avg # of iterations =  1.0

     total cpu time spent up to now is      202.8 secs

     total energy              =     -95.10633592 Ry
     Harris-Foulkes estimate   =     -95.10633640 Ry
     estimated scf accuracy    <       0.00000074 Ry

     iteration #  7     ecut=    40.00 Ry     beta=0.70
     Davidson diagonalization with overlap
     ethr =  8.25E-09,  avg # of iterations =  2.0

     total cpu time spent up to now is      207.5 secs

     total energy              =     -95.10633606 Ry
     Harris-Foulkes estimate   =     -95.10633606 Ry
     estimated scf accuracy    <          2.0E-09 Ry

     iteration #  8     ecut=    40.00 Ry     beta=0.70
     Davidson diagonalization with overlap
     ethr =  2.17E-11,  avg # of iterations =  2.5

     total cpu time spent up to now is      212.6 secs

     total energy              =     -95.10633606 Ry
     Harris-Foulkes estimate   =     -95.10633606 Ry
     estimated scf accuracy    <          3.5E-09 Ry

     iteration #  9     ecut=    40.00 Ry     beta=0.70
     Davidson diagonalization with overlap
     ethr =  2.17E-11,  avg # of iterations =  2.0

     total cpu time spent up to now is      217.3 secs

     total energy              =     -95.10633606 Ry
     Harris-Foulkes estimate   =     -95.10633606 Ry
     estimated scf accuracy    <          3.7E-10 Ry

     iteration # 10     ecut=    40.00 Ry     beta=0.70
     Davidson diagonalization with overlap
     ethr =  4.07E-12,  avg # of iterations =  2.0

     total cpu time spent up to now is      222.0 secs

     End of self-consistent calculation

     Number of k-points >= 100: set verbosity='high' to print the bands.

     the Fermi energy is     1.8494 ev

!    total energy              =     -95.10633606 Ry
     Harris-Foulkes estimate   =     -95.10633606 Ry
     estimated scf accuracy    <          3.6E-11 Ry

     The total energy is the sum of the following terms:

     one-electron contribution =     -86.88894654 Ry
     hartree contribution      =      43.90385319 Ry
     xc contribution           =     -14.27599938 Ry
     ewald contribution        =     -37.84519853 Ry
     smearing contrib. (-TS)   =      -0.00004480 Ry

     convergence has been achieved in  10 iterations

     Forces acting on atoms (cartesian axes, Ry/au):

     atom    1 type  1   force =     0.00000000    0.00000000    0.00000000

     Total force =     0.000000     Total SCF correction =     0.000000


     Computing stress (Cartesian axis) and pressure

          total   stress  (Ry/bohr**3)                   (kbar)     P=    1.92
   0.00001306   0.00000000   0.00000000          1.92      0.00      0.00
   0.00000000   0.00001306  -0.00000000          0.00      1.92     -0.00
   0.00000000  -0.00000000   0.00001306          0.00     -0.00      1.92


     number of scf cycles    =   5
     number of bfgs steps    =   4

     enthalpy old            =     -95.1063324441 Ry
     enthalpy new            =     -95.1063360606 Ry

     CASE: enthalpy_new < enthalpy_old

     new trust radius        =       0.0017883185 bohr
     new conv_thr            =            1.0E-10 Ry

     new unit-cell volume =    236.64606 a.u.^3 (    35.06733 Ang^3 )
     density =      1.08864 g/cm^3

CELL_PARAMETERS (alat=  9.79664818)
  -0.501124437  -0.000000000   0.501124437
   0.000000000   0.501124437   0.501124437
  -0.501124437   0.501124437  -0.000000000

ATOMIC_POSITIONS (crystal)
Na       0.000000000   0.000000000   0.000000000



     Writing output data file na.fcc.save
     NEW-OLD atomic charge density approx. for the potential
     extrapolated charge    9.01568, renormalised to    9.00000

     total cpu time spent up to now is      224.8 secs

     per-process dynamical memory:    50.2 Mb

     Self-consistent Calculation

     iteration #  1     ecut=    40.00 Ry     beta=0.70
     Davidson diagonalization with overlap
     ethr =  1.00E-06,  avg # of iterations =  2.0

     total cpu time spent up to now is      230.3 secs

     total energy              =     -95.10617818 Ry
     Harris-Foulkes estimate   =     -94.98559501 Ry
     estimated scf accuracy    <       0.00009103 Ry

     iteration #  2     ecut=    40.00 Ry     beta=0.70
     Davidson diagonalization with overlap
     ethr =  1.01E-06,  avg # of iterations =  2.9

     total cpu time spent up to now is      235.9 secs

     total energy              =     -95.10634416 Ry
     Harris-Foulkes estimate   =     -95.10641107 Ry
     estimated scf accuracy    <       0.00015240 Ry

     iteration #  3     ecut=    40.00 Ry     beta=0.70
     Davidson diagonalization with overlap
     ethr =  1.01E-06,  avg # of iterations =  1.6

     total cpu time spent up to now is      240.1 secs

     total energy              =     -95.10634513 Ry
     Harris-Foulkes estimate   =     -95.10635410 Ry
     estimated scf accuracy    <       0.00002989 Ry

     iteration #  4     ecut=    40.00 Ry     beta=0.70
     Davidson diagonalization with overlap
     ethr =  3.32E-07,  avg # of iterations =  1.0

     total cpu time spent up to now is      244.0 secs

     total energy              =     -95.10634262 Ry
     Harris-Foulkes estimate   =     -95.10634633 Ry
     estimated scf accuracy    <       0.00001141 Ry

     iteration #  5     ecut=    40.00 Ry     beta=0.70
     Davidson diagonalization with overlap
     ethr =  1.27E-07,  avg # of iterations =  1.0

     total cpu time spent up to now is      248.0 secs

     total energy              =     -95.10634174 Ry
     Harris-Foulkes estimate   =     -95.10634300 Ry
     estimated scf accuracy    <       0.00000424 Ry

     iteration #  6     ecut=    40.00 Ry     beta=0.70
     Davidson diagonalization with overlap
     ethr =  4.71E-08,  avg # of iterations =  1.0

     total cpu time spent up to now is      252.0 secs

     total energy              =     -95.10634060 Ry
     Harris-Foulkes estimate   =     -95.10634186 Ry
     estimated scf accuracy    <       0.00000176 Ry

     iteration #  7     ecut=    40.00 Ry     beta=0.70
     Davidson diagonalization with overlap
     ethr =  1.95E-08,  avg # of iterations =  2.0

     total cpu time spent up to now is      256.7 secs

     total energy              =     -95.10634105 Ry
     Harris-Foulkes estimate   =     -95.10634105 Ry
     estimated scf accuracy    <       0.00000002 Ry

     iteration #  8     ecut=    40.00 Ry     beta=0.70
     Davidson diagonalization with overlap
     ethr =  2.11E-10,  avg # of iterations =  1.0

     total cpu time spent up to now is      260.7 secs

     total energy              =     -95.10634104 Ry
     Harris-Foulkes estimate   =     -95.10634105 Ry
     estimated scf accuracy    <       0.00000002 Ry

     iteration #  9     ecut=    40.00 Ry     beta=0.70
     Davidson diagonalization with overlap
     ethr =  1.94E-10,  avg # of iterations =  1.0

     total cpu time spent up to now is      264.6 secs

     total energy              =     -95.10634105 Ry
     Harris-Foulkes estimate   =     -95.10634105 Ry
     estimated scf accuracy    <          2.2E-09 Ry

     iteration # 10     ecut=    40.00 Ry     beta=0.70
     Davidson diagonalization with overlap
     ethr =  2.39E-11,  avg # of iterations =  1.0

     total cpu time spent up to now is      268.6 secs

     total energy              =     -95.10634104 Ry
     Harris-Foulkes estimate   =     -95.10634105 Ry
     estimated scf accuracy    <          1.9E-09 Ry

     iteration # 11     ecut=    40.00 Ry     beta=0.70
     Davidson diagonalization with overlap
     ethr =  2.09E-11,  avg # of iterations =  2.0

     total cpu time spent up to now is      273.4 secs

     End of self-consistent calculation

     Number of k-points >= 100: set verbosity='high' to print the bands.

     the Fermi energy is     1.8417 ev

!    total energy              =     -95.10634104 Ry
     Harris-Foulkes estimate   =     -95.10634104 Ry
     estimated scf accuracy    <          1.6E-11 Ry

     The total energy is the sum of the following terms:

     one-electron contribution =     -86.92749836 Ry
     hartree contribution      =      43.92015745 Ry
     xc contribution           =     -14.27576078 Ry
     ewald contribution        =     -37.82319449 Ry
     smearing contrib. (-TS)   =      -0.00004487 Ry

     convergence has been achieved in  11 iterations

     Forces acting on atoms (cartesian axes, Ry/au):

     atom    1 type  1   force =     0.00000000    0.00000000    0.00000000

     Total force =     0.000000     Total SCF correction =     0.000000


     Computing stress (Cartesian axis) and pressure

          total   stress  (Ry/bohr**3)                   (kbar)     P=    1.71
   0.00001161   0.00000000  -0.00000000          1.71      0.00     -0.00
  -0.00000000   0.00001161  -0.00000000         -0.00      1.71     -0.00
  -0.00000000   0.00000000   0.00001161         -0.00      0.00      1.71


     number of scf cycles    =   6
     number of bfgs steps    =   5

     enthalpy old            =     -95.1063360606 Ry
     enthalpy new            =     -95.1063410447 Ry

     CASE: enthalpy_new < enthalpy_old

     new trust radius        =       0.0026832579 bohr
     new conv_thr            =            1.0E-10 Ry

     new unit-cell volume =    237.26576 a.u.^3 (    35.15916 Ang^3 )
     density =      1.08580 g/cm^3

CELL_PARAMETERS (alat=  9.79664818)
  -0.501561484  -0.000000000   0.501561484
   0.000000000   0.501561484   0.501561484
  -0.501561484   0.501561484  -0.000000000

ATOMIC_POSITIONS (crystal)
Na       0.000000000   0.000000000   0.000000000



     Writing output data file na.fcc.save
     NEW-OLD atomic charge density approx. for the potential
     extrapolated charge    9.02349, renormalised to    9.00000

     total cpu time spent up to now is      276.1 secs

     per-process dynamical memory:    50.2 Mb

     Self-consistent Calculation

     iteration #  1     ecut=    40.00 Ry     beta=0.70
     Davidson diagonalization with overlap
     ethr =  1.00E-06,  avg # of iterations =  2.0

     total cpu time spent up to now is      281.6 secs

     total energy              =     -95.10598085 Ry
     Harris-Foulkes estimate   =     -94.92528522 Ry
     estimated scf accuracy    <       0.00020482 Ry

     iteration #  2     ecut=    40.00 Ry     beta=0.70
     Davidson diagonalization with overlap
     ethr =  2.28E-06,  avg # of iterations =  3.0

     total cpu time spent up to now is      287.7 secs

     total energy              =     -95.10635468 Ry
     Harris-Foulkes estimate   =     -95.10650531 Ry
     estimated scf accuracy    <       0.00034314 Ry

     iteration #  3     ecut=    40.00 Ry     beta=0.70
     Davidson diagonalization with overlap
     ethr =  2.28E-06,  avg # of iterations =  1.7

     total cpu time spent up to now is      292.0 secs

     total energy              =     -95.10635509 Ry
     Harris-Foulkes estimate   =     -95.10637718 Ry
     estimated scf accuracy    <       0.00006691 Ry

     iteration #  4     ecut=    40.00 Ry     beta=0.70
     Davidson diagonalization with overlap
     ethr =  7.43E-07,  avg # of iterations =  1.0

     total cpu time spent up to now is      295.9 secs

     total energy              =     -95.10634990 Ry
     Harris-Foulkes estimate   =     -95.10635797 Ry
     estimated scf accuracy    <       0.00002280 Ry

     iteration #  5     ecut=    40.00 Ry     beta=0.70
     Davidson diagonalization with overlap
     ethr =  2.53E-07,  avg # of iterations =  1.0

     total cpu time spent up to now is      299.9 secs

     total energy              =     -95.10634899 Ry
     Harris-Foulkes estimate   =     -95.10635089 Ry
     estimated scf accuracy    <       0.00000727 Ry

     iteration #  6     ecut=    40.00 Ry     beta=0.70
     Davidson diagonalization with overlap
     ethr =  8.07E-08,  avg # of iterations =  1.0

     total cpu time spent up to now is      303.8 secs

     total energy              =     -95.10634765 Ry
     Harris-Foulkes estimate   =     -95.10634916 Ry
     estimated scf accuracy    <       0.00000348 Ry

     iteration #  7     ecut=    40.00 Ry     beta=0.70
     Davidson diagonalization with overlap
     ethr =  3.87E-08,  avg # of iterations =  1.0

     total cpu time spent up to now is      307.8 secs

     total energy              =     -95.10634735 Ry
     Harris-Foulkes estimate   =     -95.10634786 Ry
     estimated scf accuracy    <       0.00000074 Ry

     iteration #  8     ecut=    40.00 Ry     beta=0.70
     Davidson diagonalization with overlap
     ethr =  8.19E-09,  avg # of iterations =  2.0

     total cpu time spent up to now is      312.6 secs

     total energy              =     -95.10634753 Ry
     Harris-Foulkes estimate   =     -95.10634753 Ry
     estimated scf accuracy    <          2.1E-09 Ry

     iteration #  9     ecut=    40.00 Ry     beta=0.70
     Davidson diagonalization with overlap
     ethr =  2.34E-11,  avg # of iterations =  2.0

     total cpu time spent up to now is      317.2 secs

     total energy              =     -95.10634753 Ry
     Harris-Foulkes estimate   =     -95.10634753 Ry
     estimated scf accuracy    <          5.8E-10 Ry

     iteration # 10     ecut=    40.00 Ry     beta=0.70
     Davidson diagonalization with overlap
     ethr =  6.43E-12,  avg # of iterations =  1.8

     total cpu time spent up to now is      321.5 secs

     total energy              =     -95.10634753 Ry
     Harris-Foulkes estimate   =     -95.10634753 Ry
     estimated scf accuracy    <          1.7E-09 Ry

     iteration # 11     ecut=    40.00 Ry     beta=0.70
     Davidson diagonalization with overlap
     ethr =  6.43E-12,  avg # of iterations =  2.0

     total cpu time spent up to now is      326.3 secs

     End of self-consistent calculation

     Number of k-points >= 100: set verbosity='high' to print the bands.

     the Fermi energy is     1.8301 ev

!    total energy              =     -95.10634753 Ry
     Harris-Foulkes estimate   =     -95.10634753 Ry
     estimated scf accuracy    <          1.1E-11 Ry

     The total energy is the sum of the following terms:

     one-electron contribution =     -86.98524811 Ry
     hartree contribution      =      43.94458635 Ry
     xc contribution           =     -14.27540443 Ry
     ewald contribution        =     -37.79023638 Ry
     smearing contrib. (-TS)   =      -0.00004497 Ry

     convergence has been achieved in  11 iterations

     Forces acting on atoms (cartesian axes, Ry/au):

     atom    1 type  1   force =     0.00000000    0.00000000    0.00000000

     Total force =     0.000000     Total SCF correction =     0.000000


     Computing stress (Cartesian axis) and pressure

          total   stress  (Ry/bohr**3)                   (kbar)     P=    1.38
   0.00000936   0.00000000   0.00000000          1.38      0.00      0.00
   0.00000000   0.00000936   0.00000000          0.00      1.38      0.00
   0.00000000   0.00000000   0.00000936          0.00      0.00      1.38


     number of scf cycles    =   7
     number of bfgs steps    =   6

     enthalpy old            =     -95.1063410447 Ry
     enthalpy new            =     -95.1063475341 Ry

     CASE: enthalpy_new < enthalpy_old

     new trust radius        =       0.0040266416 bohr
     new conv_thr            =            1.0E-10 Ry

     new unit-cell volume =    238.19734 a.u.^3 (    35.29720 Ang^3 )
     density =      1.08155 g/cm^3

CELL_PARAMETERS (alat=  9.79664818)
  -0.502217055  -0.000000000   0.502217055
   0.000000000   0.502217055   0.502217055
  -0.502217055   0.502217055  -0.000000000

ATOMIC_POSITIONS (crystal)
Na       0.000000000   0.000000000   0.000000000



     Writing output data file na.fcc.save
     NEW-OLD atomic charge density approx. for the potential
     extrapolated charge    9.03517, renormalised to    9.00000

     total cpu time spent up to now is      329.1 secs

     per-process dynamical memory:    50.2 Mb

     Self-consistent Calculation

     iteration #  1     ecut=    40.00 Ry     beta=0.70
     Davidson diagonalization with overlap
     ethr =  1.00E-06,  avg # of iterations =  2.1

     total cpu time spent up to now is      334.7 secs

     total energy              =     -95.10552899 Ry
     Harris-Foulkes estimate   =     -94.83489004 Ry
     estimated scf accuracy    <       0.00046118 Ry

     iteration #  2     ecut=    40.00 Ry     beta=0.70
     Davidson diagonalization with overlap
     ethr =  5.12E-06,  avg # of iterations =  3.0

     total cpu time spent up to now is      340.8 secs

     total energy              =     -95.10637155 Ry
     Harris-Foulkes estimate   =     -95.10671083 Ry
     estimated scf accuracy    <       0.00077298 Ry

     iteration #  3     ecut=    40.00 Ry     beta=0.70
     Davidson diagonalization with overlap
     ethr =  5.12E-06,  avg # of iterations =  1.7

     total cpu time spent up to now is      345.0 secs

     total energy              =     -95.10637223 Ry
     Harris-Foulkes estimate   =     -95.10642207 Ry
     estimated scf accuracy    <       0.00015122 Ry

     iteration #  4     ecut=    40.00 Ry     beta=0.70
     Davidson diagonalization with overlap
     ethr =  1.68E-06,  avg # of iterations =  1.0

     total cpu time spent up to now is      349.0 secs

     total energy              =     -95.10636048 Ry
     Harris-Foulkes estimate   =     -95.10637873 Ry
     estimated scf accuracy    <       0.00005166 Ry

     iteration #  5     ecut=    40.00 Ry     beta=0.70
     Davidson diagonalization with overlap
     ethr =  5.74E-07,  avg # of iterations =  1.0

     total cpu time spent up to now is      352.9 secs

     total energy              =     -95.10635830 Ry
     Harris-Foulkes estimate   =     -95.10636271 Ry
     estimated scf accuracy    <       0.00001652 Ry

     iteration #  6     ecut=    40.00 Ry     beta=0.70
     Davidson diagonalization with overlap
     ethr =  1.84E-07,  avg # of iterations =  1.0

     total cpu time spent up to now is      356.9 secs

     total energy              =     -95.10635592 Ry
     Harris-Foulkes estimate   =     -95.10635871 Ry
     estimated scf accuracy    <       0.00000778 Ry

     iteration #  7     ecut=    40.00 Ry     beta=0.70
     Davidson diagonalization with overlap
     ethr =  8.64E-08,  avg # of iterations =  1.0

     total cpu time spent up to now is      360.9 secs

     total energy              =     -95.10635446 Ry
     Harris-Foulkes estimate   =     -95.10635621 Ry
     estimated scf accuracy    <       0.00000253 Ry

     iteration #  8     ecut=    40.00 Ry     beta=0.70
     Davidson diagonalization with overlap
     ethr =  2.81E-08,  avg # of iterations =  2.0

     total cpu time spent up to now is      365.7 secs

     total energy              =     -95.10635506 Ry
     Harris-Foulkes estimate   =     -95.10635507 Ry
     estimated scf accuracy    <          6.2E-09 Ry

     iteration #  9     ecut=    40.00 Ry     beta=0.70
     Davidson diagonalization with overlap
     ethr =  6.91E-11,  avg # of iterations =  2.0

     total cpu time spent up to now is      370.3 secs

     total energy              =     -95.10635507 Ry
     Harris-Foulkes estimate   =     -95.10635507 Ry
     estimated scf accuracy    <          5.2E-10 Ry

     iteration # 10     ecut=    40.00 Ry     beta=0.70
     Davidson diagonalization with overlap
     ethr =  5.78E-12,  avg # of iterations =  2.0

     total cpu time spent up to now is      375.1 secs

     total energy              =     -95.10635506 Ry
     Harris-Foulkes estimate   =     -95.10635507 Ry
     estimated scf accuracy    <          1.4E-09 Ry

     iteration # 11     ecut=    40.00 Ry     beta=0.70
     Davidson diagonalization with overlap
     ethr =  5.78E-12,  avg # of iterations =  2.0

     total cpu time spent up to now is      380.0 secs

     End of self-consistent calculation

     Number of k-points >= 100: set verbosity='high' to print the bands.

     the Fermi energy is     1.8129 ev

!    total energy              =     -95.10635507 Ry
     Harris-Foulkes estimate   =     -95.10635507 Ry
     estimated scf accuracy    <          2.5E-11 Ry

     The total energy is the sum of the following terms:

     one-electron contribution =     -87.07171320 Ry
     hartree contribution      =      43.98118580 Ry
     xc contribution           =     -14.27487579 Ry
     ewald contribution        =     -37.74090676 Ry
     smearing contrib. (-TS)   =      -0.00004512 Ry

     convergence has been achieved in  11 iterations

     Forces acting on atoms (cartesian axes, Ry/au):

     atom    1 type  1   force =     0.00000000    0.00000000    0.00000000

     Total force =     0.000000     Total SCF correction =     0.000000


     Computing stress (Cartesian axis) and pressure

          total   stress  (Ry/bohr**3)                   (kbar)     P=    0.94
   0.00000640  -0.00000000  -0.00000000          0.94     -0.00     -0.00
  -0.00000000   0.00000640   0.00000000         -0.00      0.94      0.00
  -0.00000000   0.00000000   0.00000640         -0.00      0.00      0.94


     number of scf cycles    =   8
     number of bfgs steps    =   7

     enthalpy old            =     -95.1063475341 Ry
     enthalpy new            =     -95.1063550652 Ry

     CASE: enthalpy_new < enthalpy_old

     new trust radius        =       0.0060439083 bohr
     new conv_thr            =            1.0E-10 Ry

     new unit-cell volume =    239.59927 a.u.^3 (    35.50495 Ang^3 )
     density =      1.07522 g/cm^3

CELL_PARAMETERS (alat=  9.79664818)
  -0.503200411  -0.000000000   0.503200411
   0.000000000   0.503200411   0.503200411
  -0.503200411   0.503200411  -0.000000000

ATOMIC_POSITIONS (crystal)
Na       0.000000000   0.000000000   0.000000000



     Writing output data file na.fcc.save
     NEW-OLD atomic charge density approx. for the potential
     extrapolated charge    9.05262, renormalised to    9.00000

     total cpu time spent up to now is      382.8 secs

     per-process dynamical memory:    50.2 Mb

     Self-consistent Calculation

     iteration #  1     ecut=    40.00 Ry     beta=0.70
     Davidson diagonalization with overlap
     ethr =  1.00E-06,  avg # of iterations =  2.5

     total cpu time spent up to now is      388.5 secs

     total energy              =     -95.10449874 Ry
     Harris-Foulkes estimate   =     -94.69945542 Ry
     estimated scf accuracy    <       0.00103946 Ry

     iteration #  2     ecut=    40.00 Ry     beta=0.70
     Davidson diagonalization with overlap
     ethr =  1.15E-05,  avg # of iterations =  3.0

     total cpu time spent up to now is      394.7 secs

     total energy              =     -95.10639987 Ry
     Harris-Foulkes estimate   =     -95.10716468 Ry
     estimated scf accuracy    <       0.00174261 Ry

     iteration #  3     ecut=    40.00 Ry     beta=0.70
     Davidson diagonalization with overlap
     ethr =  1.15E-05,  avg # of iterations =  1.7

     total cpu time spent up to now is      398.9 secs

     total energy              =     -95.10640055 Ry
     Harris-Foulkes estimate   =     -95.10651325 Ry
     estimated scf accuracy    <       0.00034246 Ry

     iteration #  4     ecut=    40.00 Ry     beta=0.70
     Davidson diagonalization with overlap
     ethr =  3.81E-06,  avg # of iterations =  1.0

     total cpu time spent up to now is      402.8 secs

     total energy              =     -95.10637401 Ry
     Harris-Foulkes estimate   =     -95.10641524 Ry
     estimated scf accuracy    <       0.00011728 Ry

     iteration #  5     ecut=    40.00 Ry     beta=0.70
     Davidson diagonalization with overlap
     ethr =  1.30E-06,  avg # of iterations =  1.0

     total cpu time spent up to now is      406.8 secs

     total energy              =     -95.10636855 Ry
     Harris-Foulkes estimate   =     -95.10637901 Ry
     estimated scf accuracy    <       0.00003789 Ry

     iteration #  6     ecut=    40.00 Ry     beta=0.70
     Davidson diagonalization with overlap
     ethr =  4.21E-07,  avg # of iterations =  1.0

     total cpu time spent up to now is      410.7 secs

     total energy              =     -95.10636161 Ry
     Harris-Foulkes estimate   =     -95.10636952 Ry
     estimated scf accuracy    <       0.00001723 Ry

     iteration #  7     ecut=    40.00 Ry     beta=0.70
     Davidson diagonalization with overlap
     ethr =  1.91E-07,  avg # of iterations =  1.0

     total cpu time spent up to now is      414.7 secs

     total energy              =     -95.10636066 Ry
     Harris-Foulkes estimate   =     -95.10636278 Ry
     estimated scf accuracy    <       0.00000305 Ry

     iteration #  8     ecut=    40.00 Ry     beta=0.70
     Davidson diagonalization with overlap
     ethr =  3.38E-08,  avg # of iterations =  2.0

     total cpu time spent up to now is      419.4 secs

     total energy              =     -95.10636146 Ry
     Harris-Foulkes estimate   =     -95.10636147 Ry
     estimated scf accuracy    <       0.00000001 Ry

     iteration #  9     ecut=    40.00 Ry     beta=0.70
     Davidson diagonalization with overlap
     ethr =  1.16E-10,  avg # of iterations =  2.0

     total cpu time spent up to now is      423.9 secs

     total energy              =     -95.10636146 Ry
     Harris-Foulkes estimate   =     -95.10636146 Ry
     estimated scf accuracy    <          3.4E-09 Ry

     iteration # 10     ecut=    40.00 Ry     beta=0.70
     Davidson diagonalization with overlap
     ethr =  3.77E-11,  avg # of iterations =  1.0

     total cpu time spent up to now is      427.9 secs

     total energy              =     -95.10636146 Ry
     Harris-Foulkes estimate   =     -95.10636146 Ry
     estimated scf accuracy    <          6.2E-09 Ry

     iteration # 11     ecut=    40.00 Ry     beta=0.70
     Davidson diagonalization with overlap
     ethr =  3.77E-11,  avg # of iterations =  2.0

     total cpu time spent up to now is      432.6 secs

     End of self-consistent calculation

     Number of k-points >= 100: set verbosity='high' to print the bands.

     the Fermi energy is     1.7872 ev

!    total energy              =     -95.10636146 Ry
     Harris-Foulkes estimate   =     -95.10636146 Ry
     estimated scf accuracy    <          6.3E-11 Ry

     The total energy is the sum of the following terms:

     one-electron contribution =     -87.20103527 Ry
     hartree contribution      =      44.03596553 Ry
     xc contribution           =     -14.27409305 Ry
     ewald contribution        =     -37.66715332 Ry
     smearing contrib. (-TS)   =      -0.00004535 Ry

     convergence has been achieved in  11 iterations

     Forces acting on atoms (cartesian axes, Ry/au):

     atom    1 type  1   force =     0.00000000    0.00000000    0.00000000

     Total force =     0.000000     Total SCF correction =     0.000000


     Computing stress (Cartesian axis) and pressure

          total   stress  (Ry/bohr**3)                   (kbar)     P=    0.34
   0.00000228   0.00000000   0.00000000          0.34      0.00      0.00
   0.00000000   0.00000228  -0.00000000          0.00      0.34     -0.00
   0.00000000  -0.00000000   0.00000228          0.00     -0.00      0.34


     bfgs converged in   9 scf cycles and   8 bfgs steps
     (criteria: energy <  1.0E-04 Ry, force <  1.0E-03Ry/Bohr, cell <  5.0E-01kbar)

     End of BFGS Geometry Optimization

     Final enthalpy =     -95.1063614618 Ry
Begin final coordinates
     new unit-cell volume =    239.59927 a.u.^3 (    35.50495 Ang^3 )
     density =      1.07522 g/cm^3

CELL_PARAMETERS (alat=  9.79664818)
  -0.503200411  -0.000000000   0.503200411
   0.000000000   0.503200411   0.503200411
  -0.503200411   0.503200411  -0.000000000

ATOMIC_POSITIONS (crystal)
Na       0.000000000   0.000000000   0.000000000
End final coordinates



     A final scf calculation at the relaxed structure.
     The G-vectors are recalculated for the final unit cell
     Results may differ from those at the preceding step.

     Parallelization info
     --------------------
     sticks:   dense  smooth     PW     G-vecs:    dense   smooth      PW
     Min         267     133     46                 5791     2024     409
     Max         268     134     47                 5793     2025     411
     Sum        1069     535    187                23169     8099    1639



     bravais-lattice index     =            2
     lattice parameter (alat)  =       9.7966  a.u.
     unit-cell volume          =     239.5993 (a.u.)^3
     number of atoms/cell      =            1
     number of atomic types    =            1
     number of electrons       =         9.00
     number of Kohn-Sham states=            9
     kinetic-energy cutoff     =      40.0000  Ry
     charge density cutoff     =     320.0000  Ry
     convergence threshold     =      1.0E-10
     mixing beta               =       0.7000
     number of iterations used =            8  plain     mixing
     Exchange-correlation      = SLA  PW   PBE  PBE ( 1  4  3  4 0 0)

     celldm(1)=   9.796648  celldm(2)=   0.000000  celldm(3)=   0.000000
     celldm(4)=   0.000000  celldm(5)=   0.000000  celldm(6)=   0.000000

     crystal axes: (cart. coord. in units of alat)
               a(1) = (  -0.503200  -0.000000   0.503200 )  
               a(2) = (   0.000000   0.503200   0.503200 )  
               a(3) = (  -0.503200   0.503200  -0.000000 )  

     reciprocal axes: (cart. coord. in units 2 pi/alat)
               b(1) = ( -0.993640 -0.993640  0.993640 )  
               b(2) = (  0.993640  0.993640  0.993640 )  
               b(3) = ( -0.993640  0.993640 -0.993640 )  


     PseudoPot. # 1 for Na read from file:
     /home/s1333534/quantum_espresso/qe-6.1/pseudo/Na_pbe_v1.uspp.F.UPF
     MD5 check sum: 76a99c7e9422403d3e93cbc85ab7bccb
     Pseudo is Ultrasoft, Zval =  9.0
     Generated by new atomic code, or converted to UPF format
     Using radial grid of  819 points,  5 beta functions with: 
                l(1) =   0
                l(2) =   0
                l(3) =   1
                l(4) =   1
                l(5) =   2
     Q(r) pseudized with  8 coefficients,  rinner =    1.250   1.250   1.250
                                                       1.250   1.250

     atomic species   valence    mass     pseudopotential
        Na             9.00    22.99000     Na( 1.00)

     48 Sym. Ops., with inversion, found



   Cartesian axes

     site n.     atom                  positions (alat units)
         1           Na  tau(   1) = (   0.0000000   0.0000000   0.0000000  )

     number of k points=   770  Marzari-Vanderbilt smearing, width (Ry)=  0.0200

     Number of k-points >= 100: set verbosity='high' to print them.

     Dense  grid:    23169 G-vectors     FFT dimensions: (  40,  40,  40)

     Smooth grid:     8099 G-vectors     FFT dimensions: (  30,  30,  30)

     Estimated max dynamical RAM per process >      30.87MB

     Estimated total allocated dynamical RAM >     123.47MB

     Initial potential from superposition of free atoms

     starting charge    8.99371, renormalised to    9.00000
     Starting wfc are    5 randomized atomic wfcs +    4 random wfc

     Writing output data file na.fcc.save

     total cpu time spent up to now is      437.4 secs

     per-process dynamical memory:    47.8 Mb

     Self-consistent Calculation

     iteration #  1     ecut=    40.00 Ry     beta=0.70
     Davidson diagonalization with overlap
     c_bands:  1 eigenvalues not converged
     c_bands:  1 eigenvalues not converged
     c_bands:  1 eigenvalues not converged
     c_bands:  1 eigenvalues not converged
     c_bands:  1 eigenvalues not converged
     c_bands:  1 eigenvalues not converged
     c_bands:  1 eigenvalues not converged
     c_bands:  1 eigenvalues not converged
     c_bands:  1 eigenvalues not converged
     c_bands:  1 eigenvalues not converged
     c_bands:  1 eigenvalues not converged
     c_bands:  1 eigenvalues not converged
     c_bands:  1 eigenvalues not converged
     ethr =  1.00E-06,  avg # of iterations = 11.4

     total cpu time spent up to now is      453.3 secs

     total energy              =     -95.10634095 Ry
     Harris-Foulkes estimate   =     -95.10657296 Ry
     estimated scf accuracy    <       0.00089968 Ry

     iteration #  2     ecut=    40.00 Ry     beta=0.70
     Davidson diagonalization with overlap
     ethr =  1.00E-05,  avg # of iterations =  2.0

     total cpu time spent up to now is      458.8 secs

     total energy              =     -95.10644553 Ry
     Harris-Foulkes estimate   =     -95.10646958 Ry
     estimated scf accuracy    <       0.00010089 Ry

     iteration #  3     ecut=    40.00 Ry     beta=0.70
     Davidson diagonalization with overlap
     ethr =  1.12E-06,  avg # of iterations =  2.0

     total cpu time spent up to now is      464.5 secs

     total energy              =     -95.10645678 Ry
     Harris-Foulkes estimate   =     -95.10645806 Ry
     estimated scf accuracy    <       0.00000627 Ry

     iteration #  4     ecut=    40.00 Ry     beta=0.70
     Davidson diagonalization with overlap
     ethr =  6.97E-08,  avg # of iterations =  1.0

     total cpu time spent up to now is      469.3 secs

     total energy              =     -95.10645736 Ry
     Harris-Foulkes estimate   =     -95.10645732 Ry
     estimated scf accuracy    <          8.5E-09 Ry

     iteration #  5     ecut=    40.00 Ry     beta=0.70
     Davidson diagonalization with overlap
     ethr =  9.47E-11,  avg # of iterations =  3.0

     total cpu time spent up to now is      476.0 secs

     total energy              =     -95.10645739 Ry
     Harris-Foulkes estimate   =     -95.10645739 Ry
     estimated scf accuracy    <          1.6E-09 Ry

     iteration #  6     ecut=    40.00 Ry     beta=0.70
     Davidson diagonalization with overlap
     ethr =  1.80E-11,  avg # of iterations =  1.6

     total cpu time spent up to now is      481.0 secs

     End of self-consistent calculation

     Number of k-points >= 100: set verbosity='high' to print the bands.

     the Fermi energy is     1.7874 ev

!    total energy              =     -95.10645739 Ry
     Harris-Foulkes estimate   =     -95.10645739 Ry
     estimated scf accuracy    <          3.2E-11 Ry

     The total energy is the sum of the following terms:

     one-electron contribution =     -87.20119311 Ry
     hartree contribution      =      44.03606536 Ry
     xc contribution           =     -14.27413097 Ry
     ewald contribution        =     -37.66715332 Ry
     smearing contrib. (-TS)   =      -0.00004535 Ry

     convergence has been achieved in   6 iterations

     Forces acting on atoms (cartesian axes, Ry/au):

     atom    1 type  1   force =     0.00000000    0.00000000    0.00000000

     Total force =     0.000000     Total SCF correction =     0.000000


     Computing stress (Cartesian axis) and pressure

          total   stress  (Ry/bohr**3)                   (kbar)     P=    0.73
   0.00000496   0.00000000   0.00000000          0.73      0.00      0.00
   0.00000000   0.00000496   0.00000000          0.00      0.73      0.00
  -0.00000000  -0.00000000   0.00000496         -0.00     -0.00      0.73


     Writing output data file na.fcc.save

     init_run     :      4.12s CPU      4.27s WALL (       2 calls)
     electrons    :    428.66s CPU    451.91s WALL (      10 calls)
     update_pot   :      1.74s CPU      1.74s WALL (       8 calls)
     forces       :      2.66s CPU      2.70s WALL (      10 calls)
     stress       :     15.42s CPU     15.48s WALL (      10 calls)

     Called by init_run:
     wfcinit      :      3.33s CPU      3.48s WALL (       2 calls)
     potinit      :      0.10s CPU      0.10s WALL (       2 calls)

     Called by electrons:
     c_bands      :    354.61s CPU    374.17s WALL (      94 calls)
     sum_band     :     71.57s CPU     75.22s WALL (      94 calls)
     v_of_rho     :      1.18s CPU      1.19s WALL (     103 calls)
     newd         :      1.35s CPU      1.36s WALL (     103 calls)
     mix_rho      :      0.09s CPU      0.10s WALL (      94 calls)

     Called by c_bands:
     init_us_2    :     17.19s CPU     16.90s WALL (  161700 calls)
     cegterg      :    337.36s CPU    356.82s WALL (   72380 calls)

     Called by sum_band:
     sum_band:bec :      0.17s CPU      0.23s WALL (   72380 calls)
     addusdens    :      1.64s CPU      1.65s WALL (      94 calls)

     Called by *egterg:
     h_psi        :    286.30s CPU    303.09s WALL (  211176 calls)
     s_psi        :      4.17s CPU      3.18s WALL (  211176 calls)
     g_psi        :      2.14s CPU      1.91s WALL (  137256 calls)
     cdiaghg      :     25.77s CPU     26.89s WALL (  202706 calls)

     Called by h_psi:
     h_psi:pot    :    285.48s CPU    301.75s WALL (  211176 calls)
     h_psi:calbec :      6.70s CPU      5.18s WALL (  211176 calls)
     vloc_psi     :    276.52s CPU    292.65s WALL (  211176 calls)
     add_vuspsi   :      2.00s CPU      3.40s WALL (  211176 calls)

     General routines
     calbec       :      9.38s CPU      8.20s WALL (  322056 calls)
     fft          :      0.59s CPU      0.60s WALL (    1700 calls)
     ffts         :      0.03s CPU      0.03s WALL (     197 calls)
     fftw         :    311.85s CPU    314.16s WALL ( 3809532 calls)
     interpolate  :      0.10s CPU      0.11s WALL (     197 calls)
     davcio       :      0.01s CPU      0.02s WALL (    1540 calls)

     Parallel routines
     fft_scatter  :     48.81s CPU     59.96s WALL ( 3811429 calls)

     PWSCF        :  7m39.53s CPU     8m 3.39s WALL


   This run was terminated on:  13:42: 4  20Dec2017            

=------------------------------------------------------------------------------=
   JOB DONE.
=------------------------------------------------------------------------------=
