
     Program PWSCF v.6.1 (svn rev. 13369) starts on 21Dec2017 at 11:52:15 

     This program is part of the open-source Quantum ESPRESSO suite
     for quantum simulation of materials; please cite
         "P. Giannozzi et al., J. Phys.:Condens. Matter 21 395502 (2009);
          URL http://www.quantum-espresso.org", 
     in publications or presentations arising from this work. More details at
     http://www.quantum-espresso.org/quote

     Parallel version (MPI), running on     4 processors
     R & G space division:  proc/nbgrp/npool/nimage =       4
     Waiting for input...
     Reading input from standard input

     Current dimensions of program PWSCF are:
     Max number of different atomic species (ntypx) = 10
     Max number of k-points (npk) =  40000
     Max angular momentum in pseudopotentials (lmaxx) =  3

     Subspace diagonalization in iterative solution of the eigenvalue problem:
     a serial algorithm will be used


     Parallelization info
     --------------------
     sticks:   dense  smooth     PW     G-vecs:    dense   smooth      PW
     Min         236     118     38                 4651     1650     301
     Max         237     120     39                 4652     1651     302
     Sum         945     475    155                18605     6603    1205



     bravais-lattice index     =            3
     lattice parameter (alat)  =       7.2693  a.u.
     unit-cell volume          =     192.0664 (a.u.)^3
     number of atoms/cell      =            1
     number of atomic types    =            1
     number of electrons       =         9.00
     number of Kohn-Sham states=            9
     kinetic-energy cutoff     =      40.0000  Ry
     charge density cutoff     =     320.0000  Ry
     convergence threshold     =      1.0E-08
     mixing beta               =       0.7000
     number of iterations used =            8  plain     mixing
     Exchange-correlation      = SLA  PW   PBE  PBE ( 1  4  3  4 0 0)

     celldm(1)=   7.269320  celldm(2)=   0.000000  celldm(3)=   0.000000
     celldm(4)=   0.000000  celldm(5)=   0.000000  celldm(6)=   0.000000

     crystal axes: (cart. coord. in units of alat)
               a(1) = (   0.500000   0.500000   0.500000 )  
               a(2) = (  -0.500000   0.500000   0.500000 )  
               a(3) = (  -0.500000  -0.500000   0.500000 )  

     reciprocal axes: (cart. coord. in units 2 pi/alat)
               b(1) = (  1.000000  0.000000  1.000000 )  
               b(2) = ( -1.000000  1.000000  0.000000 )  
               b(3) = (  0.000000 -1.000000  1.000000 )  


     PseudoPot. # 1 for Na read from file:
     /home/s1333534/quantum_espresso/qe-6.1/pseudo/Na_pbe_v1.uspp.F.UPF
     MD5 check sum: 76a99c7e9422403d3e93cbc85ab7bccb
     Pseudo is Ultrasoft, Zval =  9.0
     Generated by new atomic code, or converted to UPF format
     Using radial grid of  819 points,  5 beta functions with: 
                l(1) =   0
                l(2) =   0
                l(3) =   1
                l(4) =   1
                l(5) =   2
     Q(r) pseudized with  8 coefficients,  rinner =    1.250   1.250   1.250
                                                       1.250   1.250

     atomic species   valence    mass     pseudopotential
        Na             9.00    22.99000     Na( 1.00)

     48 Sym. Ops., with inversion, found



   Cartesian axes

     site n.     atom                  positions (alat units)
         1           Na  tau(   1) = (   0.0000000   0.0000000   0.0000000  )

     number of k points=   100  Marzari-Vanderbilt smearing, width (Ry)=  0.0200

     Number of k-points >= 100: set verbosity='high' to print them.

     Dense  grid:    18605 G-vectors     FFT dimensions: (  36,  36,  36)

     Smooth grid:     6603 G-vectors     FFT dimensions: (  25,  25,  25)

     Estimated max dynamical RAM per process >       5.79MB

     Estimated total allocated dynamical RAM >      23.17MB

     Initial potential from superposition of free atoms

     starting charge    8.99371, renormalised to    9.00000
     Starting wfc are    5 randomized atomic wfcs +    4 random wfc

     total cpu time spent up to now is        0.5 secs

     per-process dynamical memory:    10.3 Mb

     Self-consistent Calculation

     iteration #  1     ecut=    40.00 Ry     beta=0.70
     Davidson diagonalization with overlap
     ethr =  1.00E-02,  avg # of iterations =  5.7

     Threshold (ethr) on eigenvalues was too large:
     Diagonalizing with lowered threshold

     Davidson diagonalization with overlap
     ethr =  1.21E-05,  avg # of iterations =  3.9

     total cpu time spent up to now is        1.7 secs

     total energy              =     -95.10117984 Ry
     Harris-Foulkes estimate   =     -95.10153251 Ry
     estimated scf accuracy    <       0.00108352 Ry

     iteration #  2     ecut=    40.00 Ry     beta=0.70
     Davidson diagonalization with overlap
     ethr =  1.20E-05,  avg # of iterations =  2.0

     total cpu time spent up to now is        2.2 secs

     total energy              =     -95.10131861 Ry
     Harris-Foulkes estimate   =     -95.10134906 Ry
     estimated scf accuracy    <       0.00012243 Ry

     iteration #  3     ecut=    40.00 Ry     beta=0.70
     Davidson diagonalization with overlap
     ethr =  1.36E-06,  avg # of iterations =  2.2

     total cpu time spent up to now is        2.6 secs

     total energy              =     -95.10133286 Ry
     Harris-Foulkes estimate   =     -95.10133404 Ry
     estimated scf accuracy    <       0.00000738 Ry

     iteration #  4     ecut=    40.00 Ry     beta=0.70
     Davidson diagonalization with overlap
     ethr =  8.20E-08,  avg # of iterations =  1.0

     total cpu time spent up to now is        3.0 secs

     End of self-consistent calculation

     Number of k-points >= 100: set verbosity='high' to print the bands.

     the Fermi energy is     2.8908 ev

!    total energy              =     -95.10133352 Ry
     Harris-Foulkes estimate   =     -95.10133346 Ry
     estimated scf accuracy    <          9.8E-09 Ry

     The total energy is the sum of the following terms:

     one-electron contribution =     -82.15944069 Ry
     hartree contribution      =      41.91454561 Ry
     xc contribution           =     -14.30543168 Ry
     ewald contribution        =     -40.55096123 Ry
     smearing contrib. (-TS)   =      -0.00004552 Ry

     convergence has been achieved in   4 iterations


     Computing stress (Cartesian axis) and pressure

          total   stress  (Ry/bohr**3)                   (kbar)     P=   29.24
   0.00019878   0.00000000  -0.00000000         29.24      0.00     -0.00
   0.00000000   0.00019878   0.00000000          0.00     29.24      0.00
  -0.00000000   0.00000000   0.00019878         -0.00      0.00     29.24


     Writing output data file na.bcc.save

     init_run     :      0.27s CPU      0.39s WALL (       1 calls)
     electrons    :      2.33s CPU      2.51s WALL (       1 calls)
     stress       :      0.23s CPU      0.23s WALL (       1 calls)

     Called by init_run:
     wfcinit      :      0.13s CPU      0.19s WALL (       1 calls)
     potinit      :      0.01s CPU      0.03s WALL (       1 calls)

     Called by electrons:
     c_bands      :      1.85s CPU      1.99s WALL (       5 calls)
     sum_band     :      0.39s CPU      0.42s WALL (       5 calls)
     v_of_rho     :      0.04s CPU      0.06s WALL (       5 calls)
     newd         :      0.06s CPU      0.07s WALL (       5 calls)
     mix_rho      :      0.00s CPU      0.02s WALL (       5 calls)

     Called by c_bands:
     init_us_2    :      0.12s CPU      0.11s WALL (    1200 calls)
     cegterg      :      1.75s CPU      1.88s WALL (     500 calls)

     Called by sum_band:
     sum_band:bec :      0.00s CPU      0.00s WALL (     500 calls)
     addusdens    :      0.07s CPU      0.08s WALL (       5 calls)

     Called by *egterg:
     h_psi        :      1.38s CPU      1.50s WALL (    2072 calls)
     s_psi        :      0.02s CPU      0.02s WALL (    2072 calls)
     g_psi        :      0.01s CPU      0.01s WALL (    1472 calls)
     cdiaghg      :      0.30s CPU      0.33s WALL (    1872 calls)

     Called by h_psi:
     h_psi:pot    :      1.37s CPU      1.49s WALL (    2072 calls)
     h_psi:calbec :      0.04s CPU      0.06s WALL (    2072 calls)
     vloc_psi     :      1.30s CPU      1.39s WALL (    2072 calls)
     add_vuspsi   :      0.02s CPU      0.04s WALL (    2072 calls)

     General routines
     calbec       :      0.07s CPU      0.09s WALL (    2672 calls)
     fft          :      0.02s CPU      0.05s WALL (      85 calls)
     ffts         :      0.00s CPU      0.00s WALL (      10 calls)
     fftw         :      1.36s CPU      1.42s WALL (   29718 calls)
     interpolate  :      0.00s CPU      0.00s WALL (      10 calls)
     davcio       :      0.00s CPU      0.00s WALL (     100 calls)

     Parallel routines
     fft_scatter  :      0.33s CPU      0.39s WALL (   29813 calls)

     PWSCF        :     2.99s CPU         3.36s WALL


   This run was terminated on:  11:52:18  21Dec2017            

=------------------------------------------------------------------------------=
   JOB DONE.
=------------------------------------------------------------------------------=
