
     Program PHONON v.6.1 (svn rev. 13369) starts on 21Dec2017 at 11:52:19 

     This program is part of the open-source Quantum ESPRESSO suite
     for quantum simulation of materials; please cite
         "P. Giannozzi et al., J. Phys.:Condens. Matter 21 395502 (2009);
          URL http://www.quantum-espresso.org", 
     in publications or presentations arising from this work. More details at
     http://www.quantum-espresso.org/quote

     Parallel version (MPI), running on     4 processors
     R & G space division:  proc/nbgrp/npool/nimage =       4

     Reading data from directory:
     ./na.bcc.save

   Info: using nr1, nr2, nr3 values from input

   Info: using nr1, nr2, nr3 values from input

     IMPORTANT: XC functional enforced from input :
     Exchange-correlation      = SLA  PW   PBE  PBE ( 1  4  3  4 0 0)
     Any further DFT definition will be discarded
     Please, verify this is what you really want


     Parallelization info
     --------------------
     sticks:   dense  smooth     PW     G-vecs:    dense   smooth      PW
     Min         236     118     38                 4651     1650     301
     Max         237     120     39                 4652     1651     302
     Sum         945     475    155                18605     6603    1205



     Dynamical matrices for ( 8, 8, 8)  uniform grid of q-points
     (  29q-points):
       N         xq(1)         xq(2)         xq(3) 
       1   0.000000000   0.000000000   0.000000000
       2   0.000000000  -0.125000000   0.125000000
       3   0.000000000  -0.250000000   0.250000000
       4   0.000000000  -0.375000000   0.375000000
       5   0.000000000   0.500000000  -0.500000000
       6  -0.125000000  -0.125000000   0.250000000
       7  -0.125000000  -0.250000000   0.375000000
       8  -0.125000000   0.625000000  -0.500000000
       9  -0.250000000   0.750000000  -0.500000000
      10  -0.250000000   0.625000000  -0.375000000
      11   0.000000000   0.000000000   0.250000000
      12   0.000000000  -0.125000000   0.375000000
      13   0.000000000  -0.250000000   0.500000000
      14   0.000000000   0.625000000  -0.375000000
      15  -0.125000000  -0.125000000   0.500000000
      16  -0.125000000   0.750000000  -0.375000000
      17  -0.250000000   0.250000000   0.250000000
      18  -0.250000000   0.750000000  -0.250000000
      19   0.625000000  -0.625000000   0.250000000
      20   0.500000000  -0.500000000   0.250000000
      21   0.500000000  -0.625000000   0.375000000
      22   0.000000000   0.000000000   0.500000000
      23   0.000000000  -0.125000000   0.625000000
      24   0.000000000   0.750000000  -0.250000000
      25  -0.125000000   0.875000000  -0.250000000
      26   0.500000000  -0.500000000   0.500000000
      27   0.000000000   0.000000000   0.750000000
      28   0.000000000   0.875000000  -0.125000000
      29   0.000000000   0.000000000  -1.000000000

     Calculation of q =    0.0000000   0.0000000   0.0000000

                                                                                

     bravais-lattice index     =            3
     lattice parameter (alat)  =       7.2693  a.u.
     unit-cell volume          =     192.0664 (a.u.)^3
     number of atoms/cell      =            1
     number of atomic types    =            1
     kinetic-energy cut-off    =      40.0000  Ry
     charge density cut-off    =     320.0000  Ry
     convergence threshold     =      1.0E-12
     beta                      =       0.7000
     number of iterations used =            4
     Exchange-correlation      = SLA  PW   PBE  PBE ( 1  4  3  4 0 0)


     celldm(1)=    7.26932  celldm(2)=    0.00000  celldm(3)=    0.00000
     celldm(4)=    0.00000  celldm(5)=    0.00000  celldm(6)=    0.00000

     crystal axes: (cart. coord. in units of alat)
               a(1) = (  0.5000  0.5000  0.5000 )  
               a(2) = ( -0.5000  0.5000  0.5000 )  
               a(3) = ( -0.5000 -0.5000  0.5000 )  

     reciprocal axes: (cart. coord. in units 2 pi/alat)
               b(1) = (  1.0000  0.0000  1.0000 )  
               b(2) = ( -1.0000  1.0000  0.0000 )  
               b(3) = (  0.0000 -1.0000  1.0000 )  


     Atoms inside the unit cell: 

     Cartesian axes

     site n.  atom      mass           positions (alat units)
        1     Na  22.9900   tau(    1) = (    0.00000    0.00000    0.00000  )

     Computing dynamical matrix for 
                    q = (   0.0000000   0.0000000   0.0000000 )

     49 Sym.Ops. (with q -> -q+G )


     G cutoff =  428.3293  (   4651 G-vectors)     FFT grid: ( 36, 36, 36)
     G cutoff =  214.1647  (   1651 G-vectors)  smooth grid: ( 25, 25, 25)

     number of k points=   100  Marzari-Vanderbilt smearing, width (Ry)=  0.0200

     PseudoPot. # 1 for Na read from file:
     /home/s1333534/quantum_espresso/qe-6.1/pseudo/Na_pbe_v1.uspp.F.UPF
     MD5 check sum: 76a99c7e9422403d3e93cbc85ab7bccb
     Pseudo is Ultrasoft, Zval =  9.0
     Generated by new atomic code, or converted to UPF format
     Using radial grid of  819 points,  5 beta functions with: 
                l(1) =   0
                l(2) =   0
                l(3) =   1
                l(4) =   1
                l(5) =   2
     Q(r) pseudized with  8 coefficients,  rinner =    1.250   1.250   1.250
                                                       1.250   1.250

     Mode symmetry, O_h (m-3m)  point group:


     Atomic displacements:
     There are   1 irreducible representations

     Representation     1      3 modes -T_1u G_15  G_4-  To be done



     Alpha used in Ewald sum =   2.8000
     PHONON       :     0.96s CPU         1.00s WALL



     Representation #  1 modes #   1  2  3

     Self-consistent Calculation

     Pert. #  1: Fermi energy shift (Ry) =     6.6450E-23    -4.7020E-38
     Pert. #  2: Fermi energy shift (Ry) =     3.0661E-22    -4.7020E-38
     Pert. #  3: Fermi energy shift (Ry) =     1.4112E-22     1.4106E-37

      iter #   1 total cpu time :     3.0 secs   av.it.:   5.3
      thresh= 1.000E-02 alpha_mix =  0.700 |ddv_scf|^2 =  2.339E-06

     Pert. #  1: Fermi energy shift (Ry) =     3.5155E-24    -2.6326E-39
     Pert. #  2: Fermi energy shift (Ry) =    -2.7917E-24    -1.4694E-39
     Pert. #  3: Fermi energy shift (Ry) =    -2.5397E-24    -4.8979E-40

      iter #   2 total cpu time :     5.3 secs   av.it.:   8.2
      thresh= 1.529E-04 alpha_mix =  0.700 |ddv_scf|^2 =  4.515E-08

     Pert. #  1: Fermi energy shift (Ry) =     1.2408E-24    -3.6734E-40
     Pert. #  2: Fermi energy shift (Ry) =    -1.6544E-24    -3.6734E-40
     Pert. #  3: Fermi energy shift (Ry) =     4.9114E-25     1.1020E-39

      iter #   3 total cpu time :     7.6 secs   av.it.:   8.4
      thresh= 2.125E-05 alpha_mix =  0.700 |ddv_scf|^2 =  5.943E-10

     Pert. #  1: Fermi energy shift (Ry) =     1.4476E-24    -3.0612E-40
     Pert. #  2: Fermi energy shift (Ry) =    -6.3417E-24     2.6938E-39
     Pert. #  3: Fermi energy shift (Ry) =     9.9089E-25     0.0000E+00

      iter #   4 total cpu time :     9.8 secs   av.it.:   7.9
      thresh= 2.438E-06 alpha_mix =  0.700 |ddv_scf|^2 =  2.332E-12

     Pert. #  1: Fermi energy shift (Ry) =    -2.9641E-24    -3.0612E-40
     Pert. #  2: Fermi energy shift (Ry) =    -3.0330E-24     2.6938E-39
     Pert. #  3: Fermi energy shift (Ry) =    -5.4284E-25     0.0000E+00

      iter #   5 total cpu time :    12.1 secs   av.it.:   8.1
      thresh= 1.527E-07 alpha_mix =  0.700 |ddv_scf|^2 =  6.837E-15

     End of self-consistent calculation

     Convergence has been achieved 

     Number of q in the star =    1
     List of q in the star:
          1   0.000000000   0.000000000   0.000000000

     Diagonalizing the dynamical matrix

     q = (    0.000000000   0.000000000   0.000000000 ) 

 **************************************************************************
     freq (    1) =      -0.842823 [THz] =     -28.113549 [cm-1]
     freq (    2) =      -0.842823 [THz] =     -28.113549 [cm-1]
     freq (    3) =      -0.842823 [THz] =     -28.113549 [cm-1]
 **************************************************************************

     Mode symmetry, O_h (m-3m)  point group:

     freq (  1 -  3) =        -28.1  [cm-1]   --> T_1u G_15  G_4- I  

     Calculation of q =    0.0000000  -0.1250000   0.1250000

   Info: using nr1, nr2, nr3 values from input

   Info: using nr1, nr2, nr3 values from input

     Parallelization info
     --------------------
     sticks:   dense  smooth     PW     G-vecs:    dense   smooth      PW
     Min         236     118     39                 4651     1650     312
     Max         237     120     40                 4652     1651     314
     Sum         945     475    159                18605     6603    1253



     bravais-lattice index     =            3
     lattice parameter (alat)  =       7.2693  a.u.
     unit-cell volume          =     192.0664 (a.u.)^3
     number of atoms/cell      =            1
     number of atomic types    =            1
     number of electrons       =         9.00
     number of Kohn-Sham states=            9
     kinetic-energy cutoff     =      40.0000  Ry
     charge density cutoff     =     320.0000  Ry
     Exchange-correlation      = SLA  PW   PBE  PBE ( 1  4  3  4 0 0)

     celldm(1)=   7.269320  celldm(2)=   0.000000  celldm(3)=   0.000000
     celldm(4)=   0.000000  celldm(5)=   0.000000  celldm(6)=   0.000000

     crystal axes: (cart. coord. in units of alat)
               a(1) = (   0.500000   0.500000   0.500000 )  
               a(2) = (  -0.500000   0.500000   0.500000 )  
               a(3) = (  -0.500000  -0.500000   0.500000 )  

     reciprocal axes: (cart. coord. in units 2 pi/alat)
               b(1) = (  1.000000  0.000000  1.000000 )  
               b(2) = ( -1.000000  1.000000  0.000000 )  
               b(3) = (  0.000000 -1.000000  1.000000 )  


     PseudoPot. # 1 for Na read from file:
     /home/s1333534/quantum_espresso/qe-6.1/pseudo/Na_pbe_v1.uspp.F.UPF
     MD5 check sum: 76a99c7e9422403d3e93cbc85ab7bccb
     Pseudo is Ultrasoft, Zval =  9.0
     Generated by new atomic code, or converted to UPF format
     Using radial grid of  819 points,  5 beta functions with: 
                l(1) =   0
                l(2) =   0
                l(3) =   1
                l(4) =   1
                l(5) =   2
     Q(r) pseudized with  8 coefficients,  rinner =    1.250   1.250   1.250
                                                       1.250   1.250

     atomic species   valence    mass     pseudopotential
        Na             9.00    22.99000     Na( 1.00)

     48 Sym. Ops., with inversion, found



   Cartesian axes

     site n.     atom                  positions (alat units)
         1           Na  tau(   1) = (   0.0000000   0.0000000   0.0000000  )

     number of k points=  1568  Marzari-Vanderbilt smearing, width (Ry)=  0.0200

     Number of k-points >= 100: set verbosity='high' to print them.

     Dense  grid:    18605 G-vectors     FFT dimensions: (  36,  36,  36)

     Smooth grid:     6603 G-vectors     FFT dimensions: (  25,  25,  25)

     Estimated max dynamical RAM per process >       1.68MB

     Estimated total allocated dynamical RAM >       6.72MB

     The potential is recalculated from file :
     ./_ph0/na.bcc.save/charge-density.dat

     Starting wfc are    5 atomic +    4 random wfc

     Band Structure Calculation
     Davidson diagonalization with overlap

     ethr =  1.11E-10,  avg # of iterations = 19.2

     total cpu time spent up to now is       31.0 secs

     End of band structure calculation

     Number of k-points >= 100: set verbosity='high' to print the bands.

     the Fermi energy is     2.8905 ev

     Writing output data file na.bcc.save

                                                                                

     bravais-lattice index     =            3
     lattice parameter (alat)  =       7.2693  a.u.
     unit-cell volume          =     192.0664 (a.u.)^3
     number of atoms/cell      =            1
     number of atomic types    =            1
     kinetic-energy cut-off    =      40.0000  Ry
     charge density cut-off    =     320.0000  Ry
     convergence threshold     =      1.0E-12
     beta                      =       0.7000
     number of iterations used =            4
     Exchange-correlation      = SLA  PW   PBE  PBE ( 1  4  3  4 0 0)


     celldm(1)=    7.26932  celldm(2)=    0.00000  celldm(3)=    0.00000
     celldm(4)=    0.00000  celldm(5)=    0.00000  celldm(6)=    0.00000

     crystal axes: (cart. coord. in units of alat)
               a(1) = (  0.5000  0.5000  0.5000 )  
               a(2) = ( -0.5000  0.5000  0.5000 )  
               a(3) = ( -0.5000 -0.5000  0.5000 )  

     reciprocal axes: (cart. coord. in units 2 pi/alat)
               b(1) = (  1.0000  0.0000  1.0000 )  
               b(2) = ( -1.0000  1.0000  0.0000 )  
               b(3) = (  0.0000 -1.0000  1.0000 )  


     Atoms inside the unit cell: 

     Cartesian axes

     site n.  atom      mass           positions (alat units)
        1     Na  22.9900   tau(    1) = (    0.00000    0.00000    0.00000  )

     Computing dynamical matrix for 
                    q = (   0.0000000  -0.1250000   0.1250000 )

      4 Sym.Ops. (no q -> -q+G )


     G cutoff =  428.3293  (   4651 G-vectors)     FFT grid: ( 36, 36, 36)
     G cutoff =  214.1647  (   1651 G-vectors)  smooth grid: ( 25, 25, 25)

     number of k points=  1568  Marzari-Vanderbilt smearing, width (Ry)=  0.0200

     PseudoPot. # 1 for Na read from file:
     /home/s1333534/quantum_espresso/qe-6.1/pseudo/Na_pbe_v1.uspp.F.UPF
     MD5 check sum: 76a99c7e9422403d3e93cbc85ab7bccb
     Pseudo is Ultrasoft, Zval =  9.0
     Generated by new atomic code, or converted to UPF format
     Using radial grid of  819 points,  5 beta functions with: 
                l(1) =   0
                l(2) =   0
                l(3) =   1
                l(4) =   1
                l(5) =   2
     Q(r) pseudized with  8 coefficients,  rinner =    1.250   1.250   1.250
                                                       1.250   1.250

     Mode symmetry, C_2v (mm2)  point group:


     Atomic displacements:
     There are   3 irreducible representations

     Representation     1      1 modes -A_1  D_1  S_1  To be done

     Representation     2      1 modes -B_1  D_3  S_3  To be done

     Representation     3      1 modes -B_2  D_4  S_4  To be done



     Alpha used in Ewald sum =   2.8000
     PHONON       :    43.81s CPU        46.79s WALL



     Representation #  1 mode #   1

     Self-consistent Calculation

      iter #   1 total cpu time :    51.6 secs   av.it.:   5.6
      thresh= 1.000E-02 alpha_mix =  0.700 |ddv_scf|^2 =  2.925E-01

      iter #   2 total cpu time :    56.5 secs   av.it.:   7.0
      thresh= 1.000E-02 alpha_mix =  0.700 |ddv_scf|^2 =  1.195E+02

      iter #   3 total cpu time :    61.3 secs   av.it.:   7.0
      thresh= 1.000E-02 alpha_mix =  0.700 |ddv_scf|^2 =  2.608E-04

      iter #   4 total cpu time :    65.3 secs   av.it.:   5.3
      thresh= 1.615E-03 alpha_mix =  0.700 |ddv_scf|^2 =  3.941E-07

      iter #   5 total cpu time :    70.1 secs   av.it.:   7.0
      thresh= 6.278E-05 alpha_mix =  0.700 |ddv_scf|^2 =  2.629E-07

      iter #   6 total cpu time :    73.4 secs   av.it.:   3.8
      thresh= 5.128E-05 alpha_mix =  0.700 |ddv_scf|^2 =  5.635E-08

      iter #   7 total cpu time :    77.9 secs   av.it.:   6.3
      thresh= 2.374E-05 alpha_mix =  0.700 |ddv_scf|^2 =  3.638E-11

      iter #   8 total cpu time :    83.2 secs   av.it.:   7.8
      thresh= 6.032E-07 alpha_mix =  0.700 |ddv_scf|^2 =  9.966E-12

      iter #   9 total cpu time :    88.2 secs   av.it.:   7.4
      thresh= 3.157E-07 alpha_mix =  0.700 |ddv_scf|^2 =  5.606E-14

     End of self-consistent calculation

     Convergence has been achieved 


     Representation #  2 mode #   2

     Self-consistent Calculation

      iter #   1 total cpu time :    93.0 secs   av.it.:   5.4
      thresh= 1.000E-02 alpha_mix =  0.700 |ddv_scf|^2 =  2.119E-05

      iter #   2 total cpu time :    98.0 secs   av.it.:   7.3
      thresh= 4.603E-04 alpha_mix =  0.700 |ddv_scf|^2 =  4.036E-07

      iter #   3 total cpu time :   103.2 secs   av.it.:   7.6
      thresh= 6.353E-05 alpha_mix =  0.700 |ddv_scf|^2 =  5.678E-09

      iter #   4 total cpu time :   108.1 secs   av.it.:   7.1
      thresh= 7.535E-06 alpha_mix =  0.700 |ddv_scf|^2 =  2.188E-11

      iter #   5 total cpu time :   113.2 secs   av.it.:   7.3
      thresh= 4.677E-07 alpha_mix =  0.700 |ddv_scf|^2 =  5.960E-14

     End of self-consistent calculation

     Convergence has been achieved 


     Representation #  3 mode #   3

     Self-consistent Calculation

      iter #   1 total cpu time :   117.9 secs   av.it.:   5.4
      thresh= 1.000E-02 alpha_mix =  0.700 |ddv_scf|^2 =  2.163E-05

      iter #   2 total cpu time :   123.0 secs   av.it.:   7.3
      thresh= 4.651E-04 alpha_mix =  0.700 |ddv_scf|^2 =  4.016E-07

      iter #   3 total cpu time :   128.2 secs   av.it.:   7.6
      thresh= 6.337E-05 alpha_mix =  0.700 |ddv_scf|^2 =  6.737E-09

      iter #   4 total cpu time :   133.2 secs   av.it.:   7.2
      thresh= 8.208E-06 alpha_mix =  0.700 |ddv_scf|^2 =  2.550E-11

      iter #   5 total cpu time :   138.2 secs   av.it.:   7.3
      thresh= 5.050E-07 alpha_mix =  0.700 |ddv_scf|^2 =  6.067E-14

     End of self-consistent calculation

     Convergence has been achieved 

     Number of q in the star =   12
     List of q in the star:
          1   0.000000000  -0.125000000   0.125000000
          2   0.125000000   0.000000000   0.125000000
          3  -0.125000000   0.000000000   0.125000000
          4   0.000000000   0.125000000   0.125000000
          5   0.125000000  -0.125000000   0.000000000
          6  -0.125000000   0.000000000  -0.125000000
          7   0.125000000   0.000000000  -0.125000000
          8   0.000000000  -0.125000000  -0.125000000
          9  -0.125000000  -0.125000000   0.000000000
         10  -0.125000000   0.125000000   0.000000000
         11   0.125000000   0.125000000   0.000000000
         12   0.000000000   0.125000000  -0.125000000

     Diagonalizing the dynamical matrix

     q = (    0.000000000  -0.125000000   0.125000000 ) 

 **************************************************************************
     freq (    1) =       1.158229 [THz] =      38.634359 [cm-1]
     freq (    2) =       1.526224 [THz] =      50.909350 [cm-1]
     freq (    3) =       2.570504 [THz] =      85.742797 [cm-1]
 **************************************************************************

     Mode symmetry, C_2v (mm2)  point group:

     freq (  1 -  1) =         38.6  [cm-1]   --> B_1  D_3  S_3      
     freq (  2 -  2) =         50.9  [cm-1]   --> B_2  D_4  S_4      
     freq (  3 -  3) =         85.7  [cm-1]   --> A_1  D_1  S_1      

     Calculation of q =    0.0000000  -0.2500000   0.2500000

   Info: using nr1, nr2, nr3 values from input

   Info: using nr1, nr2, nr3 values from input

     Parallelization info
     --------------------
     sticks:   dense  smooth     PW     G-vecs:    dense   smooth      PW
     Min         236     118     42                 4651     1650     352
     Max         237     120     43                 4652     1651     353
     Sum         945     475    169                18605     6603    1409



     bravais-lattice index     =            3
     lattice parameter (alat)  =       7.2693  a.u.
     unit-cell volume          =     192.0664 (a.u.)^3
     number of atoms/cell      =            1
     number of atomic types    =            1
     number of electrons       =         9.00
     number of Kohn-Sham states=            9
     kinetic-energy cutoff     =      40.0000  Ry
     charge density cutoff     =     320.0000  Ry
     Exchange-correlation      = SLA  PW   PBE  PBE ( 1  4  3  4 0 0)

     celldm(1)=   7.269320  celldm(2)=   0.000000  celldm(3)=   0.000000
     celldm(4)=   0.000000  celldm(5)=   0.000000  celldm(6)=   0.000000

     crystal axes: (cart. coord. in units of alat)
               a(1) = (   0.500000   0.500000   0.500000 )  
               a(2) = (  -0.500000   0.500000   0.500000 )  
               a(3) = (  -0.500000  -0.500000   0.500000 )  

     reciprocal axes: (cart. coord. in units 2 pi/alat)
               b(1) = (  1.000000  0.000000  1.000000 )  
               b(2) = ( -1.000000  1.000000  0.000000 )  
               b(3) = (  0.000000 -1.000000  1.000000 )  


     PseudoPot. # 1 for Na read from file:
     /home/s1333534/quantum_espresso/qe-6.1/pseudo/Na_pbe_v1.uspp.F.UPF
     MD5 check sum: 76a99c7e9422403d3e93cbc85ab7bccb
     Pseudo is Ultrasoft, Zval =  9.0
     Generated by new atomic code, or converted to UPF format
     Using radial grid of  819 points,  5 beta functions with: 
                l(1) =   0
                l(2) =   0
                l(3) =   1
                l(4) =   1
                l(5) =   2
     Q(r) pseudized with  8 coefficients,  rinner =    1.250   1.250   1.250
                                                       1.250   1.250

     atomic species   valence    mass     pseudopotential
        Na             9.00    22.99000     Na( 1.00)

     48 Sym. Ops., with inversion, found



   Cartesian axes

     site n.     atom                  positions (alat units)
         1           Na  tau(   1) = (   0.0000000   0.0000000   0.0000000  )

     number of k points=  1568  Marzari-Vanderbilt smearing, width (Ry)=  0.0200

     Number of k-points >= 100: set verbosity='high' to print them.

     Dense  grid:    18605 G-vectors     FFT dimensions: (  36,  36,  36)

     Smooth grid:     6603 G-vectors     FFT dimensions: (  25,  25,  25)

     Estimated max dynamical RAM per process >       1.68MB

     Estimated total allocated dynamical RAM >       6.72MB

     The potential is recalculated from file :
     ./_ph0/na.bcc.save/charge-density.dat

     Starting wfc are    5 atomic +    4 random wfc

     Band Structure Calculation
     Davidson diagonalization with overlap

     ethr =  1.11E-10,  avg # of iterations = 19.1

     total cpu time spent up to now is       63.2 secs

     End of band structure calculation

     Number of k-points >= 100: set verbosity='high' to print the bands.

     the Fermi energy is     2.8905 ev

     Writing output data file na.bcc.save

                                                                                

     bravais-lattice index     =            3
     lattice parameter (alat)  =       7.2693  a.u.
     unit-cell volume          =     192.0664 (a.u.)^3
     number of atoms/cell      =            1
     number of atomic types    =            1
     kinetic-energy cut-off    =      40.0000  Ry
     charge density cut-off    =     320.0000  Ry
     convergence threshold     =      1.0E-12
     beta                      =       0.7000
     number of iterations used =            4
     Exchange-correlation      = SLA  PW   PBE  PBE ( 1  4  3  4 0 0)


     celldm(1)=    7.26932  celldm(2)=    0.00000  celldm(3)=    0.00000
     celldm(4)=    0.00000  celldm(5)=    0.00000  celldm(6)=    0.00000

     crystal axes: (cart. coord. in units of alat)
               a(1) = (  0.5000  0.5000  0.5000 )  
               a(2) = ( -0.5000  0.5000  0.5000 )  
               a(3) = ( -0.5000 -0.5000  0.5000 )  

     reciprocal axes: (cart. coord. in units 2 pi/alat)
               b(1) = (  1.0000  0.0000  1.0000 )  
               b(2) = ( -1.0000  1.0000  0.0000 )  
               b(3) = (  0.0000 -1.0000  1.0000 )  


     Atoms inside the unit cell: 

     Cartesian axes

     site n.  atom      mass           positions (alat units)
        1     Na  22.9900   tau(    1) = (    0.00000    0.00000    0.00000  )

     Computing dynamical matrix for 
                    q = (   0.0000000  -0.2500000   0.2500000 )

      4 Sym.Ops. (no q -> -q+G )


     G cutoff =  428.3293  (   4652 G-vectors)     FFT grid: ( 36, 36, 36)
     G cutoff =  214.1647  (   1651 G-vectors)  smooth grid: ( 25, 25, 25)

     number of k points=  1568  Marzari-Vanderbilt smearing, width (Ry)=  0.0200

     PseudoPot. # 1 for Na read from file:
     /home/s1333534/quantum_espresso/qe-6.1/pseudo/Na_pbe_v1.uspp.F.UPF
     MD5 check sum: 76a99c7e9422403d3e93cbc85ab7bccb
     Pseudo is Ultrasoft, Zval =  9.0
     Generated by new atomic code, or converted to UPF format
     Using radial grid of  819 points,  5 beta functions with: 
                l(1) =   0
                l(2) =   0
                l(3) =   1
                l(4) =   1
                l(5) =   2
     Q(r) pseudized with  8 coefficients,  rinner =    1.250   1.250   1.250
                                                       1.250   1.250

     Mode symmetry, C_2v (mm2)  point group:


     Atomic displacements:
     There are   3 irreducible representations

     Representation     1      1 modes -A_1  D_1  S_1  To be done

     Representation     2      1 modes -B_1  D_3  S_3  To be done

     Representation     3      1 modes -B_2  D_4  S_4  To be done



     Alpha used in Ewald sum =   2.8000
     PHONON       :  2m39.67s CPU     2m53.13s WALL



     Representation #  1 mode #   1

     Self-consistent Calculation

      iter #   1 total cpu time :   178.0 secs   av.it.:   5.7
      thresh= 1.000E-02 alpha_mix =  0.700 |ddv_scf|^2 =  4.777E-03

      iter #   2 total cpu time :   182.4 secs   av.it.:   6.1
      thresh= 6.912E-03 alpha_mix =  0.700 |ddv_scf|^2 =  9.457E-02

      iter #   3 total cpu time :   186.7 secs   av.it.:   5.8
      thresh= 1.000E-02 alpha_mix =  0.700 |ddv_scf|^2 =  4.062E-06

      iter #   4 total cpu time :   191.7 secs   av.it.:   7.2
      thresh= 2.015E-04 alpha_mix =  0.700 |ddv_scf|^2 =  1.841E-08

      iter #   5 total cpu time :   197.1 secs   av.it.:   7.9
      thresh= 1.357E-05 alpha_mix =  0.700 |ddv_scf|^2 =  2.524E-09

      iter #   6 total cpu time :   202.3 secs   av.it.:   7.6
      thresh= 5.024E-06 alpha_mix =  0.700 |ddv_scf|^2 =  3.663E-11

      iter #   7 total cpu time :   208.1 secs   av.it.:   8.0
      thresh= 6.053E-07 alpha_mix =  0.700 |ddv_scf|^2 =  5.370E-12

      iter #   8 total cpu time :   213.1 secs   av.it.:   7.0
      thresh= 2.317E-07 alpha_mix =  0.700 |ddv_scf|^2 =  4.152E-11

      iter #   9 total cpu time :   217.3 secs   av.it.:   5.6
      thresh= 6.444E-07 alpha_mix =  0.700 |ddv_scf|^2 =  1.545E-12

      iter #  10 total cpu time :   222.1 secs   av.it.:   6.9
      thresh= 1.243E-07 alpha_mix =  0.700 |ddv_scf|^2 =  9.396E-14

     End of self-consistent calculation

     Convergence has been achieved 


     Representation #  2 mode #   2

     Self-consistent Calculation

      iter #   1 total cpu time :   227.0 secs   av.it.:   5.4
      thresh= 1.000E-02 alpha_mix =  0.700 |ddv_scf|^2 =  2.158E-05

      iter #   2 total cpu time :   232.1 secs   av.it.:   7.4
      thresh= 4.645E-04 alpha_mix =  0.700 |ddv_scf|^2 =  3.946E-07

      iter #   3 total cpu time :   237.4 secs   av.it.:   7.6
      thresh= 6.282E-05 alpha_mix =  0.700 |ddv_scf|^2 =  6.764E-09

      iter #   4 total cpu time :   242.3 secs   av.it.:   7.2
      thresh= 8.225E-06 alpha_mix =  0.700 |ddv_scf|^2 =  2.462E-11

      iter #   5 total cpu time :   247.5 secs   av.it.:   7.4
      thresh= 4.962E-07 alpha_mix =  0.700 |ddv_scf|^2 =  5.348E-14

     End of self-consistent calculation

     Convergence has been achieved 


     Representation #  3 mode #   3

     Self-consistent Calculation

      iter #   1 total cpu time :   252.3 secs   av.it.:   5.4
      thresh= 1.000E-02 alpha_mix =  0.700 |ddv_scf|^2 =  2.312E-05

      iter #   2 total cpu time :   257.4 secs   av.it.:   7.3
      thresh= 4.809E-04 alpha_mix =  0.700 |ddv_scf|^2 =  3.884E-07

      iter #   3 total cpu time :   262.6 secs   av.it.:   7.6
      thresh= 6.232E-05 alpha_mix =  0.700 |ddv_scf|^2 =  1.070E-08

      iter #   4 total cpu time :   267.7 secs   av.it.:   7.3
      thresh= 1.035E-05 alpha_mix =  0.700 |ddv_scf|^2 =  3.868E-11

      iter #   5 total cpu time :   272.8 secs   av.it.:   7.4
      thresh= 6.220E-07 alpha_mix =  0.700 |ddv_scf|^2 =  6.063E-14

     End of self-consistent calculation

     Convergence has been achieved 

     Number of q in the star =   12
     List of q in the star:
          1   0.000000000  -0.250000000   0.250000000
          2   0.250000000   0.000000000   0.250000000
          3  -0.250000000   0.000000000   0.250000000
          4   0.000000000   0.250000000   0.250000000
          5   0.250000000  -0.250000000   0.000000000
          6  -0.250000000   0.000000000  -0.250000000
          7   0.250000000   0.000000000  -0.250000000
          8   0.000000000  -0.250000000  -0.250000000
          9  -0.250000000  -0.250000000   0.000000000
         10  -0.250000000   0.250000000   0.000000000
         11   0.250000000   0.250000000   0.000000000
         12   0.000000000   0.250000000  -0.250000000

     Diagonalizing the dynamical matrix

     q = (    0.000000000  -0.250000000   0.250000000 ) 

 **************************************************************************
     freq (    1) =       1.471321 [THz] =      49.077995 [cm-1]
     freq (    2) =       2.405237 [THz] =      80.230061 [cm-1]
     freq (    3) =       4.143246 [THz] =     138.203818 [cm-1]
 **************************************************************************

     Mode symmetry, C_2v (mm2)  point group:

     freq (  1 -  1) =         49.1  [cm-1]   --> B_1  D_3  S_3      
     freq (  2 -  2) =         80.2  [cm-1]   --> B_2  D_4  S_4      
     freq (  3 -  3) =        138.2  [cm-1]   --> A_1  D_1  S_1      

     Calculation of q =    0.0000000  -0.3750000   0.3750000

   Info: using nr1, nr2, nr3 values from input

   Info: using nr1, nr2, nr3 values from input

     Parallelization info
     --------------------
     sticks:   dense  smooth     PW     G-vecs:    dense   smooth      PW
     Min         236     118     43                 4651     1650     358
     Max         237     120     44                 4652     1651     359
     Sum         945     475    173                18605     6603    1433



     bravais-lattice index     =            3
     lattice parameter (alat)  =       7.2693  a.u.
     unit-cell volume          =     192.0664 (a.u.)^3
     number of atoms/cell      =            1
     number of atomic types    =            1
     number of electrons       =         9.00
     number of Kohn-Sham states=            9
     kinetic-energy cutoff     =      40.0000  Ry
     charge density cutoff     =     320.0000  Ry
     Exchange-correlation      = SLA  PW   PBE  PBE ( 1  4  3  4 0 0)

     celldm(1)=   7.269320  celldm(2)=   0.000000  celldm(3)=   0.000000
     celldm(4)=   0.000000  celldm(5)=   0.000000  celldm(6)=   0.000000

     crystal axes: (cart. coord. in units of alat)
               a(1) = (   0.500000   0.500000   0.500000 )  
               a(2) = (  -0.500000   0.500000   0.500000 )  
               a(3) = (  -0.500000  -0.500000   0.500000 )  

     reciprocal axes: (cart. coord. in units 2 pi/alat)
               b(1) = (  1.000000  0.000000  1.000000 )  
               b(2) = ( -1.000000  1.000000  0.000000 )  
               b(3) = (  0.000000 -1.000000  1.000000 )  


     PseudoPot. # 1 for Na read from file:
     /home/s1333534/quantum_espresso/qe-6.1/pseudo/Na_pbe_v1.uspp.F.UPF
     MD5 check sum: 76a99c7e9422403d3e93cbc85ab7bccb
     Pseudo is Ultrasoft, Zval =  9.0
     Generated by new atomic code, or converted to UPF format
     Using radial grid of  819 points,  5 beta functions with: 
                l(1) =   0
                l(2) =   0
                l(3) =   1
                l(4) =   1
                l(5) =   2
     Q(r) pseudized with  8 coefficients,  rinner =    1.250   1.250   1.250
                                                       1.250   1.250

     atomic species   valence    mass     pseudopotential
        Na             9.00    22.99000     Na( 1.00)

     48 Sym. Ops., with inversion, found



   Cartesian axes

     site n.     atom                  positions (alat units)
         1           Na  tau(   1) = (   0.0000000   0.0000000   0.0000000  )

     number of k points=  1568  Marzari-Vanderbilt smearing, width (Ry)=  0.0200

     Number of k-points >= 100: set verbosity='high' to print them.

     Dense  grid:    18605 G-vectors     FFT dimensions: (  36,  36,  36)

     Smooth grid:     6603 G-vectors     FFT dimensions: (  25,  25,  25)

     Estimated max dynamical RAM per process >       1.68MB

     Estimated total allocated dynamical RAM >       6.72MB

     The potential is recalculated from file :
     ./_ph0/na.bcc.save/charge-density.dat

     Starting wfc are    5 atomic +    4 random wfc

     Band Structure Calculation
     Davidson diagonalization with overlap

     ethr =  1.11E-10,  avg # of iterations = 19.0

     total cpu time spent up to now is       95.4 secs

     End of band structure calculation

     Number of k-points >= 100: set verbosity='high' to print the bands.

     the Fermi energy is     2.8905 ev

     Writing output data file na.bcc.save

                                                                                

     bravais-lattice index     =            3
     lattice parameter (alat)  =       7.2693  a.u.
     unit-cell volume          =     192.0664 (a.u.)^3
     number of atoms/cell      =            1
     number of atomic types    =            1
     kinetic-energy cut-off    =      40.0000  Ry
     charge density cut-off    =     320.0000  Ry
     convergence threshold     =      1.0E-12
     beta                      =       0.7000
     number of iterations used =            4
     Exchange-correlation      = SLA  PW   PBE  PBE ( 1  4  3  4 0 0)


     celldm(1)=    7.26932  celldm(2)=    0.00000  celldm(3)=    0.00000
     celldm(4)=    0.00000  celldm(5)=    0.00000  celldm(6)=    0.00000

     crystal axes: (cart. coord. in units of alat)
               a(1) = (  0.5000  0.5000  0.5000 )  
               a(2) = ( -0.5000  0.5000  0.5000 )  
               a(3) = ( -0.5000 -0.5000  0.5000 )  

     reciprocal axes: (cart. coord. in units 2 pi/alat)
               b(1) = (  1.0000  0.0000  1.0000 )  
               b(2) = ( -1.0000  1.0000  0.0000 )  
               b(3) = (  0.0000 -1.0000  1.0000 )  


     Atoms inside the unit cell: 

     Cartesian axes

     site n.  atom      mass           positions (alat units)
        1     Na  22.9900   tau(    1) = (    0.00000    0.00000    0.00000  )

     Computing dynamical matrix for 
                    q = (   0.0000000  -0.3750000   0.3750000 )

      4 Sym.Ops. (no q -> -q+G )


     G cutoff =  428.3293  (   4651 G-vectors)     FFT grid: ( 36, 36, 36)
     G cutoff =  214.1647  (   1651 G-vectors)  smooth grid: ( 25, 25, 25)

     number of k points=  1568  Marzari-Vanderbilt smearing, width (Ry)=  0.0200

     PseudoPot. # 1 for Na read from file:
     /home/s1333534/quantum_espresso/qe-6.1/pseudo/Na_pbe_v1.uspp.F.UPF
     MD5 check sum: 76a99c7e9422403d3e93cbc85ab7bccb
     Pseudo is Ultrasoft, Zval =  9.0
     Generated by new atomic code, or converted to UPF format
     Using radial grid of  819 points,  5 beta functions with: 
                l(1) =   0
                l(2) =   0
                l(3) =   1
                l(4) =   1
                l(5) =   2
     Q(r) pseudized with  8 coefficients,  rinner =    1.250   1.250   1.250
                                                       1.250   1.250

     Mode symmetry, C_2v (mm2)  point group:


     Atomic displacements:
     There are   3 irreducible representations

     Representation     1      1 modes -A_1  D_1  S_1  To be done

     Representation     2      1 modes -B_1  D_3  S_3  To be done

     Representation     3      1 modes -B_2  D_4  S_4  To be done



     Alpha used in Ewald sum =   2.8000
     PHONON       :  4m42.46s CPU     5m 7.80s WALL



     Representation #  1 mode #   1

     Self-consistent Calculation

      iter #   1 total cpu time :   312.9 secs   av.it.:   5.7
      thresh= 1.000E-02 alpha_mix =  0.700 |ddv_scf|^2 =  5.251E-04

      iter #   2 total cpu time :   317.6 secs   av.it.:   6.6
      thresh= 2.292E-03 alpha_mix =  0.700 |ddv_scf|^2 =  1.419E-03

      iter #   3 total cpu time :   322.1 secs   av.it.:   6.0
      thresh= 3.767E-03 alpha_mix =  0.700 |ddv_scf|^2 =  5.857E-07

      iter #   4 total cpu time :   327.4 secs   av.it.:   7.7
      thresh= 7.653E-05 alpha_mix =  0.700 |ddv_scf|^2 =  1.797E-08

      iter #   5 total cpu time :   332.9 secs   av.it.:   8.0
      thresh= 1.340E-05 alpha_mix =  0.700 |ddv_scf|^2 =  7.424E-10

      iter #   6 total cpu time :   338.3 secs   av.it.:   7.9
      thresh= 2.725E-06 alpha_mix =  0.700 |ddv_scf|^2 =  2.663E-11

      iter #   7 total cpu time :   343.5 secs   av.it.:   7.5
      thresh= 5.161E-07 alpha_mix =  0.700 |ddv_scf|^2 =  1.521E-12

      iter #   8 total cpu time :   348.9 secs   av.it.:   7.8
      thresh= 1.233E-07 alpha_mix =  0.700 |ddv_scf|^2 =  1.479E-14

     End of self-consistent calculation

     Convergence has been achieved 


     Representation #  2 mode #   2

     Self-consistent Calculation

      iter #   1 total cpu time :   353.8 secs   av.it.:   5.5
      thresh= 1.000E-02 alpha_mix =  0.700 |ddv_scf|^2 =  2.206E-05

      iter #   2 total cpu time :   359.0 secs   av.it.:   7.4
      thresh= 4.697E-04 alpha_mix =  0.700 |ddv_scf|^2 =  3.832E-07

      iter #   3 total cpu time :   364.2 secs   av.it.:   7.6
      thresh= 6.191E-05 alpha_mix =  0.700 |ddv_scf|^2 =  8.396E-09

      iter #   4 total cpu time :   369.2 secs   av.it.:   7.2
      thresh= 9.163E-06 alpha_mix =  0.700 |ddv_scf|^2 =  2.820E-11

      iter #   5 total cpu time :   374.4 secs   av.it.:   7.5
      thresh= 5.311E-07 alpha_mix =  0.700 |ddv_scf|^2 =  4.591E-14

     End of self-consistent calculation

     Convergence has been achieved 


     Representation #  3 mode #   3

     Self-consistent Calculation

      iter #   1 total cpu time :   379.2 secs   av.it.:   5.5
      thresh= 1.000E-02 alpha_mix =  0.700 |ddv_scf|^2 =  2.478E-05

      iter #   2 total cpu time :   384.4 secs   av.it.:   7.4
      thresh= 4.978E-04 alpha_mix =  0.700 |ddv_scf|^2 =  3.747E-07

      iter #   3 total cpu time :   389.6 secs   av.it.:   7.6
      thresh= 6.121E-05 alpha_mix =  0.700 |ddv_scf|^2 =  1.585E-08

      iter #   4 total cpu time :   394.7 secs   av.it.:   7.2
      thresh= 1.259E-05 alpha_mix =  0.700 |ddv_scf|^2 =  5.626E-11

      iter #   5 total cpu time :   399.8 secs   av.it.:   7.4
      thresh= 7.501E-07 alpha_mix =  0.700 |ddv_scf|^2 =  6.371E-14

     End of self-consistent calculation

     Convergence has been achieved 

     Number of q in the star =   12
     List of q in the star:
          1   0.000000000  -0.375000000   0.375000000
          2   0.375000000   0.000000000   0.375000000
          3  -0.375000000   0.000000000   0.375000000
          4   0.000000000   0.375000000   0.375000000
          5   0.375000000  -0.375000000   0.000000000
          6  -0.375000000   0.000000000  -0.375000000
          7   0.375000000   0.000000000  -0.375000000
          8   0.000000000  -0.375000000  -0.375000000
          9  -0.375000000  -0.375000000   0.000000000
         10  -0.375000000   0.375000000   0.000000000
         11   0.375000000   0.375000000   0.000000000
         12   0.000000000   0.375000000  -0.375000000

     Diagonalizing the dynamical matrix

     q = (    0.000000000  -0.375000000   0.375000000 ) 

 **************************************************************************
     freq (    1) =       1.516674 [THz] =      50.590791 [cm-1]
     freq (    2) =       2.990399 [THz] =      99.748970 [cm-1]
     freq (    3) =       5.267374 [THz] =     175.700672 [cm-1]
 **************************************************************************

     Mode symmetry, C_2v (mm2)  point group:

     freq (  1 -  1) =         50.6  [cm-1]   --> B_1  D_3  S_3      
     freq (  2 -  2) =         99.7  [cm-1]   --> B_2  D_4  S_4      
     freq (  3 -  3) =        175.7  [cm-1]   --> A_1  D_1  S_1      

     Calculation of q =    0.0000000   0.5000000  -0.5000000

   Info: using nr1, nr2, nr3 values from input

   Info: using nr1, nr2, nr3 values from input

     Parallelization info
     --------------------
     sticks:   dense  smooth     PW     G-vecs:    dense   smooth      PW
     Min         236     118     43                 4651     1650     369
     Max         237     120     44                 4652     1651     372
     Sum         945     475    173                18605     6603    1481



     bravais-lattice index     =            3
     lattice parameter (alat)  =       7.2693  a.u.
     unit-cell volume          =     192.0664 (a.u.)^3
     number of atoms/cell      =            1
     number of atomic types    =            1
     number of electrons       =         9.00
     number of Kohn-Sham states=            9
     kinetic-energy cutoff     =      40.0000  Ry
     charge density cutoff     =     320.0000  Ry
     Exchange-correlation      = SLA  PW   PBE  PBE ( 1  4  3  4 0 0)

     celldm(1)=   7.269320  celldm(2)=   0.000000  celldm(3)=   0.000000
     celldm(4)=   0.000000  celldm(5)=   0.000000  celldm(6)=   0.000000

     crystal axes: (cart. coord. in units of alat)
               a(1) = (   0.500000   0.500000   0.500000 )  
               a(2) = (  -0.500000   0.500000   0.500000 )  
               a(3) = (  -0.500000  -0.500000   0.500000 )  

     reciprocal axes: (cart. coord. in units 2 pi/alat)
               b(1) = (  1.000000  0.000000  1.000000 )  
               b(2) = ( -1.000000  1.000000  0.000000 )  
               b(3) = (  0.000000 -1.000000  1.000000 )  


     PseudoPot. # 1 for Na read from file:
     /home/s1333534/quantum_espresso/qe-6.1/pseudo/Na_pbe_v1.uspp.F.UPF
     MD5 check sum: 76a99c7e9422403d3e93cbc85ab7bccb
     Pseudo is Ultrasoft, Zval =  9.0
     Generated by new atomic code, or converted to UPF format
     Using radial grid of  819 points,  5 beta functions with: 
                l(1) =   0
                l(2) =   0
                l(3) =   1
                l(4) =   1
                l(5) =   2
     Q(r) pseudized with  8 coefficients,  rinner =    1.250   1.250   1.250
                                                       1.250   1.250

     atomic species   valence    mass     pseudopotential
        Na             9.00    22.99000     Na( 1.00)

     48 Sym. Ops., with inversion, found



   Cartesian axes

     site n.     atom                  positions (alat units)
         1           Na  tau(   1) = (   0.0000000   0.0000000   0.0000000  )

     number of k points=   840  Marzari-Vanderbilt smearing, width (Ry)=  0.0200

     Number of k-points >= 100: set verbosity='high' to print them.

     Dense  grid:    18605 G-vectors     FFT dimensions: (  36,  36,  36)

     Smooth grid:     6603 G-vectors     FFT dimensions: (  25,  25,  25)

     Estimated max dynamical RAM per process >       1.68MB

     Estimated total allocated dynamical RAM >       6.72MB

     The potential is recalculated from file :
     ./_ph0/na.bcc.save/charge-density.dat

     Starting wfc are    5 atomic +    4 random wfc

     Band Structure Calculation
     Davidson diagonalization with overlap

     ethr =  1.11E-10,  avg # of iterations = 19.1

     total cpu time spent up to now is      113.3 secs

     End of band structure calculation

     Number of k-points >= 100: set verbosity='high' to print the bands.

     the Fermi energy is     2.8905 ev

     Writing output data file na.bcc.save

                                                                                

     bravais-lattice index     =            3
     lattice parameter (alat)  =       7.2693  a.u.
     unit-cell volume          =     192.0664 (a.u.)^3
     number of atoms/cell      =            1
     number of atomic types    =            1
     kinetic-energy cut-off    =      40.0000  Ry
     charge density cut-off    =     320.0000  Ry
     convergence threshold     =      1.0E-12
     beta                      =       0.7000
     number of iterations used =            4
     Exchange-correlation      = SLA  PW   PBE  PBE ( 1  4  3  4 0 0)


     celldm(1)=    7.26932  celldm(2)=    0.00000  celldm(3)=    0.00000
     celldm(4)=    0.00000  celldm(5)=    0.00000  celldm(6)=    0.00000

     crystal axes: (cart. coord. in units of alat)
               a(1) = (  0.5000  0.5000  0.5000 )  
               a(2) = ( -0.5000  0.5000  0.5000 )  
               a(3) = ( -0.5000 -0.5000  0.5000 )  

     reciprocal axes: (cart. coord. in units 2 pi/alat)
               b(1) = (  1.0000  0.0000  1.0000 )  
               b(2) = ( -1.0000  1.0000  0.0000 )  
               b(3) = (  0.0000 -1.0000  1.0000 )  


     Atoms inside the unit cell: 

     Cartesian axes

     site n.  atom      mass           positions (alat units)
        1     Na  22.9900   tau(    1) = (    0.00000    0.00000    0.00000  )

     Computing dynamical matrix for 
                    q = (   0.0000000   0.5000000  -0.5000000 )

      9 Sym.Ops. (with q -> -q+G )


     G cutoff =  428.3293  (   4651 G-vectors)     FFT grid: ( 36, 36, 36)
     G cutoff =  214.1647  (   1651 G-vectors)  smooth grid: ( 25, 25, 25)

     number of k points=   840  Marzari-Vanderbilt smearing, width (Ry)=  0.0200

     PseudoPot. # 1 for Na read from file:
     /home/s1333534/quantum_espresso/qe-6.1/pseudo/Na_pbe_v1.uspp.F.UPF
     MD5 check sum: 76a99c7e9422403d3e93cbc85ab7bccb
     Pseudo is Ultrasoft, Zval =  9.0
     Generated by new atomic code, or converted to UPF format
     Using radial grid of  819 points,  5 beta functions with: 
                l(1) =   0
                l(2) =   0
                l(3) =   1
                l(4) =   1
                l(5) =   2
     Q(r) pseudized with  8 coefficients,  rinner =    1.250   1.250   1.250
                                                       1.250   1.250

     Mode symmetry, D_2h (mmm)  point group:


     Atomic displacements:
     There are   3 irreducible representations

     Representation     1      1 modes -B_1u  To be done

     Representation     2      1 modes -B_2u  To be done

     Representation     3      1 modes -B_3u  To be done



     Alpha used in Ewald sum =   2.8000
     PHONON       :  6m23.80s CPU     6m59.10s WALL



     Representation #  1 mode #   1

     Self-consistent Calculation

      iter #   1 total cpu time :   421.7 secs   av.it.:   5.5
      thresh= 1.000E-02 alpha_mix =  0.700 |ddv_scf|^2 =  2.550E-05

      iter #   2 total cpu time :   424.5 secs   av.it.:   7.3
      thresh= 5.050E-04 alpha_mix =  0.700 |ddv_scf|^2 =  3.700E-07

      iter #   3 total cpu time :   427.3 secs   av.it.:   7.6
      thresh= 6.082E-05 alpha_mix =  0.700 |ddv_scf|^2 =  1.827E-08

      iter #   4 total cpu time :   430.0 secs   av.it.:   7.0
      thresh= 1.352E-05 alpha_mix =  0.700 |ddv_scf|^2 =  6.498E-11

      iter #   5 total cpu time :   432.7 secs   av.it.:   7.3
      thresh= 8.061E-07 alpha_mix =  0.700 |ddv_scf|^2 =  6.664E-14

     End of self-consistent calculation

     Convergence has been achieved 


     Representation #  2 mode #   2

     Self-consistent Calculation

      iter #   1 total cpu time :   435.4 secs   av.it.:   5.5
      thresh= 1.000E-02 alpha_mix =  0.700 |ddv_scf|^2 =  2.229E-05

      iter #   2 total cpu time :   438.2 secs   av.it.:   7.3
      thresh= 4.721E-04 alpha_mix =  0.700 |ddv_scf|^2 =  3.784E-07

      iter #   3 total cpu time :   441.1 secs   av.it.:   7.6
      thresh= 6.151E-05 alpha_mix =  0.700 |ddv_scf|^2 =  9.219E-09

      iter #   4 total cpu time :   443.7 secs   av.it.:   7.0
      thresh= 9.602E-06 alpha_mix =  0.700 |ddv_scf|^2 =  2.976E-11

      iter #   5 total cpu time :   446.5 secs   av.it.:   7.3
      thresh= 5.455E-07 alpha_mix =  0.700 |ddv_scf|^2 =  4.231E-14

     End of self-consistent calculation

     Convergence has been achieved 


     Representation #  3 mode #   3

     Self-consistent Calculation

      iter #   1 total cpu time :   449.2 secs   av.it.:   5.6
      thresh= 1.000E-02 alpha_mix =  0.700 |ddv_scf|^2 =  1.973E-04

      iter #   2 total cpu time :   451.8 secs   av.it.:   6.6
      thresh= 1.405E-03 alpha_mix =  0.700 |ddv_scf|^2 =  9.104E-05

      iter #   3 total cpu time :   454.3 secs   av.it.:   6.4
      thresh= 9.542E-04 alpha_mix =  0.700 |ddv_scf|^2 =  1.376E-07

      iter #   4 total cpu time :   457.1 secs   av.it.:   7.5
      thresh= 3.709E-05 alpha_mix =  0.700 |ddv_scf|^2 =  4.472E-10

      iter #   5 total cpu time :   459.6 secs   av.it.:   6.3
      thresh= 2.115E-06 alpha_mix =  0.700 |ddv_scf|^2 =  9.094E-12

      iter #   6 total cpu time :   462.2 secs   av.it.:   6.6
      thresh= 3.016E-07 alpha_mix =  0.700 |ddv_scf|^2 =  2.989E-14

     End of self-consistent calculation

     Convergence has been achieved 

     Number of q in the star =    6
     List of q in the star:
          1   0.000000000   0.500000000  -0.500000000
          2  -0.500000000   0.500000000   0.000000000
          3   0.500000000   0.000000000   0.500000000
          4   0.500000000   0.000000000  -0.500000000
          5   0.000000000   0.500000000   0.500000000
          6   0.500000000   0.500000000   0.000000000

     Diagonalizing the dynamical matrix

     q = (    0.000000000   0.500000000  -0.500000000 ) 

 **************************************************************************
     freq (    1) =       1.410409 [THz] =      47.046167 [cm-1]
     freq (    2) =       3.174223 [THz] =     105.880677 [cm-1]
     freq (    3) =       5.697202 [THz] =     190.038195 [cm-1]
 **************************************************************************

     Mode symmetry, D_2h (mmm)  point group:

     freq (  1 -  1) =         47.0  [cm-1]   --> B_2u               
     freq (  2 -  2) =        105.9  [cm-1]   --> B_1u               
     freq (  3 -  3) =        190.0  [cm-1]   --> B_3u               

     Calculation of q =   -0.1250000  -0.1250000   0.2500000

   Info: using nr1, nr2, nr3 values from input

   Info: using nr1, nr2, nr3 values from input

     Parallelization info
     --------------------
     sticks:   dense  smooth     PW     G-vecs:    dense   smooth      PW
     Min         236     118     41                 4651     1650     322
     Max         237     120     42                 4652     1651     323
     Sum         945     475    165                18605     6603    1289



     bravais-lattice index     =            3
     lattice parameter (alat)  =       7.2693  a.u.
     unit-cell volume          =     192.0664 (a.u.)^3
     number of atoms/cell      =            1
     number of atomic types    =            1
     number of electrons       =         9.00
     number of Kohn-Sham states=            9
     kinetic-energy cutoff     =      40.0000  Ry
     charge density cutoff     =     320.0000  Ry
     Exchange-correlation      = SLA  PW   PBE  PBE ( 1  4  3  4 0 0)

     celldm(1)=   7.269320  celldm(2)=   0.000000  celldm(3)=   0.000000
     celldm(4)=   0.000000  celldm(5)=   0.000000  celldm(6)=   0.000000

     crystal axes: (cart. coord. in units of alat)
               a(1) = (   0.500000   0.500000   0.500000 )  
               a(2) = (  -0.500000   0.500000   0.500000 )  
               a(3) = (  -0.500000  -0.500000   0.500000 )  

     reciprocal axes: (cart. coord. in units 2 pi/alat)
               b(1) = (  1.000000  0.000000  1.000000 )  
               b(2) = ( -1.000000  1.000000  0.000000 )  
               b(3) = (  0.000000 -1.000000  1.000000 )  


     PseudoPot. # 1 for Na read from file:
     /home/s1333534/quantum_espresso/qe-6.1/pseudo/Na_pbe_v1.uspp.F.UPF
     MD5 check sum: 76a99c7e9422403d3e93cbc85ab7bccb
     Pseudo is Ultrasoft, Zval =  9.0
     Generated by new atomic code, or converted to UPF format
     Using radial grid of  819 points,  5 beta functions with: 
                l(1) =   0
                l(2) =   0
                l(3) =   1
                l(4) =   1
                l(5) =   2
     Q(r) pseudized with  8 coefficients,  rinner =    1.250   1.250   1.250
                                                       1.250   1.250

     atomic species   valence    mass     pseudopotential
        Na             9.00    22.99000     Na( 1.00)

     48 Sym. Ops., with inversion, found



   Cartesian axes

     site n.     atom                  positions (alat units)
         1           Na  tau(   1) = (   0.0000000   0.0000000   0.0000000  )

     number of k points=  2940  Marzari-Vanderbilt smearing, width (Ry)=  0.0200

     Number of k-points >= 100: set verbosity='high' to print them.

     Dense  grid:    18605 G-vectors     FFT dimensions: (  36,  36,  36)

     Smooth grid:     6603 G-vectors     FFT dimensions: (  25,  25,  25)

     Estimated max dynamical RAM per process >       1.68MB

     Estimated total allocated dynamical RAM >       6.72MB

     The potential is recalculated from file :
     ./_ph0/na.bcc.save/charge-density.dat

     Starting wfc are    5 atomic +    4 random wfc

     Band Structure Calculation
     Davidson diagonalization with overlap

     ethr =  1.11E-10,  avg # of iterations = 19.2

     total cpu time spent up to now is      171.7 secs

     End of band structure calculation

     Number of k-points >= 100: set verbosity='high' to print the bands.

     the Fermi energy is     2.8905 ev

     Writing output data file na.bcc.save

                                                                                

     bravais-lattice index     =            3
     lattice parameter (alat)  =       7.2693  a.u.
     unit-cell volume          =     192.0664 (a.u.)^3
     number of atoms/cell      =            1
     number of atomic types    =            1
     kinetic-energy cut-off    =      40.0000  Ry
     charge density cut-off    =     320.0000  Ry
     convergence threshold     =      1.0E-12
     beta                      =       0.7000
     number of iterations used =            4
     Exchange-correlation      = SLA  PW   PBE  PBE ( 1  4  3  4 0 0)


     celldm(1)=    7.26932  celldm(2)=    0.00000  celldm(3)=    0.00000
     celldm(4)=    0.00000  celldm(5)=    0.00000  celldm(6)=    0.00000

     crystal axes: (cart. coord. in units of alat)
               a(1) = (  0.5000  0.5000  0.5000 )  
               a(2) = ( -0.5000  0.5000  0.5000 )  
               a(3) = ( -0.5000 -0.5000  0.5000 )  

     reciprocal axes: (cart. coord. in units 2 pi/alat)
               b(1) = (  1.0000  0.0000  1.0000 )  
               b(2) = ( -1.0000  1.0000  0.0000 )  
               b(3) = (  0.0000 -1.0000  1.0000 )  


     Atoms inside the unit cell: 

     Cartesian axes

     site n.  atom      mass           positions (alat units)
        1     Na  22.9900   tau(    1) = (    0.00000    0.00000    0.00000  )

     Computing dynamical matrix for 
                    q = (  -0.1250000  -0.1250000   0.2500000 )

      2 Sym.Ops. (no q -> -q+G )


     G cutoff =  428.3293  (   4651 G-vectors)     FFT grid: ( 36, 36, 36)
     G cutoff =  214.1647  (   1651 G-vectors)  smooth grid: ( 25, 25, 25)

     number of k points=  2940  Marzari-Vanderbilt smearing, width (Ry)=  0.0200

     PseudoPot. # 1 for Na read from file:
     /home/s1333534/quantum_espresso/qe-6.1/pseudo/Na_pbe_v1.uspp.F.UPF
     MD5 check sum: 76a99c7e9422403d3e93cbc85ab7bccb
     Pseudo is Ultrasoft, Zval =  9.0
     Generated by new atomic code, or converted to UPF format
     Using radial grid of  819 points,  5 beta functions with: 
                l(1) =   0
                l(2) =   0
                l(3) =   1
                l(4) =   1
                l(5) =   2
     Q(r) pseudized with  8 coefficients,  rinner =    1.250   1.250   1.250
                                                       1.250   1.250

     Mode symmetry, C_s (m)     point group:


     Atomic displacements:
     There are   3 irreducible representations

     Representation     1      1 modes -A'  To be done

     Representation     2      1 modes -A'  To be done

     Representation     3      1 modes -A''  To be done



     Alpha used in Ewald sum =   2.8000
     PHONON       :  8m 3.13s CPU     8m46.78s WALL



     Representation #  1 mode #   1

     Self-consistent Calculation

      iter #   1 total cpu time :   535.8 secs   av.it.:   5.6
      thresh= 1.000E-02 alpha_mix =  0.700 |ddv_scf|^2 =  1.181E-03

      iter #   2 total cpu time :   544.5 secs   av.it.:   6.6
      thresh= 3.437E-03 alpha_mix =  0.700 |ddv_scf|^2 =  4.678E-02

      iter #   3 total cpu time :   551.8 secs   av.it.:   5.0
      thresh= 1.000E-02 alpha_mix =  0.700 |ddv_scf|^2 =  5.357E-07

      iter #   4 total cpu time :   561.9 secs   av.it.:   7.7
      thresh= 7.319E-05 alpha_mix =  0.700 |ddv_scf|^2 =  9.132E-09

      iter #   5 total cpu time :   572.0 secs   av.it.:   7.7
      thresh= 9.556E-06 alpha_mix =  0.700 |ddv_scf|^2 =  9.500E-10

      iter #   6 total cpu time :   581.8 secs   av.it.:   7.6
      thresh= 3.082E-06 alpha_mix =  0.700 |ddv_scf|^2 =  8.774E-10

      iter #   7 total cpu time :   589.6 secs   av.it.:   5.6
      thresh= 2.962E-06 alpha_mix =  0.700 |ddv_scf|^2 =  3.026E-10

      iter #   8 total cpu time :   598.6 secs   av.it.:   6.8
      thresh= 1.740E-06 alpha_mix =  0.700 |ddv_scf|^2 =  5.200E-11

      iter #   9 total cpu time :   607.4 secs   av.it.:   6.6
      thresh= 7.211E-07 alpha_mix =  0.700 |ddv_scf|^2 =  8.369E-12

      iter #  10 total cpu time :   616.6 secs   av.it.:   7.0
      thresh= 2.893E-07 alpha_mix =  0.700 |ddv_scf|^2 =  4.399E-14

     End of self-consistent calculation

     Convergence has been achieved 


     Representation #  2 mode #   2

     Self-consistent Calculation

      iter #   1 total cpu time :   626.0 secs   av.it.:   5.7
      thresh= 1.000E-02 alpha_mix =  0.700 |ddv_scf|^2 =  1.047E-02

      iter #   2 total cpu time :   634.3 secs   av.it.:   6.0
      thresh= 1.000E-02 alpha_mix =  0.700 |ddv_scf|^2 =  4.212E-01

      iter #   3 total cpu time :   642.6 secs   av.it.:   6.0
      thresh= 1.000E-02 alpha_mix =  0.700 |ddv_scf|^2 =  5.497E-06

      iter #   4 total cpu time :   652.7 secs   av.it.:   7.2
      thresh= 2.345E-04 alpha_mix =  0.700 |ddv_scf|^2 =  5.132E-08

      iter #   5 total cpu time :   662.5 secs   av.it.:   7.6
      thresh= 2.265E-05 alpha_mix =  0.700 |ddv_scf|^2 =  3.704E-09

      iter #   6 total cpu time :   672.2 secs   av.it.:   7.6
      thresh= 6.086E-06 alpha_mix =  0.700 |ddv_scf|^2 =  3.405E-10

      iter #   7 total cpu time :   681.6 secs   av.it.:   7.2
      thresh= 1.845E-06 alpha_mix =  0.700 |ddv_scf|^2 =  4.787E-09

      iter #   8 total cpu time :   689.2 secs   av.it.:   5.4
      thresh= 6.919E-06 alpha_mix =  0.700 |ddv_scf|^2 =  4.678E-12

      iter #   9 total cpu time :   698.3 secs   av.it.:   6.9
      thresh= 2.163E-07 alpha_mix =  0.700 |ddv_scf|^2 =  1.123E-13

     End of self-consistent calculation

     Convergence has been achieved 


     Representation #  3 mode #   3

     Self-consistent Calculation

      iter #   1 total cpu time :   707.3 secs   av.it.:   5.5
      thresh= 1.000E-02 alpha_mix =  0.700 |ddv_scf|^2 =  2.311E-05

      iter #   2 total cpu time :   716.9 secs   av.it.:   7.4
      thresh= 4.807E-04 alpha_mix =  0.700 |ddv_scf|^2 =  3.789E-07

      iter #   3 total cpu time :   726.8 secs   av.it.:   7.7
      thresh= 6.156E-05 alpha_mix =  0.700 |ddv_scf|^2 =  1.114E-08

      iter #   4 total cpu time :   736.5 secs   av.it.:   7.4
      thresh= 1.056E-05 alpha_mix =  0.700 |ddv_scf|^2 =  5.643E-11

      iter #   5 total cpu time :   746.2 secs   av.it.:   7.5
      thresh= 7.512E-07 alpha_mix =  0.700 |ddv_scf|^2 =  6.461E-14

     End of self-consistent calculation

     Convergence has been achieved 

     Number of q in the star =   24
     List of q in the star:
          1  -0.125000000  -0.125000000   0.250000000
          2  -0.125000000  -0.250000000   0.125000000
          3   0.125000000  -0.250000000   0.125000000
          4  -0.125000000   0.125000000  -0.250000000
          5  -0.125000000   0.250000000  -0.125000000
          6   0.125000000   0.125000000  -0.250000000
          7   0.125000000   0.250000000  -0.125000000
          8   0.125000000  -0.250000000  -0.125000000
          9  -0.250000000   0.125000000  -0.125000000
         10   0.250000000   0.125000000   0.125000000
         11   0.125000000   0.125000000   0.250000000
         12  -0.250000000  -0.125000000   0.125000000
         13   0.250000000  -0.125000000  -0.125000000
         14   0.125000000  -0.125000000  -0.250000000
         15   0.125000000  -0.125000000   0.250000000
         16   0.125000000   0.250000000   0.125000000
         17  -0.125000000  -0.125000000  -0.250000000
         18  -0.125000000   0.125000000   0.250000000
         19  -0.125000000   0.250000000   0.125000000
         20  -0.125000000  -0.250000000  -0.125000000
         21   0.250000000   0.125000000  -0.125000000
         22  -0.250000000   0.125000000   0.125000000
         23   0.250000000  -0.125000000   0.125000000
         24  -0.250000000  -0.125000000  -0.125000000

     Diagonalizing the dynamical matrix

     q = (   -0.125000000  -0.125000000   0.250000000 ) 

 **************************************************************************
     freq (    1) =       1.896206 [THz] =      63.250626 [cm-1]
     freq (    2) =       2.134554 [THz] =      71.201053 [cm-1]
     freq (    3) =       3.743368 [THz] =     124.865301 [cm-1]
 **************************************************************************

     Mode symmetry, C_s (m)     point group:

     freq (  1 -  1) =         63.3  [cm-1]   --> A'                 
     freq (  2 -  2) =         71.2  [cm-1]   --> A''                
     freq (  3 -  3) =        124.9  [cm-1]   --> A'                 

     Calculation of q =   -0.1250000  -0.2500000   0.3750000

   Info: using nr1, nr2, nr3 values from input

   Info: using nr1, nr2, nr3 values from input

     Parallelization info
     --------------------
     sticks:   dense  smooth     PW     G-vecs:    dense   smooth      PW
     Min         236     118     43                 4651     1650     358
     Max         237     120     44                 4652     1651     359
     Sum         945     475    173                18605     6603    1433



     bravais-lattice index     =            3
     lattice parameter (alat)  =       7.2693  a.u.
     unit-cell volume          =     192.0664 (a.u.)^3
     number of atoms/cell      =            1
     number of atomic types    =            1
     number of electrons       =         9.00
     number of Kohn-Sham states=            9
     kinetic-energy cutoff     =      40.0000  Ry
     charge density cutoff     =     320.0000  Ry
     Exchange-correlation      = SLA  PW   PBE  PBE ( 1  4  3  4 0 0)

     celldm(1)=   7.269320  celldm(2)=   0.000000  celldm(3)=   0.000000
     celldm(4)=   0.000000  celldm(5)=   0.000000  celldm(6)=   0.000000

     crystal axes: (cart. coord. in units of alat)
               a(1) = (   0.500000   0.500000   0.500000 )  
               a(2) = (  -0.500000   0.500000   0.500000 )  
               a(3) = (  -0.500000  -0.500000   0.500000 )  

     reciprocal axes: (cart. coord. in units 2 pi/alat)
               b(1) = (  1.000000  0.000000  1.000000 )  
               b(2) = ( -1.000000  1.000000  0.000000 )  
               b(3) = (  0.000000 -1.000000  1.000000 )  


     PseudoPot. # 1 for Na read from file:
     /home/s1333534/quantum_espresso/qe-6.1/pseudo/Na_pbe_v1.uspp.F.UPF
     MD5 check sum: 76a99c7e9422403d3e93cbc85ab7bccb
     Pseudo is Ultrasoft, Zval =  9.0
     Generated by new atomic code, or converted to UPF format
     Using radial grid of  819 points,  5 beta functions with: 
                l(1) =   0
                l(2) =   0
                l(3) =   1
                l(4) =   1
                l(5) =   2
     Q(r) pseudized with  8 coefficients,  rinner =    1.250   1.250   1.250
                                                       1.250   1.250

     atomic species   valence    mass     pseudopotential
        Na             9.00    22.99000     Na( 1.00)

     48 Sym. Ops., with inversion, found



   Cartesian axes

     site n.     atom                  positions (alat units)
         1           Na  tau(   1) = (   0.0000000   0.0000000   0.0000000  )

     number of k points=  5488  Marzari-Vanderbilt smearing, width (Ry)=  0.0200

     Number of k-points >= 100: set verbosity='high' to print them.

     Dense  grid:    18605 G-vectors     FFT dimensions: (  36,  36,  36)

     Smooth grid:     6603 G-vectors     FFT dimensions: (  25,  25,  25)

     Estimated max dynamical RAM per process >       1.68MB

     Estimated total allocated dynamical RAM >       6.72MB

     The potential is recalculated from file :
     ./_ph0/na.bcc.save/charge-density.dat

     Starting wfc are    5 atomic +    4 random wfc

     Band Structure Calculation
     Davidson diagonalization with overlap

     ethr =  1.11E-10,  avg # of iterations = 19.0

     total cpu time spent up to now is      283.0 secs

     End of band structure calculation

     Number of k-points >= 100: set verbosity='high' to print the bands.

     the Fermi energy is     2.8905 ev

     Writing output data file na.bcc.save

                                                                                

     bravais-lattice index     =            3
     lattice parameter (alat)  =       7.2693  a.u.
     unit-cell volume          =     192.0664 (a.u.)^3
     number of atoms/cell      =            1
     number of atomic types    =            1
     kinetic-energy cut-off    =      40.0000  Ry
     charge density cut-off    =     320.0000  Ry
     convergence threshold     =      1.0E-12
     beta                      =       0.7000
     number of iterations used =            4
     Exchange-correlation      = SLA  PW   PBE  PBE ( 1  4  3  4 0 0)


     celldm(1)=    7.26932  celldm(2)=    0.00000  celldm(3)=    0.00000
     celldm(4)=    0.00000  celldm(5)=    0.00000  celldm(6)=    0.00000

     crystal axes: (cart. coord. in units of alat)
               a(1) = (  0.5000  0.5000  0.5000 )  
               a(2) = ( -0.5000  0.5000  0.5000 )  
               a(3) = ( -0.5000 -0.5000  0.5000 )  

     reciprocal axes: (cart. coord. in units 2 pi/alat)
               b(1) = (  1.0000  0.0000  1.0000 )  
               b(2) = ( -1.0000  1.0000  0.0000 )  
               b(3) = (  0.0000 -1.0000  1.0000 )  


     Atoms inside the unit cell: 

     Cartesian axes

     site n.  atom      mass           positions (alat units)
        1     Na  22.9900   tau(    1) = (    0.00000    0.00000    0.00000  )

     Computing dynamical matrix for 
                    q = (  -0.1250000  -0.2500000   0.3750000 )

     No symmetry!

     G cutoff =  428.3293  (   4651 G-vectors)     FFT grid: ( 36, 36, 36)
     G cutoff =  214.1647  (   1651 G-vectors)  smooth grid: ( 25, 25, 25)

     number of k points=  5488  Marzari-Vanderbilt smearing, width (Ry)=  0.0200

     PseudoPot. # 1 for Na read from file:
     /home/s1333534/quantum_espresso/qe-6.1/pseudo/Na_pbe_v1.uspp.F.UPF
     MD5 check sum: 76a99c7e9422403d3e93cbc85ab7bccb
     Pseudo is Ultrasoft, Zval =  9.0
     Generated by new atomic code, or converted to UPF format
     Using radial grid of  819 points,  5 beta functions with: 
                l(1) =   0
                l(2) =   0
                l(3) =   1
                l(4) =   1
                l(5) =   2
     Q(r) pseudized with  8 coefficients,  rinner =    1.250   1.250   1.250
                                                       1.250   1.250

     Mode symmetry, C_1 (1)     point group:


     Atomic displacements:
     There are   3 irreducible representations

     Representation     1      1 modes -A  To be done

     Representation     2      1 modes -A  To be done

     Representation     3      1 modes -A  To be done



     Alpha used in Ewald sum =   2.8000
     PHONON       : 13m14.93s CPU    14m28.05s WALL



     Representation #  1 mode #   1

     Self-consistent Calculation

      iter #   1 total cpu time :   885.1 secs   av.it.:   5.7
      thresh= 1.000E-02 alpha_mix =  0.700 |ddv_scf|^2 =  3.575E-05

      iter #   2 total cpu time :   903.6 secs   av.it.:   7.7
      thresh= 5.979E-04 alpha_mix =  0.700 |ddv_scf|^2 =  6.762E-05

      iter #   3 total cpu time :   920.1 secs   av.it.:   6.0
      thresh= 8.223E-04 alpha_mix =  0.700 |ddv_scf|^2 =  5.929E-06

      iter #   4 total cpu time :   937.6 secs   av.it.:   7.1
      thresh= 2.435E-04 alpha_mix =  0.700 |ddv_scf|^2 =  7.197E-09

      iter #   5 total cpu time :   956.4 secs   av.it.:   7.7
      thresh= 8.484E-06 alpha_mix =  0.700 |ddv_scf|^2 =  2.040E-10

      iter #   6 total cpu time :   976.0 secs   av.it.:   7.9
      thresh= 1.428E-06 alpha_mix =  0.700 |ddv_scf|^2 =  9.307E-12

      iter #   7 total cpu time :   995.3 secs   av.it.:   8.2
      thresh= 3.051E-07 alpha_mix =  0.700 |ddv_scf|^2 =  1.895E-12

      iter #   8 total cpu time :  1013.3 secs   av.it.:   7.4
      thresh= 1.377E-07 alpha_mix =  0.700 |ddv_scf|^2 =  3.792E-12

      iter #   9 total cpu time :  1030.3 secs   av.it.:   6.9
      thresh= 1.947E-07 alpha_mix =  0.700 |ddv_scf|^2 =  1.637E-14

     End of self-consistent calculation

     Convergence has been achieved 


     Representation #  2 mode #   2

     Self-consistent Calculation

      iter #   1 total cpu time :  1048.2 secs   av.it.:   5.8
      thresh= 1.000E-02 alpha_mix =  0.700 |ddv_scf|^2 =  5.106E-04

      iter #   2 total cpu time :  1065.4 secs   av.it.:   7.0
      thresh= 2.260E-03 alpha_mix =  0.700 |ddv_scf|^2 =  2.598E-03

      iter #   3 total cpu time :  1081.2 secs   av.it.:   5.7
      thresh= 5.097E-03 alpha_mix =  0.700 |ddv_scf|^2 =  4.319E-07

      iter #   4 total cpu time :  1100.0 secs   av.it.:   7.8
      thresh= 6.572E-05 alpha_mix =  0.700 |ddv_scf|^2 =  1.029E-08

      iter #   5 total cpu time :  1119.1 secs   av.it.:   8.0
      thresh= 1.014E-05 alpha_mix =  0.700 |ddv_scf|^2 =  9.766E-10

      iter #   6 total cpu time :  1138.1 secs   av.it.:   8.0
      thresh= 3.125E-06 alpha_mix =  0.700 |ddv_scf|^2 =  2.674E-11

      iter #   7 total cpu time :  1157.4 secs   av.it.:   7.8
      thresh= 5.171E-07 alpha_mix =  0.700 |ddv_scf|^2 =  2.007E-12

      iter #   8 total cpu time :  1175.9 secs   av.it.:   7.7
      thresh= 1.417E-07 alpha_mix =  0.700 |ddv_scf|^2 =  2.411E-13

     End of self-consistent calculation

     Convergence has been achieved 


     Representation #  3 mode #   3

     Self-consistent Calculation

      iter #   1 total cpu time :  1194.8 secs   av.it.:   5.8
      thresh= 1.000E-02 alpha_mix =  0.700 |ddv_scf|^2 =  4.950E-04

      iter #   2 total cpu time :  1212.5 secs   av.it.:   7.0
      thresh= 2.225E-03 alpha_mix =  0.700 |ddv_scf|^2 =  2.489E-03

      iter #   3 total cpu time :  1227.4 secs   av.it.:   5.7
      thresh= 4.989E-03 alpha_mix =  0.700 |ddv_scf|^2 =  3.262E-07

      iter #   4 total cpu time :  1246.6 secs   av.it.:   8.0
      thresh= 5.712E-05 alpha_mix =  0.700 |ddv_scf|^2 =  1.228E-08

      iter #   5 total cpu time :  1265.9 secs   av.it.:   8.1
      thresh= 1.108E-05 alpha_mix =  0.700 |ddv_scf|^2 =  6.532E-10

      iter #   6 total cpu time :  1285.2 secs   av.it.:   8.1
      thresh= 2.556E-06 alpha_mix =  0.700 |ddv_scf|^2 =  3.140E-11

      iter #   7 total cpu time :  1303.7 secs   av.it.:   7.7
      thresh= 5.603E-07 alpha_mix =  0.700 |ddv_scf|^2 =  1.271E-12

      iter #   8 total cpu time :  1321.8 secs   av.it.:   7.3
      thresh= 1.128E-07 alpha_mix =  0.700 |ddv_scf|^2 =  3.997E-14

     End of self-consistent calculation

     Convergence has been achieved 

     Number of q in the star =   48
     List of q in the star:
          1  -0.125000000  -0.250000000   0.375000000
          2  -0.250000000  -0.125000000   0.375000000
          3  -0.125000000  -0.375000000   0.250000000
          4   0.125000000  -0.375000000   0.250000000
          5  -0.125000000   0.250000000  -0.375000000
          6  -0.125000000   0.375000000  -0.250000000
          7   0.125000000   0.250000000  -0.375000000
          8   0.125000000   0.375000000  -0.250000000
          9   0.250000000  -0.375000000  -0.125000000
         10  -0.375000000   0.125000000  -0.250000000
         11   0.375000000   0.125000000   0.250000000
         12   0.250000000   0.125000000   0.375000000
         13  -0.375000000  -0.125000000   0.250000000
         14   0.375000000  -0.125000000  -0.250000000
         15   0.125000000  -0.250000000  -0.375000000
         16   0.250000000  -0.125000000  -0.375000000
         17  -0.250000000   0.125000000  -0.375000000
         18  -0.375000000  -0.250000000   0.125000000
         19  -0.375000000   0.250000000  -0.125000000
         20   0.375000000   0.250000000   0.125000000
         21   0.250000000  -0.125000000   0.375000000
         22  -0.250000000   0.375000000  -0.125000000
         23   0.125000000  -0.375000000  -0.250000000
         24   0.125000000   0.375000000   0.250000000
         25   0.250000000   0.125000000  -0.375000000
         26  -0.125000000  -0.250000000  -0.375000000
         27  -0.250000000   0.125000000   0.375000000
         28  -0.125000000   0.375000000   0.250000000
         29  -0.125000000   0.250000000   0.375000000
         30   0.125000000  -0.250000000   0.375000000
         31  -0.125000000  -0.375000000  -0.250000000
         32   0.125000000   0.250000000   0.375000000
         33   0.375000000  -0.250000000  -0.125000000
         34   0.250000000   0.375000000   0.125000000
         35  -0.250000000  -0.375000000   0.125000000
         36   0.375000000   0.250000000  -0.125000000
         37  -0.375000000   0.250000000   0.125000000
         38   0.375000000  -0.250000000   0.125000000
         39  -0.375000000  -0.250000000  -0.125000000
         40  -0.250000000  -0.125000000  -0.375000000
         41   0.250000000  -0.375000000   0.125000000
         42  -0.250000000  -0.375000000  -0.125000000
         43   0.250000000   0.375000000  -0.125000000
         44  -0.250000000   0.375000000   0.125000000
         45  -0.375000000   0.125000000   0.250000000
         46  -0.375000000  -0.125000000  -0.250000000
         47   0.375000000  -0.125000000   0.250000000
         48   0.375000000   0.125000000  -0.250000000

     Diagonalizing the dynamical matrix

     q = (   -0.125000000  -0.250000000   0.375000000 ) 

 **************************************************************************
     freq (    1) =       1.949140 [THz] =      65.016326 [cm-1]
     freq (    2) =       3.056640 [THz] =     101.958540 [cm-1]
     freq (    3) =       4.813101 [THz] =     160.547759 [cm-1]
 **************************************************************************

     Mode symmetry, C_1 (1)     point group:

     freq (  1 -  1) =         65.0  [cm-1]   --> A                  
     freq (  2 -  2) =        102.0  [cm-1]   --> A                  
     freq (  3 -  3) =        160.5  [cm-1]   --> A                  

     Calculation of q =   -0.1250000   0.6250000  -0.5000000

   Info: using nr1, nr2, nr3 values from input

   Info: using nr1, nr2, nr3 values from input

     Parallelization info
     --------------------
     sticks:   dense  smooth     PW     G-vecs:    dense   smooth      PW
     Min         236     118     43                 4651     1650     375
     Max         237     120     44                 4652     1651     378
     Sum         945     475    173                18605     6603    1505



     bravais-lattice index     =            3
     lattice parameter (alat)  =       7.2693  a.u.
     unit-cell volume          =     192.0664 (a.u.)^3
     number of atoms/cell      =            1
     number of atomic types    =            1
     number of electrons       =         9.00
     number of Kohn-Sham states=            9
     kinetic-energy cutoff     =      40.0000  Ry
     charge density cutoff     =     320.0000  Ry
     Exchange-correlation      = SLA  PW   PBE  PBE ( 1  4  3  4 0 0)

     celldm(1)=   7.269320  celldm(2)=   0.000000  celldm(3)=   0.000000
     celldm(4)=   0.000000  celldm(5)=   0.000000  celldm(6)=   0.000000

     crystal axes: (cart. coord. in units of alat)
               a(1) = (   0.500000   0.500000   0.500000 )  
               a(2) = (  -0.500000   0.500000   0.500000 )  
               a(3) = (  -0.500000  -0.500000   0.500000 )  

     reciprocal axes: (cart. coord. in units 2 pi/alat)
               b(1) = (  1.000000  0.000000  1.000000 )  
               b(2) = ( -1.000000  1.000000  0.000000 )  
               b(3) = (  0.000000 -1.000000  1.000000 )  


     PseudoPot. # 1 for Na read from file:
     /home/s1333534/quantum_espresso/qe-6.1/pseudo/Na_pbe_v1.uspp.F.UPF
     MD5 check sum: 76a99c7e9422403d3e93cbc85ab7bccb
     Pseudo is Ultrasoft, Zval =  9.0
     Generated by new atomic code, or converted to UPF format
     Using radial grid of  819 points,  5 beta functions with: 
                l(1) =   0
                l(2) =   0
                l(3) =   1
                l(4) =   1
                l(5) =   2
     Q(r) pseudized with  8 coefficients,  rinner =    1.250   1.250   1.250
                                                       1.250   1.250

     atomic species   valence    mass     pseudopotential
        Na             9.00    22.99000     Na( 1.00)

     48 Sym. Ops., with inversion, found



   Cartesian axes

     site n.     atom                  positions (alat units)
         1           Na  tau(   1) = (   0.0000000   0.0000000   0.0000000  )

     number of k points=  5488  Marzari-Vanderbilt smearing, width (Ry)=  0.0200

     Number of k-points >= 100: set verbosity='high' to print them.

     Dense  grid:    18605 G-vectors     FFT dimensions: (  36,  36,  36)

     Smooth grid:     6603 G-vectors     FFT dimensions: (  25,  25,  25)

     Estimated max dynamical RAM per process >       1.68MB

     Estimated total allocated dynamical RAM >       6.72MB

     The potential is recalculated from file :
     ./_ph0/na.bcc.save/charge-density.dat

     Starting wfc are    5 atomic +    4 random wfc

     Band Structure Calculation
     Davidson diagonalization with overlap

     ethr =  1.11E-10,  avg # of iterations = 19.0

     total cpu time spent up to now is      395.4 secs

     End of band structure calculation

     Number of k-points >= 100: set verbosity='high' to print the bands.

     the Fermi energy is     2.8905 ev

     Writing output data file na.bcc.save

                                                                                

     bravais-lattice index     =            3
     lattice parameter (alat)  =       7.2693  a.u.
     unit-cell volume          =     192.0664 (a.u.)^3
     number of atoms/cell      =            1
     number of atomic types    =            1
     kinetic-energy cut-off    =      40.0000  Ry
     charge density cut-off    =     320.0000  Ry
     convergence threshold     =      1.0E-12
     beta                      =       0.7000
     number of iterations used =            4
     Exchange-correlation      = SLA  PW   PBE  PBE ( 1  4  3  4 0 0)


     celldm(1)=    7.26932  celldm(2)=    0.00000  celldm(3)=    0.00000
     celldm(4)=    0.00000  celldm(5)=    0.00000  celldm(6)=    0.00000

     crystal axes: (cart. coord. in units of alat)
[...]
     Exchange-correlation      = SLA  PW   PBE  PBE ( 1  4  3  4 0 0)


     celldm(1)=    7.26932  celldm(2)=    0.00000  celldm(3)=    0.00000
     celldm(4)=    0.00000  celldm(5)=    0.00000  celldm(6)=    0.00000

     crystal axes: (cart. coord. in units of alat)
               a(1) = (  0.5000  0.5000  0.5000 )  
               a(2) = ( -0.5000  0.5000  0.5000 )  
               a(3) = ( -0.5000 -0.5000  0.5000 )  

     reciprocal axes: (cart. coord. in units 2 pi/alat)
               b(1) = (  1.0000  0.0000  1.0000 )  
               b(2) = ( -1.0000  1.0000  0.0000 )  
               b(3) = (  0.0000 -1.0000  1.0000 )  


     Atoms inside the unit cell: 

     Cartesian axes

     site n.  atom      mass           positions (alat units)
        1     Na  22.9900   tau(    1) = (    0.00000    0.00000    0.00000  )

     Computing dynamical matrix for 
                    q = (   0.0000000   0.8750000  -0.1250000 )

      4 Sym.Ops. (no q -> -q+G )


     G cutoff =  428.3293  (   4651 G-vectors)     FFT grid: ( 36, 36, 36)
     G cutoff =  214.1647  (   1651 G-vectors)  smooth grid: ( 25, 25, 25)

     number of k points=  1568  Marzari-Vanderbilt smearing, width (Ry)=  0.0200

     PseudoPot. # 1 for Na read from file:
     /home/s1333534/quantum_espresso/qe-6.1/pseudo/Na_pbe_v1.uspp.F.UPF
     MD5 check sum: 76a99c7e9422403d3e93cbc85ab7bccb
     Pseudo is Ultrasoft, Zval =  9.0
     Generated by new atomic code, or converted to UPF format
     Using radial grid of  819 points,  5 beta functions with: 
                l(1) =   0
                l(2) =   0
                l(3) =   1
                l(4) =   1
                l(5) =   2
     Q(r) pseudized with  8 coefficients,  rinner =    1.250   1.250   1.250
                                                       1.250   1.250

     Mode symmetry, C_2v (mm2)  point group:


     Atomic displacements:
     There are   3 irreducible representations

     Representation     1      1 modes -A_1  D_1  S_1  To be done

     Representation     2      1 modes -B_1  D_3  S_3  To be done

     Representation     3      1 modes -B_2  D_4  S_4  To be done



     Alpha used in Ewald sum =   2.8000
     PHONON       :     1h24m CPU        1h32m WALL



     Representation #  1 mode #   1

     Self-consistent Calculation

      iter #   1 total cpu time :  5582.7 secs   av.it.:   5.7
      thresh= 1.000E-02 alpha_mix =  0.700 |ddv_scf|^2 =  4.215E-05

      iter #   2 total cpu time :  5587.9 secs   av.it.:   7.5
      thresh= 6.492E-04 alpha_mix =  0.700 |ddv_scf|^2 =  1.201E-06

      iter #   3 total cpu time :  5593.2 secs   av.it.:   7.5
      thresh= 1.096E-04 alpha_mix =  0.700 |ddv_scf|^2 =  4.176E-08

      iter #   4 total cpu time :  5598.7 secs   av.it.:   7.9
      thresh= 2.044E-05 alpha_mix =  0.700 |ddv_scf|^2 =  2.179E-09

      iter #   5 total cpu time :  5604.1 secs   av.it.:   7.9
      thresh= 4.668E-06 alpha_mix =  0.700 |ddv_scf|^2 =  1.696E-10

      iter #   6 total cpu time :  5609.4 secs   av.it.:   7.6
      thresh= 1.302E-06 alpha_mix =  0.700 |ddv_scf|^2 =  9.400E-13

     End of self-consistent calculation

     Convergence has been achieved 


     Representation #  2 mode #   2

     Self-consistent Calculation

      iter #   1 total cpu time :  5614.7 secs   av.it.:   5.5
      thresh= 1.000E-02 alpha_mix =  0.700 |ddv_scf|^2 =  3.821E-05

      iter #   2 total cpu time :  5619.9 secs   av.it.:   7.3
      thresh= 6.181E-04 alpha_mix =  0.700 |ddv_scf|^2 =  4.372E-07

      iter #   3 total cpu time :  5625.0 secs   av.it.:   7.3
      thresh= 6.612E-05 alpha_mix =  0.700 |ddv_scf|^2 =  4.041E-08

      iter #   4 total cpu time :  5630.2 secs   av.it.:   7.4
      thresh= 2.010E-05 alpha_mix =  0.700 |ddv_scf|^2 =  1.755E-10

      iter #   5 total cpu time :  5635.3 secs   av.it.:   7.3
      thresh= 1.325E-06 alpha_mix =  0.700 |ddv_scf|^2 =  7.188E-14

     End of self-consistent calculation

     Convergence has been achieved 


     Representation #  3 mode #   3

     Self-consistent Calculation

      iter #   1 total cpu time :  5640.3 secs   av.it.:   5.6
      thresh= 1.000E-02 alpha_mix =  0.700 |ddv_scf|^2 =  5.276E-05

      iter #   2 total cpu time :  5645.5 secs   av.it.:   7.2
      thresh= 7.264E-04 alpha_mix =  0.700 |ddv_scf|^2 =  2.090E-06

      iter #   3 total cpu time :  5650.6 secs   av.it.:   7.2
      thresh= 1.446E-04 alpha_mix =  0.700 |ddv_scf|^2 =  5.061E-08

      iter #   4 total cpu time :  5655.9 secs   av.it.:   7.4
      thresh= 2.250E-05 alpha_mix =  0.700 |ddv_scf|^2 =  1.657E-09

      iter #   5 total cpu time :  5660.9 secs   av.it.:   7.2
      thresh= 4.070E-06 alpha_mix =  0.700 |ddv_scf|^2 =  4.717E-12

      iter #   6 total cpu time :  5666.2 secs   av.it.:   7.6
      thresh= 2.172E-07 alpha_mix =  0.700 |ddv_scf|^2 =  6.074E-15

     End of self-consistent calculation

     Convergence has been achieved 

     Number of q in the star =   12
     List of q in the star:
          1   0.000000000   0.875000000  -0.125000000
          2   0.000000000  -0.875000000  -0.125000000
          3   0.875000000   0.000000000  -0.125000000
          4  -0.875000000   0.000000000  -0.125000000
          5   0.125000000   0.000000000  -0.875000000
          6   0.125000000   0.875000000   0.000000000
          7   0.000000000   0.875000000   0.125000000
          8   0.875000000   0.000000000   0.125000000
          9   0.125000000  -0.875000000   0.000000000
         10  -0.125000000  -0.875000000   0.000000000
         11   0.875000000  -0.125000000   0.000000000
         12   0.000000000  -0.875000000   0.125000000

     Diagonalizing the dynamical matrix

     q = (    0.000000000   0.875000000  -0.125000000 ) 

 **************************************************************************
     freq (    1) =       4.742520 [THz] =     158.193431 [cm-1]
     freq (    2) =       5.085718 [THz] =     169.641277 [cm-1]
     freq (    3) =       5.118068 [THz] =     170.720382 [cm-1]
 **************************************************************************

     Mode symmetry, C_2v (mm2)  point group:

     freq (  1 -  1) =        158.2  [cm-1]   --> B_1  D_3  S_3      
     freq (  2 -  2) =        169.6  [cm-1]   --> A_1  D_1  S_1      
     freq (  3 -  3) =        170.7  [cm-1]   --> B_2  D_4  S_4      

     Calculation of q =    0.0000000   0.0000000  -1.0000000

   Info: using nr1, nr2, nr3 values from input

   Info: using nr1, nr2, nr3 values from input

     Parallelization info
     --------------------
     sticks:   dense  smooth     PW     G-vecs:    dense   smooth      PW
     Min         236     118     43                 4651     1650     369
     Max         237     120     44                 4652     1651     372
     Sum         945     475    173                18605     6603    1481



     bravais-lattice index     =            3
     lattice parameter (alat)  =       7.2693  a.u.
     unit-cell volume          =     192.0664 (a.u.)^3
     number of atoms/cell      =            1
     number of atomic types    =            1
     number of electrons       =         9.00
     number of Kohn-Sham states=            9
     kinetic-energy cutoff     =      40.0000  Ry
     charge density cutoff     =     320.0000  Ry
     Exchange-correlation      = SLA  PW   PBE  PBE ( 1  4  3  4 0 0)

     celldm(1)=   7.269320  celldm(2)=   0.000000  celldm(3)=   0.000000
     celldm(4)=   0.000000  celldm(5)=   0.000000  celldm(6)=   0.000000

     crystal axes: (cart. coord. in units of alat)
               a(1) = (   0.500000   0.500000   0.500000 )  
               a(2) = (  -0.500000   0.500000   0.500000 )  
               a(3) = (  -0.500000  -0.500000   0.500000 )  

     reciprocal axes: (cart. coord. in units 2 pi/alat)
               b(1) = (  1.000000  0.000000  1.000000 )  
               b(2) = ( -1.000000  1.000000  0.000000 )  
               b(3) = (  0.000000 -1.000000  1.000000 )  


     PseudoPot. # 1 for Na read from file:
     /home/s1333534/quantum_espresso/qe-6.1/pseudo/Na_pbe_v1.uspp.F.UPF
     MD5 check sum: 76a99c7e9422403d3e93cbc85ab7bccb
     Pseudo is Ultrasoft, Zval =  9.0
     Generated by new atomic code, or converted to UPF format
     Using radial grid of  819 points,  5 beta functions with: 
                l(1) =   0
                l(2) =   0
                l(3) =   1
                l(4) =   1
                l(5) =   2
     Q(r) pseudized with  8 coefficients,  rinner =    1.250   1.250   1.250
                                                       1.250   1.250

     atomic species   valence    mass     pseudopotential
        Na             9.00    22.99000     Na( 1.00)

     48 Sym. Ops., with inversion, found



   Cartesian axes

     site n.     atom                  positions (alat units)
         1           Na  tau(   1) = (   0.0000000   0.0000000   0.0000000  )

     number of k points=   200  Marzari-Vanderbilt smearing, width (Ry)=  0.0200

     Number of k-points >= 100: set verbosity='high' to print them.

     Dense  grid:    18605 G-vectors     FFT dimensions: (  36,  36,  36)

     Smooth grid:     6603 G-vectors     FFT dimensions: (  25,  25,  25)

     Estimated max dynamical RAM per process >       1.68MB

     Estimated total allocated dynamical RAM >       6.72MB

     The potential is recalculated from file :
     ./_ph0/na.bcc.save/charge-density.dat

     Starting wfc are    5 atomic +    4 random wfc

     Band Structure Calculation
     Davidson diagonalization with overlap

     ethr =  1.11E-10,  avg # of iterations = 19.3

     total cpu time spent up to now is     1299.1 secs

     End of band structure calculation

     Number of k-points >= 100: set verbosity='high' to print the bands.

     the Fermi energy is     2.8905 ev

     Writing output data file na.bcc.save

                                                                                

     bravais-lattice index     =            3
     lattice parameter (alat)  =       7.2693  a.u.
     unit-cell volume          =     192.0664 (a.u.)^3
     number of atoms/cell      =            1
     number of atomic types    =            1
     kinetic-energy cut-off    =      40.0000  Ry
     charge density cut-off    =     320.0000  Ry
     convergence threshold     =      1.0E-12
     beta                      =       0.7000
     number of iterations used =            4
     Exchange-correlation      = SLA  PW   PBE  PBE ( 1  4  3  4 0 0)


     celldm(1)=    7.26932  celldm(2)=    0.00000  celldm(3)=    0.00000
     celldm(4)=    0.00000  celldm(5)=    0.00000  celldm(6)=    0.00000

     crystal axes: (cart. coord. in units of alat)
               a(1) = (  0.5000  0.5000  0.5000 )  
               a(2) = ( -0.5000  0.5000  0.5000 )  
               a(3) = ( -0.5000 -0.5000  0.5000 )  

     reciprocal axes: (cart. coord. in units 2 pi/alat)
               b(1) = (  1.0000  0.0000  1.0000 )  
               b(2) = ( -1.0000  1.0000  0.0000 )  
               b(3) = (  0.0000 -1.0000  1.0000 )  


     Atoms inside the unit cell: 

     Cartesian axes

     site n.  atom      mass           positions (alat units)
        1     Na  22.9900   tau(    1) = (    0.00000    0.00000    0.00000  )

     Computing dynamical matrix for 
                    q = (   0.0000000   0.0000000  -1.0000000 )

     49 Sym.Ops. (with q -> -q+G )


     G cutoff =  428.3293  (   4651 G-vectors)     FFT grid: ( 36, 36, 36)
     G cutoff =  214.1647  (   1651 G-vectors)  smooth grid: ( 25, 25, 25)

     number of k points=   200  Marzari-Vanderbilt smearing, width (Ry)=  0.0200

     PseudoPot. # 1 for Na read from file:
     /home/s1333534/quantum_espresso/qe-6.1/pseudo/Na_pbe_v1.uspp.F.UPF
     MD5 check sum: 76a99c7e9422403d3e93cbc85ab7bccb
     Pseudo is Ultrasoft, Zval =  9.0
     Generated by new atomic code, or converted to UPF format
     Using radial grid of  819 points,  5 beta functions with: 
                l(1) =   0
                l(2) =   0
                l(3) =   1
                l(4) =   1
                l(5) =   2
     Q(r) pseudized with  8 coefficients,  rinner =    1.250   1.250   1.250
                                                       1.250   1.250

     Mode symmetry, O_h (m-3m)  point group:


     Atomic displacements:
     There are   1 irreducible representations

     Representation     1      3 modes -T_1u G_15  G_4-  To be done



     Alpha used in Ewald sum =   2.8000
     PHONON       :     1h25m CPU        1h34m WALL



     Representation #  1 modes #   1  2  3

     Self-consistent Calculation

      iter #   1 total cpu time :  5673.3 secs   av.it.:   5.6
      thresh= 1.000E-02 alpha_mix =  0.700 |ddv_scf|^2 =  4.522E-06

      iter #   2 total cpu time :  5675.6 secs   av.it.:   8.2
      thresh= 2.126E-04 alpha_mix =  0.700 |ddv_scf|^2 =  5.557E-08

      iter #   3 total cpu time :  5678.0 secs   av.it.:   8.1
      thresh= 2.357E-05 alpha_mix =  0.700 |ddv_scf|^2 =  4.840E-09

      iter #   4 total cpu time :  5680.3 secs   av.it.:   8.2
      thresh= 6.957E-06 alpha_mix =  0.700 |ddv_scf|^2 =  2.025E-11

      iter #   5 total cpu time :  5682.7 secs   av.it.:   8.0
      thresh= 4.500E-07 alpha_mix =  0.700 |ddv_scf|^2 =  7.121E-15

     End of self-consistent calculation

     Convergence has been achieved 

     Number of q in the star =    1
     List of q in the star:
          1   0.000000000   0.000000000  -1.000000000

     Diagonalizing the dynamical matrix

     q = (    0.000000000   0.000000000  -1.000000000 ) 

 **************************************************************************
     freq (    1) =       4.934042 [THz] =     164.581929 [cm-1]
     freq (    2) =       4.934042 [THz] =     164.581929 [cm-1]
     freq (    3) =       4.934042 [THz] =     164.581929 [cm-1]
 **************************************************************************

     Mode symmetry, O_h (m-3m)  point group:

     freq (  1 -  3) =        164.6  [cm-1]   --> T_1u G_15  G_4-    

     init_run     :      4.94s CPU      5.00s WALL (      28 calls)
     electrons    :   1162.56s CPU   1248.72s WALL (      28 calls)

     Called by init_run:
     wfcinit      :      0.00s CPU      0.00s WALL (      28 calls)
     potinit      :      0.30s CPU      0.31s WALL (      28 calls)

     Called by electrons:
     c_bands      :   1162.26s CPU   1248.42s WALL (      28 calls)
     v_of_rho     :      0.24s CPU      0.24s WALL (      29 calls)
     newd         :      0.33s CPU      0.34s WALL (      29 calls)

     Called by c_bands:
     init_us_2    :     87.09s CPU     79.28s WALL (  912493 calls)
     cegterg      :   1070.38s CPU   1149.18s WALL (   78582 calls)

     Called by sum_band:

     Called by *egterg:
     h_psi        :   3304.92s CPU   3634.00s WALL ( 7561298 calls)
     s_psi        :    116.78s CPU    129.60s WALL (14421804 calls)
     g_psi        :      6.33s CPU      9.66s WALL ( 1205838 calls)
     cdiaghg      :    262.49s CPU    264.03s WALL ( 1269004 calls)

     Called by h_psi:
     h_psi:pot    :   3283.16s CPU   3607.84s WALL ( 7561298 calls)
     h_psi:calbec :     91.35s CPU    107.82s WALL ( 7561298 calls)
     vloc_psi     :   3112.65s CPU   3399.93s WALL ( 7561298 calls)
     add_vuspsi   :     64.13s CPU     77.84s WALL ( 7561298 calls)

     General routines
     calbec       :    200.88s CPU    211.49s WALL (15987105 calls)
     fft          :      2.35s CPU      2.48s WALL (    9022 calls)
     ffts         :      6.49s CPU      6.59s WALL (   97080 calls)
     fftw         :   3387.91s CPU   3639.17s WALL (73236453 calls)
     interpolate  :      0.38s CPU      0.46s WALL (    1251 calls)
     davcio       :     27.37s CPU     57.44s WALL ( 3459414 calls)

     Parallel routines
     fft_scatter  :    886.40s CPU   1039.21s WALL (73342555 calls)

     PHONON       :     1h26m CPU        1h34m WALL

     INITIALIZATION: 
     phq_setup    :      0.79s CPU      0.80s WALL (      29 calls)
     phq_init     :     93.51s CPU     99.18s WALL (      29 calls)

     phq_init     :     93.51s CPU     99.18s WALL (      29 calls)
     init_vloc    :      0.07s CPU      0.07s WALL (      29 calls)
     init_us_1    :      2.72s CPU      2.74s WALL (      29 calls)
     newd         :      0.33s CPU      0.34s WALL (      29 calls)
     dvanqq       :      1.30s CPU      1.30s WALL (      29 calls)
     drho         :     72.57s CPU     77.31s WALL (      29 calls)

     DYNAMICAL MATRIX:
     dynmat0      :     11.90s CPU     12.31s WALL (      29 calls)
     phqscf       :   3856.55s CPU   4281.81s WALL (      29 calls)
     dynmatrix    :      0.03s CPU      0.04s WALL (      29 calls)

     phqscf       :   3856.55s CPU   4281.81s WALL (      29 calls)
     solve_linter :   3836.79s CPU   4261.11s WALL (      76 calls)
     drhodv       :     19.67s CPU     20.58s WALL (      76 calls)

     dynmat0      :     11.90s CPU     12.31s WALL (      29 calls)
     dynmat_us    :     11.86s CPU     12.27s WALL (      29 calls)
     d2ionq       :      0.02s CPU      0.03s WALL (      29 calls)

     dynmat_us    :     11.86s CPU     12.27s WALL (      29 calls)
     addusdynmat  :      0.00s CPU      0.00s WALL (      29 calls)

     phqscf       :   3856.55s CPU   4281.81s WALL (      29 calls)
     solve_linter :   3836.79s CPU   4261.11s WALL (      76 calls)

     solve_linter :   3836.79s CPU   4261.11s WALL (      76 calls)
     dvqpsi_us    :    112.58s CPU    123.23s WALL (   95049 calls)
     ortho        :     38.03s CPU     43.57s WALL (  646794 calls)
     cgsolve      :   2950.05s CPU   3253.54s WALL (  646794 calls)
     incdrhoscf   :    336.79s CPU    375.91s WALL (  646794 calls)
     addusddens   :     10.36s CPU     10.42s WALL (     574 calls)
     vpsifft      :    260.25s CPU    291.96s WALL (  551745 calls)
     dv_of_drho   :      2.72s CPU      2.81s WALL (     553 calls)
     mix_pot      :      0.36s CPU      0.68s WALL (     498 calls)
     ef_shift     :      0.01s CPU      0.01s WALL (       6 calls)
     localdos     :      0.06s CPU      0.06s WALL (       1 calls)
     psymdvscf    :      5.79s CPU      5.89s WALL (     429 calls)
     newdq        :      9.28s CPU      9.33s WALL (     498 calls)
     adddvscf     :     15.75s CPU     15.60s WALL (  551745 calls)
     drhodvus     :      0.02s CPU      0.02s WALL (      76 calls)

     dvqpsi_us    :    112.58s CPU    123.23s WALL (   95049 calls)
     dvqpsi_us_on :     21.08s CPU     21.10s WALL (   95049 calls)

     cgsolve      :   2950.05s CPU   3253.54s WALL (  646794 calls)
     ch_psi       :   2878.77s CPU   3178.50s WALL ( 6213712 calls)

     ch_psi       :   2878.77s CPU   3178.50s WALL ( 6213712 calls)
     h_psi        :   3304.92s CPU   3634.00s WALL ( 7561298 calls)
     last         :    222.71s CPU    245.48s WALL ( 6213712 calls)

     h_psi        :   3304.92s CPU   3634.00s WALL ( 7561298 calls)
     add_vuspsi   :     64.13s CPU     77.84s WALL ( 7561298 calls)

     incdrhoscf   :    336.79s CPU    375.91s WALL (  646794 calls)
     addusdbec    :     17.57s CPU     18.19s WALL (  741843 calls)

     drhodvus     :      0.02s CPU      0.02s WALL (      76 calls)

      General routines
     calbec       :    200.88s CPU    211.49s WALL (15987105 calls)
     fft          :      2.35s CPU      2.48s WALL (    9022 calls)
     ffts         :      6.49s CPU      6.59s WALL (   97080 calls)
     fftw         :   3387.91s CPU   3639.17s WALL (73236453 calls)
     davcio       :     27.37s CPU     57.44s WALL ( 3459414 calls)
     write_rec    :      0.41s CPU      0.79s WALL (     574 calls)


     PHONON       :     1h26m CPU        1h34m WALL


   This run was terminated on:  13:27: 2  21Dec2017            

=------------------------------------------------------------------------------=
   JOB DONE.
=------------------------------------------------------------------------------=
