
     Program PHONON v.6.1 (svn rev. 13369) starts on 21Dec2017 at 12:18: 6 

     This program is part of the open-source Quantum ESPRESSO suite
     for quantum simulation of materials; please cite
         "P. Giannozzi et al., J. Phys.:Condens. Matter 21 395502 (2009);
          URL http://www.quantum-espresso.org", 
     in publications or presentations arising from this work. More details at
     http://www.quantum-espresso.org/quote

     Parallel version (MPI), running on     4 processors
     R & G space division:  proc/nbgrp/npool/nimage =       4

     Reading data from directory:
     ./na.fcc.save

   Info: using nr1, nr2, nr3 values from input

   Info: using nr1, nr2, nr3 values from input

     IMPORTANT: XC functional enforced from input :
     Exchange-correlation      = SLA  PW   PBE  PBE ( 1  4  3  4 0 0)
     Any further DFT definition will be discarded
     Please, verify this is what you really want


     Parallelization info
     --------------------
     sticks:   dense  smooth     PW     G-vecs:    dense   smooth      PW
     Min         211     105     37                 4088     1441     301
     Max         212     106     38                 4091     1445     304
     Sum         847     421    151                16361     5769    1211



     Dynamical matrices for ( 8, 8, 8)  uniform grid of q-points
     (  29q-points):
       N         xq(1)         xq(2)         xq(3) 
       1   0.000000000   0.000000000   0.000000000
       2  -0.125000000   0.125000000  -0.125000000
       3  -0.250000000   0.250000000  -0.250000000
       4  -0.375000000   0.375000000  -0.375000000
       5   0.500000000  -0.500000000   0.500000000
       6   0.000000000   0.250000000   0.000000000
       7  -0.125000000   0.375000000  -0.125000000
       8  -0.250000000   0.500000000  -0.250000000
       9   0.625000000  -0.375000000   0.625000000
      10   0.500000000  -0.250000000   0.500000000
      11   0.375000000  -0.125000000   0.375000000
      12   0.250000000   0.000000000   0.250000000
      13   0.000000000   0.500000000   0.000000000
      14  -0.125000000   0.625000000  -0.125000000
      15   0.750000000  -0.250000000   0.750000000
      16   0.625000000  -0.125000000   0.625000000
      17   0.500000000   0.000000000   0.500000000
      18   0.000000000   0.750000000   0.000000000
      19   0.875000000  -0.125000000   0.875000000
      20   0.750000000   0.000000000   0.750000000
      21   0.000000000  -1.000000000   0.000000000
      22  -0.250000000   0.500000000   0.000000000
      23   0.625000000  -0.375000000   0.875000000
      24   0.500000000  -0.250000000   0.750000000
      25   0.750000000  -0.250000000   1.000000000
      26   0.625000000  -0.125000000   0.875000000
      27   0.500000000   0.000000000   0.750000000
      28  -0.250000000  -1.000000000   0.000000000
      29  -0.500000000  -1.000000000   0.000000000

     Calculation of q =    0.0000000   0.0000000   0.0000000

                                                                                

     bravais-lattice index     =            2
     lattice parameter (alat)  =       8.7602  a.u.
     unit-cell volume          =     168.0655 (a.u.)^3
     number of atoms/cell      =            1
     number of atomic types    =            1
     kinetic-energy cut-off    =      40.0000  Ry
     charge density cut-off    =     320.0000  Ry
     convergence threshold     =      1.0E-12
     beta                      =       0.7000
     number of iterations used =            4
     Exchange-correlation      = SLA  PW   PBE  PBE ( 1  4  3  4 0 0)


     celldm(1)=    8.76018  celldm(2)=    0.00000  celldm(3)=    0.00000
     celldm(4)=    0.00000  celldm(5)=    0.00000  celldm(6)=    0.00000

     crystal axes: (cart. coord. in units of alat)
               a(1) = ( -0.5000  0.0000  0.5000 )  
               a(2) = (  0.0000  0.5000  0.5000 )  
               a(3) = ( -0.5000  0.5000  0.0000 )  

     reciprocal axes: (cart. coord. in units 2 pi/alat)
               b(1) = ( -1.0000 -1.0000  1.0000 )  
               b(2) = (  1.0000  1.0000  1.0000 )  
               b(3) = ( -1.0000  1.0000 -1.0000 )  


     Atoms inside the unit cell: 

     Cartesian axes

     site n.  atom      mass           positions (alat units)
        1     Na  22.9900   tau(    1) = (    0.00000    0.00000    0.00000  )

     Computing dynamical matrix for 
                    q = (   0.0000000   0.0000000   0.0000000 )

     49 Sym.Ops. (with q -> -q+G )


     G cutoff =  622.0367  (   4091 G-vectors)     FFT grid: ( 36, 36, 36)
     G cutoff =  311.0183  (   1442 G-vectors)  smooth grid: ( 25, 25, 25)

     number of k points=   280  Marzari-Vanderbilt smearing, width (Ry)=  0.0200

     PseudoPot. # 1 for Na read from file:
     /home/s1333534/quantum_espresso/qe-6.1/pseudo/Na_pbe_v1.uspp.F.UPF
     MD5 check sum: 76a99c7e9422403d3e93cbc85ab7bccb
     Pseudo is Ultrasoft, Zval =  9.0
     Generated by new atomic code, or converted to UPF format
     Using radial grid of  819 points,  5 beta functions with: 
                l(1) =   0
                l(2) =   0
                l(3) =   1
                l(4) =   1
                l(5) =   2
     Q(r) pseudized with  8 coefficients,  rinner =    1.250   1.250   1.250
                                                       1.250   1.250

     Mode symmetry, O_h (m-3m)  point group:


     Atomic displacements:
     There are   1 irreducible representations

     Representation     1      3 modes -T_1u G_15  G_4-  To be done



     Alpha used in Ewald sum =   2.8000
     PHONON       :     1.79s CPU         1.87s WALL



     Representation #  1 modes #   1  2  3

     Self-consistent Calculation

     Pert. #  1: Fermi energy shift (Ry) =    -6.2039E-25     1.5673E-38
     Pert. #  2: Fermi energy shift (Ry) =    -6.8932E-26     2.3510E-38
     Pert. #  3: Fermi energy shift (Ry) =    -5.6869E-25     4.7020E-38

      iter #   1 total cpu time :     7.0 secs   av.it.:   5.4
      thresh= 1.000E-02 alpha_mix =  0.700 |ddv_scf|^2 =  2.564E-06

     Pert. #  1: Fermi energy shift (Ry) =    -1.3786E-25     2.6938E-39
     Pert. #  2: Fermi energy shift (Ry) =     1.3786E-25    -1.2245E-40
     Pert. #  3: Fermi energy shift (Ry) =     1.3097E-24    -4.8979E-40

      iter #   2 total cpu time :    12.9 secs   av.it.:   8.3
      thresh= 1.601E-04 alpha_mix =  0.700 |ddv_scf|^2 =  5.028E-08

     Pert. #  1: Fermi energy shift (Ry) =    -1.2063E-25    -3.0612E-40
     Pert. #  2: Fermi energy shift (Ry) =    -2.5849E-26     2.7551E-40
     Pert. #  3: Fermi energy shift (Ry) =     3.0158E-26    -9.1835E-41

      iter #   3 total cpu time :    18.9 secs   av.it.:   8.5
      thresh= 2.242E-05 alpha_mix =  0.700 |ddv_scf|^2 =  5.350E-10

     Pert. #  1: Fermi energy shift (Ry) =    -9.4781E-26     7.6530E-42
     Pert. #  2: Fermi energy shift (Ry) =    -3.0158E-26     1.9132E-42
     Pert. #  3: Fermi energy shift (Ry) =     0.0000E+00    -3.8265E-42

      iter #   4 total cpu time :    24.7 secs   av.it.:   7.9
      thresh= 2.313E-06 alpha_mix =  0.700 |ddv_scf|^2 =  1.871E-12

     Pert. #  1: Fermi energy shift (Ry) =     6.0315E-26    -7.6530E-42
     Pert. #  2: Fermi energy shift (Ry) =    -8.6165E-27     4.5918E-41
     Pert. #  3: Fermi energy shift (Ry) =    -4.3082E-27    -1.1479E-41

      iter #   5 total cpu time :    30.5 secs   av.it.:   8.2
      thresh= 1.368E-07 alpha_mix =  0.700 |ddv_scf|^2 =  7.807E-15

     End of self-consistent calculation

     Convergence has been achieved 

     Number of q in the star =    1
     List of q in the star:
          1   0.000000000   0.000000000   0.000000000

     Diagonalizing the dynamical matrix

     q = (    0.000000000   0.000000000   0.000000000 ) 

 **************************************************************************
     freq (    1) =       0.371657 [THz] =      12.397152 [cm-1]
     freq (    2) =       0.371657 [THz] =      12.397152 [cm-1]
     freq (    3) =       0.371657 [THz] =      12.397152 [cm-1]
 **************************************************************************

     Mode symmetry, O_h (m-3m)  point group:

     freq (  1 -  3) =         12.4  [cm-1]   --> T_1u G_15  G_4- I  

     Calculation of q =   -0.1250000   0.1250000  -0.1250000

   Info: using nr1, nr2, nr3 values from input

   Info: using nr1, nr2, nr3 values from input

     Parallelization info
     --------------------
     sticks:   dense  smooth     PW     G-vecs:    dense   smooth      PW
     Min         211     105     37                 4088     1441     309
     Max         212     106     38                 4091     1445     312
     Sum         847     421    151                16361     5769    1243



     bravais-lattice index     =            2
     lattice parameter (alat)  =       8.7602  a.u.
     unit-cell volume          =     168.0655 (a.u.)^3
     number of atoms/cell      =            1
     number of atomic types    =            1
     number of electrons       =         9.00
     number of Kohn-Sham states=            9
     kinetic-energy cutoff     =      40.0000  Ry
     charge density cutoff     =     320.0000  Ry
     Exchange-correlation      = SLA  PW   PBE  PBE ( 1  4  3  4 0 0)

     celldm(1)=   8.760177  celldm(2)=   0.000000  celldm(3)=   0.000000
     celldm(4)=   0.000000  celldm(5)=   0.000000  celldm(6)=   0.000000

     crystal axes: (cart. coord. in units of alat)
               a(1) = (  -0.500000   0.000000   0.500000 )  
               a(2) = (   0.000000   0.500000   0.500000 )  
               a(3) = (  -0.500000   0.500000   0.000000 )  

     reciprocal axes: (cart. coord. in units 2 pi/alat)
               b(1) = ( -1.000000 -1.000000  1.000000 )  
               b(2) = (  1.000000  1.000000  1.000000 )  
               b(3) = ( -1.000000  1.000000 -1.000000 )  


     PseudoPot. # 1 for Na read from file:
     /home/s1333534/quantum_espresso/qe-6.1/pseudo/Na_pbe_v1.uspp.F.UPF
     MD5 check sum: 76a99c7e9422403d3e93cbc85ab7bccb
     Pseudo is Ultrasoft, Zval =  9.0
     Generated by new atomic code, or converted to UPF format
     Using radial grid of  819 points,  5 beta functions with: 
                l(1) =   0
                l(2) =   0
                l(3) =   1
                l(4) =   1
                l(5) =   2
     Q(r) pseudized with  8 coefficients,  rinner =    1.250   1.250   1.250
                                                       1.250   1.250

     atomic species   valence    mass     pseudopotential
        Na             9.00    22.99000     Na( 1.00)

     48 Sym. Ops., with inversion, found



   Cartesian axes

     site n.     atom                  positions (alat units)
         1           Na  tau(   1) = (   0.0000000   0.0000000   0.0000000  )

     number of k points=  4060  Marzari-Vanderbilt smearing, width (Ry)=  0.0200

     Number of k-points >= 100: set verbosity='high' to print them.

     Dense  grid:    16361 G-vectors     FFT dimensions: (  36,  36,  36)

     Smooth grid:     5769 G-vectors     FFT dimensions: (  25,  25,  25)

     Estimated max dynamical RAM per process >       1.57MB

     Estimated total allocated dynamical RAM >       6.27MB

     The potential is recalculated from file :
     ./_ph0/na.fcc.save/charge-density.dat

     Starting wfc are    5 atomic +    4 random wfc

     Band Structure Calculation
     Davidson diagonalization with overlap

     ethr =  1.11E-10,  avg # of iterations = 17.2

     total cpu time spent up to now is       72.7 secs

     End of band structure calculation

     Number of k-points >= 100: set verbosity='high' to print the bands.

     the Fermi energy is     3.6682 ev

     Writing output data file na.fcc.save

                                                                                

     bravais-lattice index     =            2
     lattice parameter (alat)  =       8.7602  a.u.
     unit-cell volume          =     168.0655 (a.u.)^3
     number of atoms/cell      =            1
     number of atomic types    =            1
     kinetic-energy cut-off    =      40.0000  Ry
     charge density cut-off    =     320.0000  Ry
     convergence threshold     =      1.0E-12
     beta                      =       0.7000
     number of iterations used =            4
     Exchange-correlation      = SLA  PW   PBE  PBE ( 1  4  3  4 0 0)


     celldm(1)=    8.76018  celldm(2)=    0.00000  celldm(3)=    0.00000
     celldm(4)=    0.00000  celldm(5)=    0.00000  celldm(6)=    0.00000

     crystal axes: (cart. coord. in units of alat)
               a(1) = ( -0.5000  0.0000  0.5000 )  
               a(2) = (  0.0000  0.5000  0.5000 )  
               a(3) = ( -0.5000  0.5000  0.0000 )  

     reciprocal axes: (cart. coord. in units 2 pi/alat)
               b(1) = ( -1.0000 -1.0000  1.0000 )  
               b(2) = (  1.0000  1.0000  1.0000 )  
               b(3) = ( -1.0000  1.0000 -1.0000 )  


     Atoms inside the unit cell: 

     Cartesian axes

     site n.  atom      mass           positions (alat units)
        1     Na  22.9900   tau(    1) = (    0.00000    0.00000    0.00000  )

     Computing dynamical matrix for 
                    q = (  -0.1250000   0.1250000  -0.1250000 )

      6 Sym.Ops. (no q -> -q+G )


     G cutoff =  622.0367  (   4088 G-vectors)     FFT grid: ( 36, 36, 36)
     G cutoff =  311.0183  (   1442 G-vectors)  smooth grid: ( 25, 25, 25)

     number of k points=  4060  Marzari-Vanderbilt smearing, width (Ry)=  0.0200

     PseudoPot. # 1 for Na read from file:
     /home/s1333534/quantum_espresso/qe-6.1/pseudo/Na_pbe_v1.uspp.F.UPF
     MD5 check sum: 76a99c7e9422403d3e93cbc85ab7bccb
     Pseudo is Ultrasoft, Zval =  9.0
     Generated by new atomic code, or converted to UPF format
     Using radial grid of  819 points,  5 beta functions with: 
                l(1) =   0
                l(2) =   0
                l(3) =   1
                l(4) =   1
                l(5) =   2
     Q(r) pseudized with  8 coefficients,  rinner =    1.250   1.250   1.250
                                                       1.250   1.250

     Mode symmetry, C_3v (3m)   point group:


     Atomic displacements:
     There are   2 irreducible representations

     Representation     1      1 modes -A_1  L_1  To be done

     Representation     2      2 modes -E    L_3  To be done



     Alpha used in Ewald sum =   2.8000
     PHONON       :  1m44.58s CPU     1m52.13s WALL



     Representation #  1 mode #   1

     Self-consistent Calculation

      iter #   1 total cpu time :   124.3 secs   av.it.:   5.7
      thresh= 1.000E-02 alpha_mix =  0.700 |ddv_scf|^2 =  4.269E-01

      iter #   2 total cpu time :   136.9 secs   av.it.:   7.2
      thresh= 1.000E-02 alpha_mix =  0.700 |ddv_scf|^2 =  2.030E+02

      iter #   3 total cpu time :   150.1 secs   av.it.:   7.2
      thresh= 1.000E-02 alpha_mix =  0.700 |ddv_scf|^2 =  5.842E-04

      iter #   4 total cpu time :   159.6 secs   av.it.:   5.0
      thresh= 2.417E-03 alpha_mix =  0.700 |ddv_scf|^2 =  5.380E-07

      iter #   5 total cpu time :   171.8 secs   av.it.:   7.0
      thresh= 7.335E-05 alpha_mix =  0.700 |ddv_scf|^2 =  1.474E-08

      iter #   6 total cpu time :   183.5 secs   av.it.:   6.6
      thresh= 1.214E-05 alpha_mix =  0.700 |ddv_scf|^2 =  1.043E-06

      iter #   7 total cpu time :   192.2 secs   av.it.:   4.2
      thresh= 1.021E-04 alpha_mix =  0.700 |ddv_scf|^2 =  1.161E-10

      iter #   8 total cpu time :   205.2 secs   av.it.:   7.6
      thresh= 1.077E-06 alpha_mix =  0.700 |ddv_scf|^2 =  2.067E-11

      iter #   9 total cpu time :   218.0 secs   av.it.:   7.1
      thresh= 4.547E-07 alpha_mix =  0.700 |ddv_scf|^2 =  5.401E-13

     End of self-consistent calculation

     Convergence has been achieved 


     Representation #  2 modes #   2  3

     Self-consistent Calculation

      iter #   1 total cpu time :   242.7 secs   av.it.:   5.5
      thresh= 1.000E-02 alpha_mix =  0.700 |ddv_scf|^2 =  5.832E-06

      iter #   2 total cpu time :   270.7 secs   av.it.:   8.3
      thresh= 2.415E-04 alpha_mix =  0.700 |ddv_scf|^2 =  1.125E-07

      iter #   3 total cpu time :   298.6 secs   av.it.:   8.4
      thresh= 3.354E-05 alpha_mix =  0.700 |ddv_scf|^2 =  1.325E-09

      iter #   4 total cpu time :   325.8 secs   av.it.:   8.0
      thresh= 3.639E-06 alpha_mix =  0.700 |ddv_scf|^2 =  4.632E-12

      iter #   5 total cpu time :   353.7 secs   av.it.:   8.2
      thresh= 2.152E-07 alpha_mix =  0.700 |ddv_scf|^2 =  1.728E-14

     End of self-consistent calculation

     Convergence has been achieved 

     Number of q in the star =    8
     List of q in the star:
          1  -0.125000000   0.125000000  -0.125000000
          2   0.125000000  -0.125000000  -0.125000000
          3   0.125000000  -0.125000000   0.125000000
          4  -0.125000000   0.125000000   0.125000000
          5   0.125000000   0.125000000  -0.125000000
          6  -0.125000000  -0.125000000  -0.125000000
          7  -0.125000000  -0.125000000   0.125000000
          8   0.125000000   0.125000000   0.125000000

     Diagonalizing the dynamical matrix

     q = (   -0.125000000   0.125000000  -0.125000000 ) 

 **************************************************************************
     freq (    1) =       0.762491 [THz] =      25.433954 [cm-1]
     freq (    2) =       0.762491 [THz] =      25.433954 [cm-1]
     freq (    3) =       2.713993 [THz] =      90.529060 [cm-1]
 **************************************************************************

     Mode symmetry, C_3v (3m)   point group:

     freq (  1 -  2) =         25.4  [cm-1]   --> E    L_3           
     freq (  3 -  3) =         90.5  [cm-1]   --> A_1  L_1           

     Calculation of q =   -0.2500000   0.2500000  -0.2500000

   Info: using nr1, nr2, nr3 values from input

   Info: using nr1, nr2, nr3 values from input

     Parallelization info
     --------------------
     sticks:   dense  smooth     PW     G-vecs:    dense   smooth      PW
     Min         211     105     40                 4088     1441     322
     Max         212     106     42                 4091     1445     323
     Sum         847     421    163                16361     5769    1291



     bravais-lattice index     =            2
     lattice parameter (alat)  =       8.7602  a.u.
     unit-cell volume          =     168.0655 (a.u.)^3
     number of atoms/cell      =            1
     number of atomic types    =            1
     number of electrons       =         9.00
     number of Kohn-Sham states=            9
     kinetic-energy cutoff     =      40.0000  Ry
     charge density cutoff     =     320.0000  Ry
     Exchange-correlation      = SLA  PW   PBE  PBE ( 1  4  3  4 0 0)

     celldm(1)=   8.760177  celldm(2)=   0.000000  celldm(3)=   0.000000
     celldm(4)=   0.000000  celldm(5)=   0.000000  celldm(6)=   0.000000

     crystal axes: (cart. coord. in units of alat)
               a(1) = (  -0.500000   0.000000   0.500000 )  
               a(2) = (   0.000000   0.500000   0.500000 )  
               a(3) = (  -0.500000   0.500000   0.000000 )  

     reciprocal axes: (cart. coord. in units 2 pi/alat)
               b(1) = ( -1.000000 -1.000000  1.000000 )  
               b(2) = (  1.000000  1.000000  1.000000 )  
               b(3) = ( -1.000000  1.000000 -1.000000 )  


     PseudoPot. # 1 for Na read from file:
     /home/s1333534/quantum_espresso/qe-6.1/pseudo/Na_pbe_v1.uspp.F.UPF
     MD5 check sum: 76a99c7e9422403d3e93cbc85ab7bccb
     Pseudo is Ultrasoft, Zval =  9.0
     Generated by new atomic code, or converted to UPF format
     Using radial grid of  819 points,  5 beta functions with: 
                l(1) =   0
                l(2) =   0
                l(3) =   1
                l(4) =   1
                l(5) =   2
     Q(r) pseudized with  8 coefficients,  rinner =    1.250   1.250   1.250
                                                       1.250   1.250

     atomic species   valence    mass     pseudopotential
        Na             9.00    22.99000     Na( 1.00)

     48 Sym. Ops., with inversion, found



   Cartesian axes

     site n.     atom                  positions (alat units)
         1           Na  tau(   1) = (   0.0000000   0.0000000   0.0000000  )

     number of k points=  4060  Marzari-Vanderbilt smearing, width (Ry)=  0.0200

     Number of k-points >= 100: set verbosity='high' to print them.

     Dense  grid:    16361 G-vectors     FFT dimensions: (  36,  36,  36)

     Smooth grid:     5769 G-vectors     FFT dimensions: (  25,  25,  25)

     Estimated max dynamical RAM per process >       1.57MB

     Estimated total allocated dynamical RAM >       6.27MB

     The potential is recalculated from file :
     ./_ph0/na.fcc.save/charge-density.dat

     Starting wfc are    5 atomic +    4 random wfc

     Band Structure Calculation
     Davidson diagonalization with overlap

     ethr =  1.11E-10,  avg # of iterations = 17.2

     total cpu time spent up to now is      148.9 secs

     End of band structure calculation

     Number of k-points >= 100: set verbosity='high' to print the bands.

     the Fermi energy is     3.6682 ev

     Writing output data file na.fcc.save

                                                                                

     bravais-lattice index     =            2
     lattice parameter (alat)  =       8.7602  a.u.
     unit-cell volume          =     168.0655 (a.u.)^3
     number of atoms/cell      =            1
     number of atomic types    =            1
     kinetic-energy cut-off    =      40.0000  Ry
     charge density cut-off    =     320.0000  Ry
     convergence threshold     =      1.0E-12
     beta                      =       0.7000
     number of iterations used =            4
     Exchange-correlation      = SLA  PW   PBE  PBE ( 1  4  3  4 0 0)


     celldm(1)=    8.76018  celldm(2)=    0.00000  celldm(3)=    0.00000
     celldm(4)=    0.00000  celldm(5)=    0.00000  celldm(6)=    0.00000

     crystal axes: (cart. coord. in units of alat)
               a(1) = ( -0.5000  0.0000  0.5000 )  
               a(2) = (  0.0000  0.5000  0.5000 )  
               a(3) = ( -0.5000  0.5000  0.0000 )  

     reciprocal axes: (cart. coord. in units 2 pi/alat)
               b(1) = ( -1.0000 -1.0000  1.0000 )  
               b(2) = (  1.0000  1.0000  1.0000 )  
               b(3) = ( -1.0000  1.0000 -1.0000 )  


     Atoms inside the unit cell: 

     Cartesian axes

     site n.  atom      mass           positions (alat units)
        1     Na  22.9900   tau(    1) = (    0.00000    0.00000    0.00000  )

     Computing dynamical matrix for 
                    q = (  -0.2500000   0.2500000  -0.2500000 )

      6 Sym.Ops. (no q -> -q+G )


     G cutoff =  622.0367  (   4088 G-vectors)     FFT grid: ( 36, 36, 36)
     G cutoff =  311.0183  (   1442 G-vectors)  smooth grid: ( 25, 25, 25)

     number of k points=  4060  Marzari-Vanderbilt smearing, width (Ry)=  0.0200

     PseudoPot. # 1 for Na read from file:
     /home/s1333534/quantum_espresso/qe-6.1/pseudo/Na_pbe_v1.uspp.F.UPF
     MD5 check sum: 76a99c7e9422403d3e93cbc85ab7bccb
     Pseudo is Ultrasoft, Zval =  9.0
     Generated by new atomic code, or converted to UPF format
     Using radial grid of  819 points,  5 beta functions with: 
                l(1) =   0
                l(2) =   0
                l(3) =   1
                l(4) =   1
                l(5) =   2
     Q(r) pseudized with  8 coefficients,  rinner =    1.250   1.250   1.250
                                                       1.250   1.250

     Mode symmetry, C_3v (3m)   point group:


     Atomic displacements:
     There are   2 irreducible representations

     Representation     1      1 modes -A_1  L_1  To be done

     Representation     2      2 modes -E    L_3  To be done



     Alpha used in Ewald sum =   2.8000
     PHONON       :  6m38.09s CPU     7m16.45s WALL



     Representation #  1 mode #   1

     Self-consistent Calculation

      iter #   1 total cpu time :   448.8 secs   av.it.:   5.7
      thresh= 1.000E-02 alpha_mix =  0.700 |ddv_scf|^2 =  6.778E-03

      iter #   2 total cpu time :   460.3 secs   av.it.:   6.2
      thresh= 8.233E-03 alpha_mix =  0.700 |ddv_scf|^2 =  1.555E-01

      iter #   3 total cpu time :   472.4 secs   av.it.:   6.0
      thresh= 1.000E-02 alpha_mix =  0.700 |ddv_scf|^2 =  5.322E-06

      iter #   4 total cpu time :   485.0 secs   av.it.:   7.2
      thresh= 2.307E-04 alpha_mix =  0.700 |ddv_scf|^2 =  1.886E-08

      iter #   5 total cpu time :   498.7 secs   av.it.:   8.0
      thresh= 1.373E-05 alpha_mix =  0.700 |ddv_scf|^2 =  3.556E-09

      iter #   6 total cpu time :   512.1 secs   av.it.:   7.5
      thresh= 5.963E-06 alpha_mix =  0.700 |ddv_scf|^2 =  4.003E-11

      iter #   7 total cpu time :   525.5 secs   av.it.:   7.6
      thresh= 6.327E-07 alpha_mix =  0.700 |ddv_scf|^2 =  5.558E-12

      iter #   8 total cpu time :   538.1 secs   av.it.:   7.2
      thresh= 2.357E-07 alpha_mix =  0.700 |ddv_scf|^2 =  6.245E-14

     End of self-consistent calculation

     Convergence has been achieved 


     Representation #  2 modes #   2  3

     Self-consistent Calculation

      iter #   1 total cpu time :   562.9 secs   av.it.:   5.6
      thresh= 1.000E-02 alpha_mix =  0.700 |ddv_scf|^2 =  5.978E-06

      iter #   2 total cpu time :   590.9 secs   av.it.:   8.3
      thresh= 2.445E-04 alpha_mix =  0.700 |ddv_scf|^2 =  1.114E-07

      iter #   3 total cpu time :   619.5 secs   av.it.:   8.4
      thresh= 3.337E-05 alpha_mix =  0.700 |ddv_scf|^2 =  1.600E-09

      iter #   4 total cpu time :   647.5 secs   av.it.:   8.0
      thresh= 4.000E-06 alpha_mix =  0.700 |ddv_scf|^2 =  5.647E-12

      iter #   5 total cpu time :   677.2 secs   av.it.:   8.3
      thresh= 2.376E-07 alpha_mix =  0.700 |ddv_scf|^2 =  1.672E-14

     End of self-consistent calculation

     Convergence has been achieved 

     Number of q in the star =    8
     List of q in the star:
          1  -0.250000000   0.250000000  -0.250000000
          2   0.250000000  -0.250000000  -0.250000000
          3   0.250000000  -0.250000000   0.250000000
          4  -0.250000000   0.250000000   0.250000000
          5   0.250000000   0.250000000  -0.250000000
          6  -0.250000000  -0.250000000  -0.250000000
          7  -0.250000000  -0.250000000   0.250000000
          8   0.250000000   0.250000000   0.250000000

     Diagonalizing the dynamical matrix

     q = (   -0.250000000   0.250000000  -0.250000000 ) 

 **************************************************************************
     freq (    1) =       1.433262 [THz] =      47.808472 [cm-1]
     freq (    2) =       1.433262 [THz] =      47.808472 [cm-1]
     freq (    3) =       4.607259 [THz] =     153.681610 [cm-1]
 **************************************************************************

     Mode symmetry, C_3v (3m)   point group:

     freq (  1 -  2) =         47.8  [cm-1]   --> E    L_3           
     freq (  3 -  3) =        153.7  [cm-1]   --> A_1  L_1           

     Calculation of q =   -0.3750000   0.3750000  -0.3750000

   Info: using nr1, nr2, nr3 values from input

   Info: using nr1, nr2, nr3 values from input

     Parallelization info
     --------------------
     sticks:   dense  smooth     PW     G-vecs:    dense   smooth      PW
     Min         211     105     40                 4088     1441     340
     Max         212     106     41                 4091     1445     342
     Sum         847     421    163                16361     5769    1363



     bravais-lattice index     =            2
     lattice parameter (alat)  =       8.7602  a.u.
     unit-cell volume          =     168.0655 (a.u.)^3
     number of atoms/cell      =            1
     number of atomic types    =            1
     number of electrons       =         9.00
     number of Kohn-Sham states=            9
     kinetic-energy cutoff     =      40.0000  Ry
     charge density cutoff     =     320.0000  Ry
     Exchange-correlation      = SLA  PW   PBE  PBE ( 1  4  3  4 0 0)

     celldm(1)=   8.760177  celldm(2)=   0.000000  celldm(3)=   0.000000
     celldm(4)=   0.000000  celldm(5)=   0.000000  celldm(6)=   0.000000

     crystal axes: (cart. coord. in units of alat)
               a(1) = (  -0.500000   0.000000   0.500000 )  
               a(2) = (   0.000000   0.500000   0.500000 )  
               a(3) = (  -0.500000   0.500000   0.000000 )  

     reciprocal axes: (cart. coord. in units 2 pi/alat)
               b(1) = ( -1.000000 -1.000000  1.000000 )  
               b(2) = (  1.000000  1.000000  1.000000 )  
               b(3) = ( -1.000000  1.000000 -1.000000 )  


     PseudoPot. # 1 for Na read from file:
     /home/s1333534/quantum_espresso/qe-6.1/pseudo/Na_pbe_v1.uspp.F.UPF
     MD5 check sum: 76a99c7e9422403d3e93cbc85ab7bccb
     Pseudo is Ultrasoft, Zval =  9.0
     Generated by new atomic code, or converted to UPF format
     Using radial grid of  819 points,  5 beta functions with: 
                l(1) =   0
                l(2) =   0
                l(3) =   1
                l(4) =   1
                l(5) =   2
     Q(r) pseudized with  8 coefficients,  rinner =    1.250   1.250   1.250
                                                       1.250   1.250

     atomic species   valence    mass     pseudopotential
        Na             9.00    22.99000     Na( 1.00)

     48 Sym. Ops., with inversion, found



   Cartesian axes

     site n.     atom                  positions (alat units)
         1           Na  tau(   1) = (   0.0000000   0.0000000   0.0000000  )

     number of k points=  4060  Marzari-Vanderbilt smearing, width (Ry)=  0.0200

     Number of k-points >= 100: set verbosity='high' to print them.

     Dense  grid:    16361 G-vectors     FFT dimensions: (  36,  36,  36)

     Smooth grid:     5769 G-vectors     FFT dimensions: (  25,  25,  25)

     Estimated max dynamical RAM per process >       1.57MB

     Estimated total allocated dynamical RAM >       6.27MB

     The potential is recalculated from file :
     ./_ph0/na.fcc.save/charge-density.dat

     Starting wfc are    5 atomic +    4 random wfc

     Band Structure Calculation
     Davidson diagonalization with overlap

     ethr =  1.11E-10,  avg # of iterations = 17.2

     total cpu time spent up to now is      225.0 secs

     End of band structure calculation

     Number of k-points >= 100: set verbosity='high' to print the bands.

     the Fermi energy is     3.6682 ev

     Writing output data file na.fcc.save

                                                                                

     bravais-lattice index     =            2
     lattice parameter (alat)  =       8.7602  a.u.
     unit-cell volume          =     168.0655 (a.u.)^3
     number of atoms/cell      =            1
     number of atomic types    =            1
     kinetic-energy cut-off    =      40.0000  Ry
     charge density cut-off    =     320.0000  Ry
     convergence threshold     =      1.0E-12
     beta                      =       0.7000
     number of iterations used =            4
     Exchange-correlation      = SLA  PW   PBE  PBE ( 1  4  3  4 0 0)


     celldm(1)=    8.76018  celldm(2)=    0.00000  celldm(3)=    0.00000
     celldm(4)=    0.00000  celldm(5)=    0.00000  celldm(6)=    0.00000

     crystal axes: (cart. coord. in units of alat)
               a(1) = ( -0.5000  0.0000  0.5000 )  
               a(2) = (  0.0000  0.5000  0.5000 )  
               a(3) = ( -0.5000  0.5000  0.0000 )  

     reciprocal axes: (cart. coord. in units 2 pi/alat)
               b(1) = ( -1.0000 -1.0000  1.0000 )  
               b(2) = (  1.0000  1.0000  1.0000 )  
               b(3) = ( -1.0000  1.0000 -1.0000 )  


     Atoms inside the unit cell: 

     Cartesian axes

     site n.  atom      mass           positions (alat units)
        1     Na  22.9900   tau(    1) = (    0.00000    0.00000    0.00000  )

     Computing dynamical matrix for 
                    q = (  -0.3750000   0.3750000  -0.3750000 )

      6 Sym.Ops. (no q -> -q+G )


     G cutoff =  622.0367  (   4088 G-vectors)     FFT grid: ( 36, 36, 36)
     G cutoff =  311.0183  (   1445 G-vectors)  smooth grid: ( 25, 25, 25)

     number of k points=  4060  Marzari-Vanderbilt smearing, width (Ry)=  0.0200

     PseudoPot. # 1 for Na read from file:
     /home/s1333534/quantum_espresso/qe-6.1/pseudo/Na_pbe_v1.uspp.F.UPF
     MD5 check sum: 76a99c7e9422403d3e93cbc85ab7bccb
     Pseudo is Ultrasoft, Zval =  9.0
     Generated by new atomic code, or converted to UPF format
     Using radial grid of  819 points,  5 beta functions with: 
                l(1) =   0
                l(2) =   0
                l(3) =   1
                l(4) =   1
                l(5) =   2
     Q(r) pseudized with  8 coefficients,  rinner =    1.250   1.250   1.250
                                                       1.250   1.250

     Mode symmetry, C_3v (3m)   point group:


     Atomic displacements:
     There are   2 irreducible representations

     Representation     1      1 modes -A_1  L_1  To be done

     Representation     2      2 modes -E    L_3  To be done



     Alpha used in Ewald sum =   2.8000
     PHONON       : 11m30.96s CPU    12m39.89s WALL



     Representation #  1 mode #   1

     Self-consistent Calculation

      iter #   1 total cpu time :   772.3 secs   av.it.:   5.8
      thresh= 1.000E-02 alpha_mix =  0.700 |ddv_scf|^2 =  6.943E-04

      iter #   2 total cpu time :   784.3 secs   av.it.:   6.6
      thresh= 2.635E-03 alpha_mix =  0.700 |ddv_scf|^2 =  2.051E-03

      iter #   3 total cpu time :   796.1 secs   av.it.:   6.1
      thresh= 4.528E-03 alpha_mix =  0.700 |ddv_scf|^2 =  8.635E-07

      iter #   4 total cpu time :   809.4 secs   av.it.:   7.7
      thresh= 9.292E-05 alpha_mix =  0.700 |ddv_scf|^2 =  2.140E-08

      iter #   5 total cpu time :   823.3 secs   av.it.:   8.1
      thresh= 1.463E-05 alpha_mix =  0.700 |ddv_scf|^2 =  9.224E-10

      iter #   6 total cpu time :   836.9 secs   av.it.:   7.9
      thresh= 3.037E-06 alpha_mix =  0.700 |ddv_scf|^2 =  3.439E-11

      iter #   7 total cpu time :   850.0 secs   av.it.:   7.5
      thresh= 5.864E-07 alpha_mix =  0.700 |ddv_scf|^2 =  1.970E-12

      iter #   8 total cpu time :   863.5 secs   av.it.:   7.7
      thresh= 1.404E-07 alpha_mix =  0.700 |ddv_scf|^2 =  8.707E-15

     End of self-consistent calculation

     Convergence has been achieved 


     Representation #  2 modes #   2  3

     Self-consistent Calculation

      iter #   1 total cpu time :   888.5 secs   av.it.:   5.6
      thresh= 1.000E-02 alpha_mix =  0.700 |ddv_scf|^2 =  6.117E-06

      iter #   2 total cpu time :   917.0 secs   av.it.:   8.3
      thresh= 2.473E-04 alpha_mix =  0.700 |ddv_scf|^2 =  1.105E-07

      iter #   3 total cpu time :   945.9 secs   av.it.:   8.4
      thresh= 3.324E-05 alpha_mix =  0.700 |ddv_scf|^2 =  1.841E-09

      iter #   4 total cpu time :   973.4 secs   av.it.:   8.0
      thresh= 4.291E-06 alpha_mix =  0.700 |ddv_scf|^2 =  6.544E-12

      iter #   5 total cpu time :  1001.7 secs   av.it.:   8.3
      thresh= 2.558E-07 alpha_mix =  0.700 |ddv_scf|^2 =  1.654E-14

     End of self-consistent calculation

     Convergence has been achieved 

     Number of q in the star =    8
     List of q in the star:
          1  -0.375000000   0.375000000  -0.375000000
          2   0.375000000  -0.375000000  -0.375000000
          3   0.375000000  -0.375000000   0.375000000
          4  -0.375000000   0.375000000   0.375000000
          5   0.375000000   0.375000000  -0.375000000
          6  -0.375000000  -0.375000000  -0.375000000
          7  -0.375000000  -0.375000000   0.375000000
          8   0.375000000   0.375000000   0.375000000

     Diagonalizing the dynamical matrix

     q = (   -0.375000000   0.375000000  -0.375000000 ) 

 **************************************************************************
     freq (    1) =       1.912950 [THz] =      63.809147 [cm-1]
     freq (    2) =       1.912950 [THz] =      63.809147 [cm-1]
     freq (    3) =       6.074478 [THz] =     202.622764 [cm-1]
 **************************************************************************

     Mode symmetry, C_3v (3m)   point group:

     freq (  1 -  2) =         63.8  [cm-1]   --> E    L_3           
     freq (  3 -  3) =        202.6  [cm-1]   --> A_1  L_1           

     Calculation of q =    0.5000000  -0.5000000   0.5000000

   Info: using nr1, nr2, nr3 values from input

   Info: using nr1, nr2, nr3 values from input

     Parallelization info
     --------------------
     sticks:   dense  smooth     PW     G-vecs:    dense   smooth      PW
     Min         211     105     40                 4088     1441     362
     Max         212     106     41                 4091     1445     366
     Sum         847     421    163                16361     5769    1459



     bravais-lattice index     =            2
     lattice parameter (alat)  =       8.7602  a.u.
     unit-cell volume          =     168.0655 (a.u.)^3
     number of atoms/cell      =            1
     number of atomic types    =            1
     number of electrons       =         9.00
     number of Kohn-Sham states=            9
     kinetic-energy cutoff     =      40.0000  Ry
     charge density cutoff     =     320.0000  Ry
     Exchange-correlation      = SLA  PW   PBE  PBE ( 1  4  3  4 0 0)

     celldm(1)=   8.760177  celldm(2)=   0.000000  celldm(3)=   0.000000
     celldm(4)=   0.000000  celldm(5)=   0.000000  celldm(6)=   0.000000

     crystal axes: (cart. coord. in units of alat)
               a(1) = (  -0.500000   0.000000   0.500000 )  
               a(2) = (   0.000000   0.500000   0.500000 )  
               a(3) = (  -0.500000   0.500000   0.000000 )  

     reciprocal axes: (cart. coord. in units 2 pi/alat)
               b(1) = ( -1.000000 -1.000000  1.000000 )  
               b(2) = (  1.000000  1.000000  1.000000 )  
               b(3) = ( -1.000000  1.000000 -1.000000 )  


     PseudoPot. # 1 for Na read from file:
     /home/s1333534/quantum_espresso/qe-6.1/pseudo/Na_pbe_v1.uspp.F.UPF
     MD5 check sum: 76a99c7e9422403d3e93cbc85ab7bccb
     Pseudo is Ultrasoft, Zval =  9.0
     Generated by new atomic code, or converted to UPF format
     Using radial grid of  819 points,  5 beta functions with: 
                l(1) =   0
                l(2) =   0
                l(3) =   1
                l(4) =   1
                l(5) =   2
     Q(r) pseudized with  8 coefficients,  rinner =    1.250   1.250   1.250
                                                       1.250   1.250

     atomic species   valence    mass     pseudopotential
        Na             9.00    22.99000     Na( 1.00)

     48 Sym. Ops., with inversion, found



   Cartesian axes

     site n.     atom                  positions (alat units)
         1           Na  tau(   1) = (   0.0000000   0.0000000   0.0000000  )

     number of k points=  2030  Marzari-Vanderbilt smearing, width (Ry)=  0.0200

     Number of k-points >= 100: set verbosity='high' to print them.

     Dense  grid:    16361 G-vectors     FFT dimensions: (  36,  36,  36)

     Smooth grid:     5769 G-vectors     FFT dimensions: (  25,  25,  25)

     Estimated max dynamical RAM per process >       1.57MB

     Estimated total allocated dynamical RAM >       6.27MB

     The potential is recalculated from file :
     ./_ph0/na.fcc.save/charge-density.dat

     Starting wfc are    5 atomic +    4 random wfc

     Band Structure Calculation
     Davidson diagonalization with overlap

     ethr =  1.11E-10,  avg # of iterations = 17.3

     total cpu time spent up to now is      264.9 secs

     End of band structure calculation

     Number of k-points >= 100: set verbosity='high' to print the bands.

     the Fermi energy is     3.6682 ev

     Writing output data file na.fcc.save

                                                                                

     bravais-lattice index     =            2
     lattice parameter (alat)  =       8.7602  a.u.
     unit-cell volume          =     168.0655 (a.u.)^3
     number of atoms/cell      =            1
     number of atomic types    =            1
     kinetic-energy cut-off    =      40.0000  Ry
     charge density cut-off    =     320.0000  Ry
     convergence threshold     =      1.0E-12
     beta                      =       0.7000
     number of iterations used =            4
     Exchange-correlation      = SLA  PW   PBE  PBE ( 1  4  3  4 0 0)


     celldm(1)=    8.76018  celldm(2)=    0.00000  celldm(3)=    0.00000
     celldm(4)=    0.00000  celldm(5)=    0.00000  celldm(6)=    0.00000

     crystal axes: (cart. coord. in units of alat)
               a(1) = ( -0.5000  0.0000  0.5000 )  
               a(2) = (  0.0000  0.5000  0.5000 )  
               a(3) = ( -0.5000  0.5000  0.0000 )  

     reciprocal axes: (cart. coord. in units 2 pi/alat)
               b(1) = ( -1.0000 -1.0000  1.0000 )  
               b(2) = (  1.0000  1.0000  1.0000 )  
               b(3) = ( -1.0000  1.0000 -1.0000 )  


     Atoms inside the unit cell: 

     Cartesian axes

     site n.  atom      mass           positions (alat units)
        1     Na  22.9900   tau(    1) = (    0.00000    0.00000    0.00000  )

     Computing dynamical matrix for 
                    q = (   0.5000000  -0.5000000   0.5000000 )

     13 Sym.Ops. (with q -> -q+G )


     G cutoff =  622.0367  (   4088 G-vectors)     FFT grid: ( 36, 36, 36)
     G cutoff =  311.0183  (   1442 G-vectors)  smooth grid: ( 25, 25, 25)

     number of k points=  2030  Marzari-Vanderbilt smearing, width (Ry)=  0.0200

     PseudoPot. # 1 for Na read from file:
     /home/s1333534/quantum_espresso/qe-6.1/pseudo/Na_pbe_v1.uspp.F.UPF
     MD5 check sum: 76a99c7e9422403d3e93cbc85ab7bccb
     Pseudo is Ultrasoft, Zval =  9.0
     Generated by new atomic code, or converted to UPF format
     Using radial grid of  819 points,  5 beta functions with: 
                l(1) =   0
                l(2) =   0
                l(3) =   1
                l(4) =   1
                l(5) =   2
     Q(r) pseudized with  8 coefficients,  rinner =    1.250   1.250   1.250
                                                       1.250   1.250

     Mode symmetry, D_3d (-3m)  point group:


     Atomic displacements:
     There are   2 irreducible representations

     Representation     1      1 modes -A_2u L_2'  To be done

     Representation     2      2 modes -E_u  L_3'  To be done



     Alpha used in Ewald sum =   2.8000
     PHONON       : 15m47.43s CPU    17m23.84s WALL



     Representation #  1 mode #   1

     Self-consistent Calculation

      iter #   1 total cpu time :  1050.1 secs   av.it.:   5.8
      thresh= 1.000E-02 alpha_mix =  0.700 |ddv_scf|^2 =  2.649E-04

      iter #   2 total cpu time :  1056.1 secs   av.it.:   6.7
      thresh= 1.627E-03 alpha_mix =  0.700 |ddv_scf|^2 =  1.509E-04

      iter #   3 total cpu time :  1062.1 secs   av.it.:   6.6
      thresh= 1.228E-03 alpha_mix =  0.700 |ddv_scf|^2 =  1.544E-07

      iter #   4 total cpu time :  1068.9 secs   av.it.:   7.7
      thresh= 3.930E-05 alpha_mix =  0.700 |ddv_scf|^2 =  5.781E-10

      iter #   5 total cpu time :  1074.9 secs   av.it.:   6.7
      thresh= 2.404E-06 alpha_mix =  0.700 |ddv_scf|^2 =  1.420E-11

      iter #   6 total cpu time :  1081.0 secs   av.it.:   6.3
      thresh= 3.769E-07 alpha_mix =  0.700 |ddv_scf|^2 =  2.669E-14

     End of self-consistent calculation

     Convergence has been achieved 


     Representation #  2 modes #   2  3

     Self-consistent Calculation

      iter #   1 total cpu time :  1093.1 secs   av.it.:   5.5
      thresh= 1.000E-02 alpha_mix =  0.700 |ddv_scf|^2 =  6.171E-06

      iter #   2 total cpu time :  1106.9 secs   av.it.:   8.2
      thresh= 2.484E-04 alpha_mix =  0.700 |ddv_scf|^2 =  1.104E-07

      iter #   3 total cpu time :  1121.4 secs   av.it.:   8.3
      thresh= 3.323E-05 alpha_mix =  0.700 |ddv_scf|^2 =  1.936E-09

      iter #   4 total cpu time :  1134.8 secs   av.it.:   7.7
      thresh= 4.400E-06 alpha_mix =  0.700 |ddv_scf|^2 =  6.831E-12

      iter #   5 total cpu time :  1148.5 secs   av.it.:   8.0
      thresh= 2.614E-07 alpha_mix =  0.700 |ddv_scf|^2 =  1.659E-14

     End of self-consistent calculation

     Convergence has been achieved 

     Number of q in the star =    4
     List of q in the star:
          1   0.500000000  -0.500000000   0.500000000
          2   0.500000000   0.500000000   0.500000000
          3  -0.500000000   0.500000000   0.500000000
          4   0.500000000   0.500000000  -0.500000000

     Diagonalizing the dynamical matrix

     q = (    0.500000000  -0.500000000   0.500000000 ) 

 **************************************************************************
     freq (    1) =       2.137920 [THz] =      71.313335 [cm-1]
     freq (    2) =       2.137920 [THz] =      71.313335 [cm-1]
     freq (    3) =       6.611822 [THz] =     220.546642 [cm-1]
 **************************************************************************

     Mode symmetry, D_3d (-3m)  point group:

     freq (  1 -  2) =         71.3  [cm-1]   --> E_u  L_3'          
     freq (  3 -  3) =        220.5  [cm-1]   --> A_2u L_2'          

     Calculation of q =    0.0000000   0.2500000   0.0000000

   Info: using nr1, nr2, nr3 values from input

   Info: using nr1, nr2, nr3 values from input

     Parallelization info
     --------------------
     sticks:   dense  smooth     PW     G-vecs:    dense   smooth      PW
     Min         211     105     37                 4088     1441     309
     Max         212     106     38                 4091     1445     312
     Sum         847     421    151                16361     5769    1243



     bravais-lattice index     =            2
     lattice parameter (alat)  =       8.7602  a.u.
     unit-cell volume          =     168.0655 (a.u.)^3
     number of atoms/cell      =            1
     number of atomic types    =            1
     number of electrons       =         9.00
     number of Kohn-Sham states=            9
     kinetic-energy cutoff     =      40.0000  Ry
     charge density cutoff     =     320.0000  Ry
     Exchange-correlation      = SLA  PW   PBE  PBE ( 1  4  3  4 0 0)

     celldm(1)=   8.760177  celldm(2)=   0.000000  celldm(3)=   0.000000
     celldm(4)=   0.000000  celldm(5)=   0.000000  celldm(6)=   0.000000

     crystal axes: (cart. coord. in units of alat)
               a(1) = (  -0.500000   0.000000   0.500000 )  
               a(2) = (   0.000000   0.500000   0.500000 )  
               a(3) = (  -0.500000   0.500000   0.000000 )  

     reciprocal axes: (cart. coord. in units 2 pi/alat)
               b(1) = ( -1.000000 -1.000000  1.000000 )  
               b(2) = (  1.000000  1.000000  1.000000 )  
               b(3) = ( -1.000000  1.000000 -1.000000 )  


     PseudoPot. # 1 for Na read from file:
     /home/s1333534/quantum_espresso/qe-6.1/pseudo/Na_pbe_v1.uspp.F.UPF
     MD5 check sum: 76a99c7e9422403d3e93cbc85ab7bccb
     Pseudo is Ultrasoft, Zval =  9.0
     Generated by new atomic code, or converted to UPF format
     Using radial grid of  819 points,  5 beta functions with: 
                l(1) =   0
                l(2) =   0
                l(3) =   1
                l(4) =   1
                l(5) =   2
     Q(r) pseudized with  8 coefficients,  rinner =    1.250   1.250   1.250
                                                       1.250   1.250

     atomic species   valence    mass     pseudopotential
        Na             9.00    22.99000     Na( 1.00)

     48 Sym. Ops., with inversion, found



   Cartesian axes

     site n.     atom                  positions (alat units)
         1           Na  tau(   1) = (   0.0000000   0.0000000   0.0000000  )

     number of k points=  2940  Marzari-Vanderbilt smearing, width (Ry)=  0.0200

     Number of k-points >= 100: set verbosity='high' to print them.

     Dense  grid:    16361 G-vectors     FFT dimensions: (  36,  36,  36)

     Smooth grid:     5769 G-vectors     FFT dimensions: (  25,  25,  25)

     Estimated max dynamical RAM per process >       1.57MB

     Estimated total allocated dynamical RAM >       6.27MB

     The potential is recalculated from file :
     ./_ph0/na.fcc.save/charge-density.dat

     Starting wfc are    5 atomic +    4 random wfc

     Band Structure Calculation
     Davidson diagonalization with overlap

     ethr =  1.11E-10,  avg # of iterations = 17.2

     total cpu time spent up to now is      318.8 secs

     End of band structure calculation

     Number of k-points >= 100: set verbosity='high' to print the bands.

     the Fermi energy is     3.6682 ev

     Writing output data file na.fcc.save

                                                                                

     bravais-lattice index     =            2
     lattice parameter (alat)  =       8.7602  a.u.
     unit-cell volume          =     168.0655 (a.u.)^3
     number of atoms/cell      =            1
     number of atomic types    =            1
     kinetic-energy cut-off    =      40.0000  Ry
     charge density cut-off    =     320.0000  Ry
     convergence threshold     =      1.0E-12
     beta                      =       0.7000
     number of iterations used =            4
     Exchange-correlation      = SLA  PW   PBE  PBE ( 1  4  3  4 0 0)


     celldm(1)=    8.76018  celldm(2)=    0.00000  celldm(3)=    0.00000
     celldm(4)=    0.00000  celldm(5)=    0.00000  celldm(6)=    0.00000

     crystal axes: (cart. coord. in units of alat)
               a(1) = ( -0.5000  0.0000  0.5000 )  
               a(2) = (  0.0000  0.5000  0.5000 )  
               a(3) = ( -0.5000  0.5000  0.0000 )  

     reciprocal axes: (cart. coord. in units 2 pi/alat)
               b(1) = ( -1.0000 -1.0000  1.0000 )  
               b(2) = (  1.0000  1.0000  1.0000 )  
               b(3) = ( -1.0000  1.0000 -1.0000 )  


     Atoms inside the unit cell: 

     Cartesian axes

     site n.  atom      mass           positions (alat units)
        1     Na  22.9900   tau(    1) = (    0.00000    0.00000    0.00000  )

     Computing dynamical matrix for 
                    q = (   0.0000000   0.2500000   0.0000000 )

      8 Sym.Ops. (no q -> -q+G )


     G cutoff =  622.0367  (   4088 G-vectors)     FFT grid: ( 36, 36, 36)
     G cutoff =  311.0183  (   1442 G-vectors)  smooth grid: ( 25, 25, 25)

     number of k points=  2940  Marzari-Vanderbilt smearing, width (Ry)=  0.0200

     PseudoPot. # 1 for Na read from file:
     /home/s1333534/quantum_espresso/qe-6.1/pseudo/Na_pbe_v1.uspp.F.UPF
     MD5 check sum: 76a99c7e9422403d3e93cbc85ab7bccb
     Pseudo is Ultrasoft, Zval =  9.0
     Generated by new atomic code, or converted to UPF format
     Using radial grid of  819 points,  5 beta functions with: 
                l(1) =   0
                l(2) =   0
                l(3) =   1
                l(4) =   1
                l(5) =   2
     Q(r) pseudized with  8 coefficients,  rinner =    1.250   1.250   1.250
                                                       1.250   1.250

     Mode symmetry, C_4v (4mm)  point group:


     Atomic displacements:
     There are   2 irreducible representations

     Representation     1      1 modes -A_1  G_1 D_1  To be done

     Representation     2      2 modes -E    G_5 D_5  To be done



     Alpha used in Ewald sum =   2.8000
     PHONON       : 18m17.28s CPU    20m 7.77s WALL



     Representation #  1 mode #   1

     Self-consistent Calculation

      iter #   1 total cpu time :  1216.5 secs   av.it.:   5.6
      thresh= 1.000E-02 alpha_mix =  0.700 |ddv_scf|^2 =  1.909E-01

      iter #   2 total cpu time :  1225.5 secs   av.it.:   7.0
      thresh= 1.000E-02 alpha_mix =  0.700 |ddv_scf|^2 =  5.285E+01

      iter #   3 total cpu time :  1234.5 secs   av.it.:   7.0
      thresh= 1.000E-02 alpha_mix =  0.700 |ddv_scf|^2 =  4.596E-05

      iter #   4 total cpu time :  1243.2 secs   av.it.:   6.3
      thresh= 6.780E-04 alpha_mix =  0.700 |ddv_scf|^2 =  4.204E-07

      iter #   5 total cpu time :  1252.2 secs   av.it.:   7.1
      thresh= 6.483E-05 alpha_mix =  0.700 |ddv_scf|^2 =  7.657E-09

      iter #   6 total cpu time :  1261.1 secs   av.it.:   7.0
      thresh= 8.751E-06 alpha_mix =  0.700 |ddv_scf|^2 =  1.980E-07

      iter #   7 total cpu time :  1267.3 secs   av.it.:   4.2
      thresh= 4.449E-05 alpha_mix =  0.700 |ddv_scf|^2 =  3.271E-10

      iter #   8 total cpu time :  1276.6 secs   av.it.:   7.4
      thresh= 1.809E-06 alpha_mix =  0.700 |ddv_scf|^2 =  1.314E-11

      iter #   9 total cpu time :  1285.7 secs   av.it.:   7.4
      thresh= 3.625E-07 alpha_mix =  0.700 |ddv_scf|^2 =  2.230E-13

     End of self-consistent calculation

     Convergence has been achieved 


     Representation #  2 modes #   2  3

     Self-consistent Calculation

      iter #   1 total cpu time :  1303.2 secs   av.it.:   5.5
      thresh= 1.000E-02 alpha_mix =  0.700 |ddv_scf|^2 =  6.027E-06

      iter #   2 total cpu time :  1323.5 secs   av.it.:   8.2
      thresh= 2.455E-04 alpha_mix =  0.700 |ddv_scf|^2 =  1.094E-07

      iter #   3 total cpu time :  1344.0 secs   av.it.:   8.4
      thresh= 3.308E-05 alpha_mix =  0.700 |ddv_scf|^2 =  1.791E-09

      iter #   4 total cpu time :  1363.4 secs   av.it.:   7.9
      thresh= 4.232E-06 alpha_mix =  0.700 |ddv_scf|^2 =  6.051E-12

      iter #   5 total cpu time :  1383.6 secs   av.it.:   8.2
      thresh= 2.460E-07 alpha_mix =  0.700 |ddv_scf|^2 =  1.512E-14

     End of self-consistent calculation

     Convergence has been achieved 

     Number of q in the star =    6
     List of q in the star:
          1   0.000000000   0.250000000   0.000000000
          2   0.000000000  -0.250000000   0.000000000
          3   0.250000000   0.000000000   0.000000000
          4   0.000000000   0.000000000   0.250000000
          5   0.000000000   0.000000000  -0.250000000
          6  -0.250000000   0.000000000   0.000000000

     Diagonalizing the dynamical matrix

     q = (    0.000000000   0.250000000   0.000000000 ) 

 **************************************************************************
     freq (    1) =       1.445399 [THz] =      48.213313 [cm-1]
     freq (    2) =       1.445399 [THz] =      48.213313 [cm-1]
     freq (    3) =       2.567951 [THz] =      85.657609 [cm-1]
 **************************************************************************

     Mode symmetry, C_4v (4mm)  point group:

     freq (  1 -  2) =         48.2  [cm-1]   --> E    G_5 D_5       
     freq (  3 -  3) =         85.7  [cm-1]   --> A_1  G_1 D_1       

     Calculation of q =   -0.1250000   0.3750000  -0.1250000

   Info: using nr1, nr2, nr3 values from input

   Info: using nr1, nr2, nr3 values from input

     Parallelization info
     --------------------
     sticks:   dense  smooth     PW     G-vecs:    dense   smooth      PW
     Min         211     105     40                 4088     1441     340
     Max         212     106     41                 4091     1445     342
     Sum         847     421    163                16361     5769    1363



     bravais-lattice index     =            2
     lattice parameter (alat)  =       8.7602  a.u.
     unit-cell volume          =     168.0655 (a.u.)^3
     number of atoms/cell      =            1
     number of atomic types    =            1
     number of electrons       =         9.00
     number of Kohn-Sham states=            9
     kinetic-energy cutoff     =      40.0000  Ry
     charge density cutoff     =     320.0000  Ry
     Exchange-correlation      = SLA  PW   PBE  PBE ( 1  4  3  4 0 0)

     celldm(1)=   8.760177  celldm(2)=   0.000000  celldm(3)=   0.000000
     celldm(4)=   0.000000  celldm(5)=   0.000000  celldm(6)=   0.000000

     crystal axes: (cart. coord. in units of alat)
               a(1) = (  -0.500000   0.000000   0.500000 )  
               a(2) = (   0.000000   0.500000   0.500000 )  
               a(3) = (  -0.500000   0.500000   0.000000 )  

     reciprocal axes: (cart. coord. in units 2 pi/alat)
               b(1) = ( -1.000000 -1.000000  1.000000 )  
               b(2) = (  1.000000  1.000000  1.000000 )  
               b(3) = ( -1.000000  1.000000 -1.000000 )  


     PseudoPot. # 1 for Na read from file:
     /home/s1333534/quantum_espresso/qe-6.1/pseudo/Na_pbe_v1.uspp.F.UPF
     MD5 check sum: 76a99c7e9422403d3e93cbc85ab7bccb
     Pseudo is Ultrasoft, Zval =  9.0
     Generated by new atomic code, or converted to UPF format
     Using radial grid of  819 points,  5 beta functions with: 
                l(1) =   0
                l(2) =   0
                l(3) =   1
                l(4) =   1
                l(5) =   2
     Q(r) pseudized with  8 coefficients,  rinner =    1.250   1.250   1.250
                                                       1.250   1.250

     atomic species   valence    mass     pseudopotential
        Na             9.00    22.99000     Na( 1.00)

     48 Sym. Ops., with inversion, found



   Cartesian axes

     site n.     atom                  positions (alat units)
         1           Na  tau(   1) = (   0.0000000   0.0000000   0.0000000  )

     number of k points= 11368  Marzari-Vanderbilt smearing, width (Ry)=  0.0200

     Number of k-points >= 100: set verbosity='high' to print them.

     Dense  grid:    16361 G-vectors     FFT dimensions: (  36,  36,  36)

     Smooth grid:     5769 G-vectors     FFT dimensions: (  25,  25,  25)

     Estimated max dynamical RAM per process >       1.57MB

     Estimated total allocated dynamical RAM >       6.27MB

     The potential is recalculated from file :
     ./_ph0/na.fcc.save/charge-density.dat

     Starting wfc are    5 atomic +    4 random wfc

     Band Structure Calculation
     Davidson diagonalization with overlap

     ethr =  1.11E-10,  avg # of iterations = 17.2

     total cpu time spent up to now is      524.8 secs

     End of band structure calculation

     Number of k-points >= 100: set verbosity='high' to print the bands.

     the Fermi energy is     3.6682 ev

     Writing output data file na.fcc.save

                                                                                

     bravais-lattice index     =            2
     lattice parameter (alat)  =       8.7602  a.u.
     unit-cell volume          =     168.0655 (a.u.)^3
     number of atoms/cell      =            1
     number of atomic types    =            1
     kinetic-energy cut-off    =      40.0000  Ry
     charge density cut-off    =     320.0000  Ry
     convergence threshold     =      1.0E-12
     beta                      =       0.7000
     number of iterations used =            4
     Exchange-correlation      = SLA  PW   PBE  PBE ( 1  4  3  4 0 0)


     celldm(1)=    8.76018  celldm(2)=    0.00000  celldm(3)=    0.00000
     celldm(4)=    0.00000  celldm(5)=    0.00000  celldm(6)=    0.00000

     crystal axes: (cart. coord. in units of alat)
               a(1) = ( -0.5000  0.0000  0.5000 )  
               a(2) = (  0.0000  0.5000  0.5000 )  
               a(3) = ( -0.5000  0.5000  0.0000 )  

     reciprocal axes: (cart. coord. in units 2 pi/alat)
               b(1) = ( -1.0000 -1.0000  1.0000 )  
               b(2) = (  1.0000  1.0000  1.0000 )  
               b(3) = ( -1.0000  1.0000 -1.0000 )  


     Atoms inside the unit cell: 

     Cartesian axes

     site n.  atom      mass           positions (alat units)
        1     Na  22.9900   tau(    1) = (    0.00000    0.00000    0.00000  )

     Computing dynamical matrix for 
                    q = (  -0.1250000   0.3750000  -0.1250000 )

      2 Sym.Ops. (no q -> -q+G )


     G cutoff =  622.0367  (   4088 G-vectors)     FFT grid: ( 36, 36, 36)
     G cutoff =  311.0183  (   1445 G-vectors)  smooth grid: ( 25, 25, 25)

     number of k points= 11368  Marzari-Vanderbilt smearing, width (Ry)=  0.0200

     PseudoPot. # 1 for Na read from file:
     /home/s1333534/quantum_espresso/qe-6.1/pseudo/Na_pbe_v1.uspp.F.UPF
     MD5 check sum: 76a99c7e9422403d3e93cbc85ab7bccb
     Pseudo is Ultrasoft, Zval =  9.0
     Generated by new atomic code, or converted to UPF format
     Using radial grid of  819 points,  5 beta functions with: 
                l(1) =   0
                l(2) =   0
                l(3) =   1
                l(4) =   1
                l(5) =   2
     Q(r) pseudized with  8 coefficients,  rinner =    1.250   1.250   1.250
                                                       1.250   1.250

     Mode symmetry, C_s (m)     point group:


     Atomic displacements:
     There are   3 irreducible representations

     Representation     1      1 modes -A'  To be done

     Representation     2      1 modes -A'  To be done

     Representation     3      1 modes -A''  To be done



     Alpha used in Ewald sum =   2.8000
     PHONON       : 24m28.40s CPU    26m52.42s WALL



     Representation #  1 mode #   1

     Self-consistent Calculation

      iter #   1 total cpu time :  1648.2 secs   av.it.:   5.8
      thresh= 1.000E-02 alpha_mix =  0.700 |ddv_scf|^2 =  7.715E-03

      iter #   2 total cpu time :  1680.2 secs   av.it.:   6.3
      thresh= 8.784E-03 alpha_mix =  0.700 |ddv_scf|^2 =  2.203E-01

      iter #   3 total cpu time :  1712.1 secs   av.it.:   6.1
      thresh= 1.000E-02 alpha_mix =  0.700 |ddv_scf|^2 =  4.807E-06

      iter #   4 total cpu time :  1748.3 secs   av.it.:   7.4
      thresh= 2.192E-04 alpha_mix =  0.700 |ddv_scf|^2 =  4.021E-08

      iter #   5 total cpu time :  1785.9 secs   av.it.:   7.7
      thresh= 2.005E-05 alpha_mix =  0.700 |ddv_scf|^2 =  2.856E-09

      iter #   6 total cpu time :  1823.6 secs   av.it.:   7.6
      thresh= 5.344E-06 alpha_mix =  0.700 |ddv_scf|^2 =  2.908E-10

      iter #   7 total cpu time :  1860.0 secs   av.it.:   7.3
      thresh= 1.705E-06 alpha_mix =  0.700 |ddv_scf|^2 =  3.557E-09

      iter #   8 total cpu time :  1889.0 secs   av.it.:   5.5
      thresh= 5.964E-06 alpha_mix =  0.700 |ddv_scf|^2 =  1.056E-12

      iter #   9 total cpu time :  1925.9 secs   av.it.:   7.5
      thresh= 1.028E-07 alpha_mix =  0.700 |ddv_scf|^2 =  6.635E-14

     End of self-consistent calculation

     Convergence has been achieved 


     Representation #  2 mode #   2

     Self-consistent Calculation

      iter #   1 total cpu time :  1962.5 secs   av.it.:   5.7
      thresh= 1.000E-02 alpha_mix =  0.700 |ddv_scf|^2 =  1.190E-03

      iter #   2 total cpu time :  1996.9 secs   av.it.:   6.8
      thresh= 3.450E-03 alpha_mix =  0.700 |ddv_scf|^2 =  3.337E-02

      iter #   3 total cpu time :  2025.1 secs   av.it.:   5.1
      thresh= 1.000E-02 alpha_mix =  0.700 |ddv_scf|^2 =  5.475E-07

      iter #   4 total cpu time :  2062.9 secs   av.it.:   7.8
      thresh= 7.399E-05 alpha_mix =  0.700 |ddv_scf|^2 =  1.168E-08

      iter #   5 total cpu time :  2100.7 secs   av.it.:   7.8
      thresh= 1.081E-05 alpha_mix =  0.700 |ddv_scf|^2 =  7.586E-10

      iter #   6 total cpu time :  2138.8 secs   av.it.:   7.7
      thresh= 2.754E-06 alpha_mix =  0.700 |ddv_scf|^2 =  3.815E-10

      iter #   7 total cpu time :  2172.8 secs   av.it.:   6.7
      thresh= 1.953E-06 alpha_mix =  0.700 |ddv_scf|^2 =  1.018E-09

      iter #   8 total cpu time :  2205.3 secs   av.it.:   6.3
      thresh= 3.190E-06 alpha_mix =  0.700 |ddv_scf|^2 =  4.895E-11

      iter #   9 total cpu time :  2237.2 secs   av.it.:   6.2
      thresh= 6.997E-07 alpha_mix =  0.700 |ddv_scf|^2 =  1.175E-11

      iter #  10 total cpu time :  2272.4 secs   av.it.:   7.1
      thresh= 3.428E-07 alpha_mix =  0.700 |ddv_scf|^2 =  5.940E-14

     End of self-consistent calculation

     Convergence has been achieved 


     Representation #  3 mode #   3

     Self-consistent Calculation

      iter #   1 total cpu time :  2308.2 secs   av.it.:   5.4
      thresh= 1.000E-02 alpha_mix =  0.700 |ddv_scf|^2 =  2.519E-05

      iter #   2 total cpu time :  2345.2 secs   av.it.:   7.4
      thresh= 5.019E-04 alpha_mix =  0.700 |ddv_scf|^2 =  4.233E-07

      iter #   3 total cpu time :  2383.3 secs   av.it.:   7.7
      thresh= 6.506E-05 alpha_mix =  0.700 |ddv_scf|^2 =  9.987E-09

      iter #   4 total cpu time :  2419.5 secs   av.it.:   7.4
      thresh= 9.993E-06 alpha_mix =  0.700 |ddv_scf|^2 =  3.360E-11

      iter #   5 total cpu time :  2456.7 secs   av.it.:   7.6
      thresh= 5.797E-07 alpha_mix =  0.700 |ddv_scf|^2 =  5.592E-14

     End of self-consistent calculation

     Convergence has been achieved 

     Number of q in the star =   24
     List of q in the star:
          1  -0.125000000   0.375000000  -0.125000000
          2  -0.125000000   0.375000000   0.125000000
          3   0.125000000   0.375000000  -0.125000000
          4   0.125000000   0.375000000   0.125000000
          5   0.125000000  -0.375000000   0.125000000
          6   0.375000000  -0.125000000   0.125000000
          7   0.125000000  -0.125000000   0.375000000
          8  -0.125000000  -0.375000000  -0.125000000
          9   0.125000000  -0.375000000  -0.125000000
         10  -0.125000000  -0.375000000   0.125000000
         11   0.125000000  -0.125000000  -0.375000000
         12   0.375000000  -0.125000000  -0.125000000
         13  -0.375000000  -0.125000000   0.125000000
         14   0.375000000   0.125000000   0.125000000
         15  -0.125000000  -0.125000000   0.375000000
         16   0.125000000   0.125000000   0.375000000
         17  -0.375000000   0.125000000  -0.125000000
         18  -0.125000000   0.125000000  -0.375000000
         19  -0.375000000  -0.125000000  -0.125000000
         20   0.125000000   0.125000000  -0.375000000
         21   0.375000000   0.125000000  -0.125000000
         22  -0.125000000  -0.125000000  -0.375000000
         23  -0.375000000   0.125000000   0.125000000
         24  -0.125000000   0.125000000   0.375000000

     Diagonalizing the dynamical matrix

     q = (   -0.125000000   0.375000000  -0.125000000 ) 

 **************************************************************************
     freq (    1) =       2.056462 [THz] =      68.596182 [cm-1]
     freq (    2) =       2.076076 [THz] =      69.250445 [cm-1]
     freq (    3) =       4.181057 [THz] =     139.465045 [cm-1]
 **************************************************************************

     Mode symmetry, C_s (m)     point group:

     freq (  1 -  1) =         68.6  [cm-1]   --> A''                
     freq (  2 -  2) =         69.3  [cm-1]   --> A'                 
     freq (  3 -  3) =        139.5  [cm-1]   --> A'                 

     Calculation of q =   -0.2500000   0.5000000  -0.2500000

   Info: using nr1, nr2, nr3 values from input

   Info: using nr1, nr2, nr3 values from input

     Parallelization info
     --------------------
     sticks:   dense  smooth     PW     G-vecs:    dense   smooth      PW
     Min         211     105     40                 4089     1441     351
     Max         212     106     41                 4092     1445     354
     Sum         847     421    163                16361     5769    1411



     bravais-lattice index     =            2
     lattice parameter (alat)  =       8.7602  a.u.
     unit-cell volume          =     168.0655 (a.u.)^3
     number of atoms/cell      =            1
     number of atomic types    =            1
     number of electrons       =         9.00
     number of Kohn-Sham states=            9
     kinetic-energy cutoff     =      40.0000  Ry
     charge density cutoff     =     320.0000  Ry
     Exchange-correlation      = SLA  PW   PBE  PBE ( 1  4  3  4 0 0)

     celldm(1)=   8.760177  celldm(2)=   0.000000  celldm(3)=   0.000000
     celldm(4)=   0.000000  celldm(5)=   0.000000  celldm(6)=   0.000000

     crystal axes: (cart. coord. in units of alat)
               a(1) = (  -0.500000   0.000000   0.500000 )  
               a(2) = (   0.000000   0.500000   0.500000 )  
               a(3) = (  -0.500000   0.500000   0.000000 )  

     reciprocal axes: (cart. coord. in units 2 pi/alat)
               b(1) = ( -1.000000 -1.000000  1.000000 )  
               b(2) = (  1.000000  1.000000  1.000000 )  
               b(3) = ( -1.000000  1.000000 -1.000000 )  


     PseudoPot. # 1 for Na read from file:
     /home/s1333534/quantum_espresso/qe-6.1/pseudo/Na_pbe_v1.uspp.F.UPF
     MD5 check sum: 76a99c7e9422403d3e93cbc85ab7bccb
     Pseudo is Ultrasoft, Zval =  9.0
     Generated by new atomic code, or converted to UPF format
     Using radial grid of  819 points,  5 beta functions with: 
                l(1) =   0
                l(2) =   0
                l(3) =   1
                l(4) =   1
                l(5) =   2
     Q(r) pseudized with  8 coefficients,  rinner =    1.250   1.250   1.250
                                                       1.250   1.250

     atomic species   valence    mass     pseudopotential
        Na             9.00    22.99000     Na( 1.00)

     48 Sym. Ops., with inversion, found



   Cartesian axes

     site n.     atom                  positions (alat units)
         1           Na  tau(   1) = (   0.0000000   0.0000000   0.0000000  )

     number of k points= 11368  Marzari-Vanderbilt smearing, width (Ry)=  0.0200

     Number of k-points >= 100: set verbosity='high' to print them.

     Dense  grid:    16361 G-vectors     FFT dimensions: (  36,  36,  36)

     Smooth grid:     5769 G-vectors     FFT dimensions: (  25,  25,  25)

     Estimated max dynamical RAM per process >       1.57MB

     Estimated total allocated dynamical RAM >       6.27MB

     The potential is recalculated from file :
     ./_ph0/na.fcc.save/charge-density.dat

     Starting wfc are    5 atomic +    4 random wfc

     Band Structure Calculation
     Davidson diagonalization with overlap

     ethr =  1.11E-10,  avg # of iterations = 17.2

     total cpu time spent up to now is      736.3 secs

     End of band structure calculation

     Number of k-points >= 100: set verbosity='high' to print the bands.

     the Fermi energy is     3.6682 ev

     Writing output data file na.fcc.save

                                                                                

     bravais-lattice index     =            2
     lattice parameter (alat)  =       8.7602  a.u.
     unit-cell volume          =     168.0655 (a.u.)^3
     number of atoms/cell      =            1
     number of atomic types    =            1
     kinetic-energy cut-off    =      40.0000  Ry
     charge density cut-off    =     320.0000  Ry
     convergence threshold     =      1.0E-12
     beta                      =       0.7000
     number of iterations used =            4
     Exchange-correlation      = SLA  PW   PBE  PBE ( 1  4  3  4 0 0)


     celldm(1)=    8.76018  celldm(2)=    0.00000  celldm(3)=    0.00000
     celldm(4)=    0.00000  celldm(5)=    0.00000  celldm(6)=    0.00000

     crystal axes: (cart. coord. in units of alat)
               a(1) = ( -0.5000  0.0000  0.5000 )  
               a(2) = (  0.0000  0.5000  0.5000 )  
               a(3) = ( -0.5000  0.5000  0.0000 )  

     reciprocal axes: (cart. coord. in units 2 pi/alat)
               b(1) = ( -1.0000 -1.0000  1.0000 )  
               b(2) = (  1.0000  1.0000  1.0000 )  
               b(3) = ( -1.0000  1.0000 -1.0000 )  


     Atoms inside the unit cell: 

     Cartesian axes

     site n.  atom      mass           positions (alat units)
        1     Na  22.9900   tau(    1) = (    0.00000    0.00000    0.00000  )

     Computing dynamical matrix for 
                    q = (  -0.2500000   0.5000000  -0.2500000 )

      2 Sym.Ops. (no q -> -q+G )


     G cutoff =  622.0367  (   4090 G-vectors)     FFT grid: ( 36, 36, 36)
     G cutoff =  311.0183  (   1442 G-vectors)  smooth grid: ( 25, 25, 25)

     number of k points= 11368  Marzari-Vanderbilt smearing, width (Ry)=  0.0200

     PseudoPot. # 1 for Na read from file:
     /home/s1333534/quantum_espresso/qe-6.1/pseudo/Na_pbe_v1.uspp.F.UPF
     MD5 check sum: 76a99c7e9422403d3e93cbc85ab7bccb
     Pseudo is Ultrasoft, Zval =  9.0
     Generated by new atomic code, or converted to UPF format
     Using radial grid of  819 points,  5 beta functions with: 
                l(1) =   0
                l(2) =   0
                l(3) =   1
                l(4) =   1
                l(5) =   2
     Q(r) pseudized with  8 coefficients,  rinner =    1.250   1.250   1.250
                                                       1.250   1.250

     Mode symmetry, C_s (m)     point group:


     Atomic displacements:
     There are   3 irreducible representations

     Representation     1      1 modes -A'  To be done

     Representation     2      1 modes -A'  To be done

     Representation     3      1 modes -A''  To be done



     Alpha used in Ewald sum =   2.8000
     PHONON       : 40m35.93s CPU    44m47.42s WALL



     Representation #  1 mode #   1

     Self-consistent Calculation

      iter #   1 total cpu time :  2723.0 secs   av.it.:   5.8
      thresh= 1.000E-02 alpha_mix =  0.700 |ddv_scf|^2 =  7.508E-04

      iter #   2 total cpu time :  2757.2 secs   av.it.:   6.8
      thresh= 2.740E-03 alpha_mix =  0.700 |ddv_scf|^2 =  3.134E-03

      iter #   3 total cpu time :  2788.3 secs   av.it.:   5.9
      thresh= 5.598E-03 alpha_mix =  0.700 |ddv_scf|^2 =  7.281E-07

      iter #   4 total cpu time :  2826.3 secs   av.it.:   7.8
      thresh= 8.533E-05 alpha_mix =  0.700 |ddv_scf|^2 =  9.330E-09

      iter #   5 total cpu time :  2866.4 secs   av.it.:   8.2
      thresh= 9.659E-06 alpha_mix =  0.700 |ddv_scf|^2 =  1.227E-09

      iter #   6 total cpu time :  2904.9 secs   av.it.:   7.8
      thresh= 3.503E-06 alpha_mix =  0.700 |ddv_scf|^2 =  5.091E-11

      iter #   7 total cpu time :  2942.7 secs   av.it.:   7.8
      thresh= 7.135E-07 alpha_mix =  0.700 |ddv_scf|^2 =  1.453E-11

      iter #   8 total cpu time :  2977.9 secs   av.it.:   7.0
      thresh= 3.812E-07 alpha_mix =  0.700 |ddv_scf|^2 =  1.589E-11

      iter #   9 total cpu time :  3011.0 secs   av.it.:   6.4
      thresh= 3.986E-07 alpha_mix =  0.700 |ddv_scf|^2 =  6.601E-13

     End of self-consistent calculation

     Convergence has been achieved 


     Representation #  2 mode #   2

     Self-consistent Calculation

      iter #   1 total cpu time :  3047.3 secs   av.it.:   5.8
      thresh= 1.000E-02 alpha_mix =  0.700 |ddv_scf|^2 =  2.175E-04

      iter #   2 total cpu time :  3083.5 secs   av.it.:   7.3
      thresh= 1.475E-03 alpha_mix =  0.700 |ddv_scf|^2 =  8.055E-04

      iter #   3 total cpu time :  3114.2 secs   av.it.:   5.9
      thresh= 2.838E-03 alpha_mix =  0.700 |ddv_scf|^2 =  5.352E-07

      iter #   4 total cpu time :  3152.2 secs   av.it.:   7.8
      thresh= 7.316E-05 alpha_mix =  0.700 |ddv_scf|^2 =  1.366E-08

      iter #   5 total cpu time :  3191.1 secs   av.it.:   8.1
      thresh= 1.169E-05 alpha_mix =  0.700 |ddv_scf|^2 =  6.644E-10

      iter #   6 total cpu time :  3230.0 secs   av.it.:   8.0
      thresh= 2.578E-06 alpha_mix =  0.700 |ddv_scf|^2 =  6.088E-11

      iter #   7 total cpu time :  3267.4 secs   av.it.:   7.7
      thresh= 7.802E-07 alpha_mix =  0.700 |ddv_scf|^2 =  9.551E-13

     End of self-consistent calculation

     Convergence has been achieved 


     Representation #  3 mode #   3

     Self-consistent Calculation

      iter #   1 total cpu time :  3302.6 secs   av.it.:   5.5
      thresh= 1.000E-02 alpha_mix =  0.700 |ddv_scf|^2 =  2.586E-05

      iter #   2 total cpu time :  3339.3 secs   av.it.:   7.5
      thresh= 5.086E-04 alpha_mix =  0.700 |ddv_scf|^2 =  4.174E-07

      iter #   3 total cpu time :  3377.1 secs   av.it.:   7.7
      thresh= 6.461E-05 alpha_mix =  0.700 |ddv_scf|^2 =  1.157E-08

      iter #   4 total cpu time :  3413.5 secs   av.it.:   7.4
      thresh= 1.076E-05 alpha_mix =  0.700 |ddv_scf|^2 =  4.017E-11

      iter #   5 total cpu time :  3451.1 secs   av.it.:   7.6
      thresh= 6.338E-07 alpha_mix =  0.700 |ddv_scf|^2 =  5.638E-14

     End of self-consistent calculation

     Convergence has been achieved 

     Number of q in the star =   24
     List of q in the star:
          1  -0.250000000   0.500000000  -0.250000000
          2  -0.250000000   0.500000000   0.250000000
          3   0.250000000   0.500000000  -0.250000000
          4   0.250000000   0.500000000   0.250000000
          5   0.250000000  -0.500000000   0.250000000
          6   0.500000000  -0.250000000   0.250000000
          7   0.250000000  -0.250000000   0.500000000
          8  -0.250000000  -0.500000000  -0.250000000
          9   0.250000000  -0.500000000  -0.250000000
         10  -0.250000000  -0.500000000   0.250000000
         11   0.250000000  -0.250000000  -0.500000000
         12   0.500000000  -0.250000000  -0.250000000
         13  -0.500000000  -0.250000000   0.250000000
         14   0.500000000   0.250000000   0.250000000
         15  -0.250000000  -0.250000000   0.500000000
         16   0.250000000   0.250000000   0.500000000
         17  -0.500000000   0.250000000  -0.250000000
         18  -0.250000000   0.250000000  -0.500000000
         19  -0.500000000  -0.250000000  -0.250000000
         20   0.250000000   0.250000000  -0.500000000
         21   0.500000000   0.250000000  -0.250000000
         22  -0.250000000  -0.250000000  -0.500000000
         23  -0.500000000   0.250000000   0.250000000
         24  -0.250000000   0.250000000   0.500000000

     Diagonalizing the dynamical matrix

     q = (   -0.250000000   0.500000000  -0.250000000 ) 

 **************************************************************************
     freq (    1) =       2.405092 [THz] =      80.225249 [cm-1]
     freq (    2) =       2.648312 [THz] =      88.338167 [cm-1]
     freq (    3) =       5.831249 [THz] =     194.509523 [cm-1]
 **************************************************************************

     Mode symmetry, C_s (m)     point group:

     freq (  1 -  1) =         80.2  [cm-1]   --> A''                
     freq (  2 -  2) =         88.3  [cm-1]   --> A'                 
     freq (  3 -  3) =        194.5  [cm-1]   --> A'                 

     Calculation of q =    0.6250000  -0.3750000   0.6250000

   Info: using nr1, nr2, nr3 values from input

   Info: using nr1, nr2, nr3 values from input

     Parallelization info
     --------------------
     sticks:   dense  smooth     PW     G-vecs:    dense   smooth      PW
     Min         211     105     40                 4088     1441     362
     Max         212     106     41                 4091     1445     366
     Sum         847     421    163                16361     5769    1459



     bravais-lattice index     =            2
     lattice parameter (alat)  =       8.7602  a.u.
     unit-cell volume          =     168.0655 (a.u.)^3
     number of atoms/cell      =            1
     number of atomic types    =            1
     number of electrons       =         9.00
     number of Kohn-Sham states=            9
     kinetic-energy cutoff     =      40.0000  Ry
     charge density cutoff     =     320.0000  Ry
     Exchange-correlation      = SLA  PW   PBE  PBE ( 1  4  3  4 0 0)

     celldm(1)=   8.760177  celldm(2)=   0.000000  celldm(3)=   0.000000
     celldm(4)=   0.000000  celldm(5)=   0.000000  celldm(6)=   0.000000

     crystal axes: (cart. coord. in units of alat)
               a(1) = (  -0.500000   0.000000   0.500000 )  
               a(2) = (   0.000000   0.500000   0.500000 )  
               a(3) = (  -0.500000   0.500000   0.000000 )  

     reciprocal axes: (cart. coord. in units 2 pi/alat)
               b(1) = ( -1.000000 -1.000000  1.000000 )  
[...]

     PseudoPot. # 1 for Na read from file:
     /home/s1333534/quantum_espresso/qe-6.1/pseudo/Na_pbe_v1.uspp.F.UPF
     MD5 check sum: 76a99c7e9422403d3e93cbc85ab7bccb
     Pseudo is Ultrasoft, Zval =  9.0
     Generated by new atomic code, or converted to UPF format
     Using radial grid of  819 points,  5 beta functions with: 
                l(1) =   0
                l(2) =   0
                l(3) =   1
                l(4) =   1
                l(5) =   2
     Q(r) pseudized with  8 coefficients,  rinner =    1.250   1.250   1.250
                                                       1.250   1.250

     Mode symmetry, C_2v (mm2)  point group:


     Atomic displacements:
     There are   3 irreducible representations

     Representation     1      1 modes -A_1  D_1  S_1  To be done

     Representation     2      1 modes -B_1  D_3  S_3  To be done

     Representation     3      1 modes -B_2  D_4  S_4  To be done



     Alpha used in Ewald sum =   2.8000
     PHONON       :     5h 4m CPU        5h37m WALL



     Representation #  1 mode #   1

     Self-consistent Calculation

      iter #   1 total cpu time : 20277.2 secs   av.it.:   5.6
      thresh= 1.000E-02 alpha_mix =  0.700 |ddv_scf|^2 =  3.784E-05

      iter #   2 total cpu time : 20295.1 secs   av.it.:   7.6
      thresh= 6.151E-04 alpha_mix =  0.700 |ddv_scf|^2 =  1.075E-06

      iter #   3 total cpu time : 20313.8 secs   av.it.:   7.6
      thresh= 1.037E-04 alpha_mix =  0.700 |ddv_scf|^2 =  4.450E-08

      iter #   4 total cpu time : 20332.0 secs   av.it.:   7.7
      thresh= 2.109E-05 alpha_mix =  0.700 |ddv_scf|^2 =  2.426E-09

      iter #   5 total cpu time : 20350.2 secs   av.it.:   7.8
      thresh= 4.925E-06 alpha_mix =  0.700 |ddv_scf|^2 =  1.127E-10

      iter #   6 total cpu time : 20369.1 secs   av.it.:   7.9
      thresh= 1.062E-06 alpha_mix =  0.700 |ddv_scf|^2 =  8.225E-12

      iter #   7 total cpu time : 20387.2 secs   av.it.:   7.7
      thresh= 2.868E-07 alpha_mix =  0.700 |ddv_scf|^2 =  2.525E-13

     End of self-consistent calculation

     Convergence has been achieved 


     Representation #  2 mode #   2

     Self-consistent Calculation

      iter #   1 total cpu time : 20404.3 secs   av.it.:   5.6
      thresh= 1.000E-02 alpha_mix =  0.700 |ddv_scf|^2 =  3.900E-05

      iter #   2 total cpu time : 20422.5 secs   av.it.:   7.5
      thresh= 6.245E-04 alpha_mix =  0.700 |ddv_scf|^2 =  4.776E-07

      iter #   3 total cpu time : 20441.1 secs   av.it.:   7.7
      thresh= 6.911E-05 alpha_mix =  0.700 |ddv_scf|^2 =  3.148E-08

      iter #   4 total cpu time : 20459.1 secs   av.it.:   7.7
      thresh= 1.774E-05 alpha_mix =  0.700 |ddv_scf|^2 =  3.627E-10

      iter #   5 total cpu time : 20476.4 secs   av.it.:   7.2
      thresh= 1.905E-06 alpha_mix =  0.700 |ddv_scf|^2 =  3.608E-13

     End of self-consistent calculation

     Convergence has been achieved 


     Representation #  3 mode #   3

     Self-consistent Calculation

      iter #   1 total cpu time : 20493.3 secs   av.it.:   5.7
      thresh= 1.000E-02 alpha_mix =  0.700 |ddv_scf|^2 =  1.019E-04

      iter #   2 total cpu time : 20510.9 secs   av.it.:   7.2
      thresh= 1.010E-03 alpha_mix =  0.700 |ddv_scf|^2 =  1.159E-05

      iter #   3 total cpu time : 20528.2 secs   av.it.:   7.2
      thresh= 3.404E-04 alpha_mix =  0.700 |ddv_scf|^2 =  8.673E-08

      iter #   4 total cpu time : 20546.8 secs   av.it.:   7.8
      thresh= 2.945E-05 alpha_mix =  0.700 |ddv_scf|^2 =  3.127E-10

      iter #   5 total cpu time : 20563.5 secs   av.it.:   6.9
      thresh= 1.768E-06 alpha_mix =  0.700 |ddv_scf|^2 =  5.644E-13

     End of self-consistent calculation

     Convergence has been achieved 

     Number of q in the star =   12
     List of q in the star:
          1  -0.250000000  -1.000000000   0.000000000
          2   0.000000000  -1.000000000   0.250000000
          3   0.000000000  -1.000000000  -0.250000000
          4   0.250000000  -1.000000000   0.000000000
          5  -1.000000000   0.000000000  -0.250000000
          6   1.000000000   0.000000000   0.250000000
          7  -1.000000000  -0.250000000   0.000000000
          8   0.000000000  -0.250000000  -1.000000000
          9   0.000000000   0.250000000  -1.000000000
         10   1.000000000   0.250000000   0.000000000
         11  -0.250000000   0.000000000   1.000000000
         12   0.250000000   0.000000000   1.000000000

     Diagonalizing the dynamical matrix

     q = (   -0.250000000  -1.000000000   0.000000000 ) 

 **************************************************************************
     freq (    1) =       4.071478 [THz] =     135.809902 [cm-1]
     freq (    2) =       4.666212 [THz] =     155.648064 [cm-1]
     freq (    3) =       6.535514 [THz] =     218.001289 [cm-1]
 **************************************************************************

     Mode symmetry, C_2v (mm2)  point group:

     freq (  1 -  1) =        135.8  [cm-1]   --> A_1  D_1  S_1      
     freq (  2 -  2) =        155.6  [cm-1]   --> B_1  D_3  S_3      
     freq (  3 -  3) =        218.0  [cm-1]   --> B_2  D_4  S_4      

     Calculation of q =   -0.5000000  -1.0000000   0.0000000

   Info: using nr1, nr2, nr3 values from input

   Info: using nr1, nr2, nr3 values from input

     Parallelization info
     --------------------
     sticks:   dense  smooth     PW     G-vecs:    dense   smooth      PW
     Min         211     105     42                 4088     1441     367
     Max         212     106     43                 4091     1445     368
     Sum         847     421    169                16361     5769    1471



     bravais-lattice index     =            2
     lattice parameter (alat)  =       8.7602  a.u.
     unit-cell volume          =     168.0655 (a.u.)^3
     number of atoms/cell      =            1
     number of atomic types    =            1
     number of electrons       =         9.00
     number of Kohn-Sham states=            9
     kinetic-energy cutoff     =      40.0000  Ry
     charge density cutoff     =     320.0000  Ry
     Exchange-correlation      = SLA  PW   PBE  PBE ( 1  4  3  4 0 0)

     celldm(1)=   8.760177  celldm(2)=   0.000000  celldm(3)=   0.000000
     celldm(4)=   0.000000  celldm(5)=   0.000000  celldm(6)=   0.000000

     crystal axes: (cart. coord. in units of alat)
               a(1) = (  -0.500000   0.000000   0.500000 )  
               a(2) = (   0.000000   0.500000   0.500000 )  
               a(3) = (  -0.500000   0.500000   0.000000 )  

     reciprocal axes: (cart. coord. in units 2 pi/alat)
               b(1) = ( -1.000000 -1.000000  1.000000 )  
               b(2) = (  1.000000  1.000000  1.000000 )  
               b(3) = ( -1.000000  1.000000 -1.000000 )  


     PseudoPot. # 1 for Na read from file:
     /home/s1333534/quantum_espresso/qe-6.1/pseudo/Na_pbe_v1.uspp.F.UPF
     MD5 check sum: 76a99c7e9422403d3e93cbc85ab7bccb
     Pseudo is Ultrasoft, Zval =  9.0
     Generated by new atomic code, or converted to UPF format
     Using radial grid of  819 points,  5 beta functions with: 
                l(1) =   0
                l(2) =   0
                l(3) =   1
                l(4) =   1
                l(5) =   2
     Q(r) pseudized with  8 coefficients,  rinner =    1.250   1.250   1.250
                                                       1.250   1.250

     atomic species   valence    mass     pseudopotential
        Na             9.00    22.99000     Na( 1.00)

     48 Sym. Ops., with inversion, found



   Cartesian axes

     site n.     atom                  positions (alat units)
         1           Na  tau(   1) = (   0.0000000   0.0000000   0.0000000  )

     number of k points=  2744  Marzari-Vanderbilt smearing, width (Ry)=  0.0200

     Number of k-points >= 100: set verbosity='high' to print them.

     Dense  grid:    16361 G-vectors     FFT dimensions: (  36,  36,  36)

     Smooth grid:     5769 G-vectors     FFT dimensions: (  25,  25,  25)

     Estimated max dynamical RAM per process >       1.57MB

     Estimated total allocated dynamical RAM >       6.27MB

     The potential is recalculated from file :
     ./_ph0/na.fcc.save/charge-density.dat

     Starting wfc are    5 atomic +    4 random wfc

     Band Structure Calculation
     Davidson diagonalization with overlap

     ethr =  1.11E-10,  avg # of iterations = 17.1

     total cpu time spent up to now is     4502.3 secs

     End of band structure calculation

     Number of k-points >= 100: set verbosity='high' to print the bands.

     the Fermi energy is     3.6682 ev

     Writing output data file na.fcc.save

                                                                                

     bravais-lattice index     =            2
     lattice parameter (alat)  =       8.7602  a.u.
     unit-cell volume          =     168.0655 (a.u.)^3
     number of atoms/cell      =            1
     number of atomic types    =            1
     kinetic-energy cut-off    =      40.0000  Ry
     charge density cut-off    =     320.0000  Ry
     convergence threshold     =      1.0E-12
     beta                      =       0.7000
     number of iterations used =            4
     Exchange-correlation      = SLA  PW   PBE  PBE ( 1  4  3  4 0 0)


     celldm(1)=    8.76018  celldm(2)=    0.00000  celldm(3)=    0.00000
     celldm(4)=    0.00000  celldm(5)=    0.00000  celldm(6)=    0.00000

     crystal axes: (cart. coord. in units of alat)
               a(1) = ( -0.5000  0.0000  0.5000 )  
               a(2) = (  0.0000  0.5000  0.5000 )  
               a(3) = ( -0.5000  0.5000  0.0000 )  

     reciprocal axes: (cart. coord. in units 2 pi/alat)
               b(1) = ( -1.0000 -1.0000  1.0000 )  
               b(2) = (  1.0000  1.0000  1.0000 )  
               b(3) = ( -1.0000  1.0000 -1.0000 )  


     Atoms inside the unit cell: 

     Cartesian axes

     site n.  atom      mass           positions (alat units)
        1     Na  22.9900   tau(    1) = (    0.00000    0.00000    0.00000  )

     Computing dynamical matrix for 
                    q = (  -0.5000000  -1.0000000   0.0000000 )

      8 Sym.Ops. (no q -> -q+G )


     G cutoff =  622.0367  (   4088 G-vectors)     FFT grid: ( 36, 36, 36)
     G cutoff =  311.0183  (   1442 G-vectors)  smooth grid: ( 25, 25, 25)

     number of k points=  2744  Marzari-Vanderbilt smearing, width (Ry)=  0.0200

     PseudoPot. # 1 for Na read from file:
     /home/s1333534/quantum_espresso/qe-6.1/pseudo/Na_pbe_v1.uspp.F.UPF
     MD5 check sum: 76a99c7e9422403d3e93cbc85ab7bccb
     Pseudo is Ultrasoft, Zval =  9.0
     Generated by new atomic code, or converted to UPF format
     Using radial grid of  819 points,  5 beta functions with: 
                l(1) =   0
                l(2) =   0
                l(3) =   1
                l(4) =   1
                l(5) =   2
     Q(r) pseudized with  8 coefficients,  rinner =    1.250   1.250   1.250
                                                       1.250   1.250

     Mode symmetry, D_2d (-42m) point group:


     Atomic displacements:
     There are   2 irreducible representations

     Representation     1      1 modes -B_2  X_3  W_2  To be done

     Representation     2      2 modes -E    X_5  W_3  To be done



     Alpha used in Ewald sum =   2.8000
     PHONON       :     5h10m CPU        5h43m WALL



     Representation #  1 mode #   1

     Self-consistent Calculation

      iter #   1 total cpu time : 20628.6 secs   av.it.:   5.6
      thresh= 1.000E-02 alpha_mix =  0.700 |ddv_scf|^2 =  4.350E-05

      iter #   2 total cpu time : 20637.7 secs   av.it.:   7.6
      thresh= 6.596E-04 alpha_mix =  0.700 |ddv_scf|^2 =  1.429E-06

      iter #   3 total cpu time : 20646.7 secs   av.it.:   7.6
      thresh= 1.196E-04 alpha_mix =  0.700 |ddv_scf|^2 =  3.289E-08

      iter #   4 total cpu time : 20656.2 secs   av.it.:   7.9
      thresh= 1.814E-05 alpha_mix =  0.700 |ddv_scf|^2 =  6.012E-10

      iter #   5 total cpu time : 20665.0 secs   av.it.:   7.3
      thresh= 2.452E-06 alpha_mix =  0.700 |ddv_scf|^2 =  8.697E-13

     End of self-consistent calculation

     Convergence has been achieved 


     Representation #  2 modes #   2  3

     Self-consistent Calculation

      iter #   1 total cpu time : 20681.8 secs   av.it.:   5.7
      thresh= 1.000E-02 alpha_mix =  0.700 |ddv_scf|^2 =  1.581E-05

      iter #   2 total cpu time : 20700.8 secs   av.it.:   8.1
      thresh= 3.976E-04 alpha_mix =  0.700 |ddv_scf|^2 =  6.569E-07

      iter #   3 total cpu time : 20719.1 secs   av.it.:   7.8
      thresh= 8.105E-05 alpha_mix =  0.700 |ddv_scf|^2 =  1.420E-08

      iter #   4 total cpu time : 20738.9 secs   av.it.:   8.4
      thresh= 1.192E-05 alpha_mix =  0.700 |ddv_scf|^2 =  8.319E-11

      iter #   5 total cpu time : 20756.8 secs   av.it.:   7.5
      thresh= 9.121E-07 alpha_mix =  0.700 |ddv_scf|^2 =  5.723E-14

     End of self-consistent calculation

     Convergence has been achieved 

     Number of q in the star =    6
     List of q in the star:
          1  -0.500000000  -1.000000000   0.000000000
          2   0.000000000   1.000000000   0.500000000
          3   0.500000000  -1.000000000   0.000000000
          4   0.000000000   1.000000000  -0.500000000
          5  -1.000000000  -0.500000000   0.000000000
          6   0.000000000  -0.500000000  -1.000000000

     Diagonalizing the dynamical matrix

     q = (   -0.500000000  -1.000000000   0.000000000 ) 

 **************************************************************************
     freq (    1) =       4.398752 [THz] =     146.726589 [cm-1]
     freq (    2) =       5.579492 [THz] =     186.111824 [cm-1]
     freq (    3) =       5.579492 [THz] =     186.111824 [cm-1]
 **************************************************************************

     Mode symmetry, D_2d (-42m) point group:

     freq (  1 -  1) =        146.7  [cm-1]   --> B_2  X_3  W_2      
     freq (  2 -  3) =        186.1  [cm-1]   --> E    X_5  W_3      

     init_run     :      7.46s CPU      7.53s WALL (      28 calls)
     electrons    :   4015.31s CPU   4329.40s WALL (      28 calls)

     Called by init_run:
     wfcinit      :      0.00s CPU      0.00s WALL (      28 calls)
     potinit      :      0.29s CPU      0.31s WALL (      28 calls)

     Called by electrons:
     c_bands      :   4014.20s CPU   4328.28s WALL (      28 calls)
     v_of_rho     :      0.23s CPU      0.23s WALL (      29 calls)
     newd         :      0.28s CPU      0.29s WALL (      29 calls)

     Called by c_bands:
     init_us_2    :    281.49s CPU    261.62s WALL ( 3431134 calls)
     cegterg      :   3680.62s CPU   3957.18s WALL (  269874 calls)

     Called by sum_band:

     Called by *egterg:
     h_psi        :  12202.65s CPU  13443.13s WALL (28198720 calls)
     s_psi        :    409.93s CPU    443.13s WALL (54212227 calls)
     g_psi        :     17.72s CPU     31.21s WALL ( 4110133 calls)
     cdiaghg      :    932.34s CPU    889.54s WALL ( 4350037 calls)

     Called by h_psi:
     h_psi:pot    :  12128.30s CPU  13351.47s WALL (28198720 calls)
     h_psi:calbec :    305.63s CPU    376.84s WALL (28198720 calls)
     vloc_psi     :  11538.62s CPU  12625.56s WALL (28198720 calls)
     add_vuspsi   :    225.17s CPU    265.50s WALL (28198720 calls)

     General routines
     calbec       :    654.51s CPU    730.05s WALL (60132813 calls)
     fft          :      2.11s CPU      2.26s WALL (    9052 calls)
     ffts         :     21.89s CPU     23.58s WALL (  363582 calls)
     fftw         :  12534.99s CPU  13521.23s WALL (******** calls)
     interpolate  :      0.36s CPU      0.43s WALL (    1255 calls)
     davcio       :     99.24s CPU    351.99s WALL (12997252 calls)

     Parallel routines
     fft_scatter  :   3263.06s CPU   3789.02s WALL (******** calls)

     PHONON       :     5h12m CPU        5h45m WALL

     INITIALIZATION: 
     phq_setup    :      0.80s CPU      0.81s WALL (      29 calls)
     phq_init     :    328.54s CPU    348.75s WALL (      29 calls)

     phq_init     :    328.54s CPU    348.75s WALL (      29 calls)
     init_vloc    :      0.08s CPU      0.09s WALL (      29 calls)
     init_us_1    :      3.16s CPU      3.18s WALL (      29 calls)
     newd         :      0.28s CPU      0.29s WALL (      29 calls)
     dvanqq       :      1.14s CPU      1.14s WALL (      29 calls)
     drho         :    265.23s CPU    282.21s WALL (      29 calls)

     DYNAMICAL MATRIX:
     dynmat0      :     41.13s CPU     42.51s WALL (      29 calls)
     phqscf       :  14205.77s CPU  15897.13s WALL (      29 calls)
     dynmatrix    :      0.03s CPU      0.04s WALL (      29 calls)

     phqscf       :  14205.77s CPU  15897.13s WALL (      29 calls)
     solve_linter :  14138.38s CPU  15826.10s WALL (      76 calls)
     drhodv       :     67.30s CPU     70.47s WALL (      76 calls)

     dynmat0      :     41.13s CPU     42.51s WALL (      29 calls)
     dynmat_us    :     41.09s CPU     42.47s WALL (      29 calls)
     d2ionq       :      0.02s CPU      0.02s WALL (      29 calls)

     dynmat_us    :     41.09s CPU     42.47s WALL (      29 calls)
     addusdynmat  :      0.00s CPU      0.00s WALL (      29 calls)

     phqscf       :  14205.77s CPU  15897.13s WALL (      29 calls)
     solve_linter :  14138.38s CPU  15826.10s WALL (      76 calls)

     solve_linter :  14138.38s CPU  15826.10s WALL (      76 calls)
     dvqpsi_us    :    430.14s CPU    466.00s WALL (  360696 calls)
     ortho        :    130.38s CPU    151.10s WALL ( 2434698 calls)
     cgsolve      :  10963.74s CPU  12079.46s WALL ( 2434698 calls)
     incdrhoscf   :   1247.00s CPU   1389.57s WALL ( 2434698 calls)
     addusddens   :      9.05s CPU      9.14s WALL (     576 calls)
     vpsifft      :    955.60s CPU   1076.93s WALL ( 2074002 calls)
     dv_of_drho   :      2.54s CPU      2.63s WALL (     555 calls)
     mix_pot      :      0.37s CPU      1.02s WALL (     500 calls)
     ef_shift     :      0.01s CPU      0.02s WALL (       6 calls)
     localdos     :      0.13s CPU      0.14s WALL (       1 calls)
     psymdvscf    :      4.88s CPU      4.98s WALL (     457 calls)
     newdq        :      8.10s CPU      8.15s WALL (     500 calls)
     adddvscf     :     50.63s CPU     55.12s WALL ( 2074002 calls)
     drhodvus     :      0.02s CPU      0.02s WALL (      76 calls)

     dvqpsi_us    :    430.14s CPU    466.00s WALL (  360696 calls)
     dvqpsi_us_on :     83.98s CPU     79.98s WALL (  360696 calls)

     cgsolve      :  10963.74s CPU  12079.46s WALL ( 2434698 calls)
     ch_psi       :  10691.87s CPU  11808.97s WALL (23578809 calls)

     ch_psi       :  10691.87s CPU  11808.97s WALL (23578809 calls)
     h_psi        :  12202.65s CPU  13443.13s WALL (28198720 calls)
     last         :    759.31s CPU    854.88s WALL (23578809 calls)

     h_psi        :  12202.65s CPU  13443.13s WALL (28198720 calls)
     add_vuspsi   :    225.17s CPU    265.50s WALL (28198720 calls)

     incdrhoscf   :   1247.00s CPU   1389.57s WALL ( 2434698 calls)
     addusdbec    :     62.07s CPU     64.65s WALL ( 2795394 calls)

     drhodvus     :      0.02s CPU      0.02s WALL (      76 calls)

      General routines
     calbec       :    654.51s CPU    730.05s WALL (60132813 calls)
     fft          :      2.11s CPU      2.26s WALL (    9052 calls)
     ffts         :     21.89s CPU     23.58s WALL (  363582 calls)
     fftw         :  12534.99s CPU  13521.23s WALL (******** calls)
     davcio       :     99.24s CPU    351.99s WALL (12997252 calls)
     write_rec    :      0.43s CPU      2.56s WALL (     576 calls)


     PHONON       :     5h12m CPU        5h45m WALL


   This run was terminated on:  18: 4: 4  21Dec2017            

=------------------------------------------------------------------------------=
   JOB DONE.
=------------------------------------------------------------------------------=
