
     Program PWSCF v.6.1 (svn rev. 13369) starts on 21Dec2017 at 11:48:21 

     This program is part of the open-source Quantum ESPRESSO suite
     for quantum simulation of materials; please cite
         "P. Giannozzi et al., J. Phys.:Condens. Matter 21 395502 (2009);
          URL http://www.quantum-espresso.org", 
     in publications or presentations arising from this work. More details at
     http://www.quantum-espresso.org/quote

     Parallel version (MPI), running on     4 processors
     R & G space division:  proc/nbgrp/npool/nimage =       4
     Waiting for input...
     Reading input from standard input

     Current dimensions of program PWSCF are:
     Max number of different atomic species (ntypx) = 10
     Max number of k-points (npk) =  40000
     Max angular momentum in pseudopotentials (lmaxx) =  3

     Subspace diagonalization in iterative solution of the eigenvalue problem:
     a serial algorithm will be used


     Parallelization info
     --------------------
     sticks:   dense  smooth     PW     G-vecs:    dense   smooth      PW
     Min         204     102     32                 3692     1319     239
     Max         205     103     33                 3694     1321     242
     Sum         817     411    129                14771     5281     959



     bravais-lattice index     =            3
     lattice parameter (alat)  =       6.7398  a.u.
     unit-cell volume          =     153.0757 (a.u.)^3
     number of atoms/cell      =            1
     number of atomic types    =            1
     number of electrons       =         9.00
     number of Kohn-Sham states=            9
     kinetic-energy cutoff     =      40.0000  Ry
     charge density cutoff     =     320.0000  Ry
     convergence threshold     =      1.0E-08
     mixing beta               =       0.7000
     number of iterations used =            8  plain     mixing
     Exchange-correlation      = SLA  PW   PBE  PBE ( 1  4  3  4 0 0)

     celldm(1)=   6.739775  celldm(2)=   0.000000  celldm(3)=   0.000000
     celldm(4)=   0.000000  celldm(5)=   0.000000  celldm(6)=   0.000000

     crystal axes: (cart. coord. in units of alat)
               a(1) = (   0.500000   0.500000   0.500000 )  
               a(2) = (  -0.500000   0.500000   0.500000 )  
               a(3) = (  -0.500000  -0.500000   0.500000 )  

     reciprocal axes: (cart. coord. in units 2 pi/alat)
               b(1) = (  1.000000  0.000000  1.000000 )  
               b(2) = ( -1.000000  1.000000  0.000000 )  
               b(3) = (  0.000000 -1.000000  1.000000 )  


     PseudoPot. # 1 for Na read from file:
     /home/s1333534/quantum_espresso/qe-6.1/pseudo/Na_pbe_v1.uspp.F.UPF
     MD5 check sum: 76a99c7e9422403d3e93cbc85ab7bccb
     Pseudo is Ultrasoft, Zval =  9.0
     Generated by new atomic code, or converted to UPF format
     Using radial grid of  819 points,  5 beta functions with: 
                l(1) =   0
                l(2) =   0
                l(3) =   1
                l(4) =   1
                l(5) =   2
     Q(r) pseudized with  8 coefficients,  rinner =    1.250   1.250   1.250
                                                       1.250   1.250

     atomic species   valence    mass     pseudopotential
        Na             9.00    22.99000     Na( 1.00)

     48 Sym. Ops., with inversion, found



   Cartesian axes

     site n.     atom                  positions (alat units)
         1           Na  tau(   1) = (   0.0000000   0.0000000   0.0000000  )

     number of k points=   100  Marzari-Vanderbilt smearing, width (Ry)=  0.0200

     Number of k-points >= 100: set verbosity='high' to print them.

     Dense  grid:    14771 G-vectors     FFT dimensions: (  36,  36,  36)

     Smooth grid:     5281 G-vectors     FFT dimensions: (  24,  24,  24)

     Estimated max dynamical RAM per process >       4.78MB

     Estimated total allocated dynamical RAM >      19.10MB

     Initial potential from superposition of free atoms

     starting charge    8.99371, renormalised to    9.00000
     Starting wfc are    5 randomized atomic wfcs +    4 random wfc

     total cpu time spent up to now is        0.4 secs

     per-process dynamical memory:     9.5 Mb

     Self-consistent Calculation

     iteration #  1     ecut=    40.00 Ry     beta=0.70
     Davidson diagonalization with overlap
     ethr =  1.00E-02,  avg # of iterations =  5.5

     Threshold (ethr) on eigenvalues was too large:
     Diagonalizing with lowered threshold

     Davidson diagonalization with overlap
     ethr =  1.71E-05,  avg # of iterations =  3.2

     total cpu time spent up to now is        1.5 secs

     total energy              =     -95.08548007 Ry
     Harris-Foulkes estimate   =     -95.08605060 Ry
     estimated scf accuracy    <       0.00153727 Ry

     iteration #  2     ecut=    40.00 Ry     beta=0.70
     Davidson diagonalization with overlap
     ethr =  1.71E-05,  avg # of iterations =  2.0

     total cpu time spent up to now is        1.9 secs

     total energy              =     -95.08568894 Ry
     Harris-Foulkes estimate   =     -95.08573465 Ry
     estimated scf accuracy    <       0.00017612 Ry

     iteration #  3     ecut=    40.00 Ry     beta=0.70
     Davidson diagonalization with overlap
     ethr =  1.96E-06,  avg # of iterations =  2.2

     total cpu time spent up to now is        2.3 secs

     total energy              =     -95.08571096 Ry
     Harris-Foulkes estimate   =     -95.08571211 Ry
     estimated scf accuracy    <       0.00001033 Ry

     iteration #  4     ecut=    40.00 Ry     beta=0.70
     Davidson diagonalization with overlap
     ethr =  1.15E-07,  avg # of iterations =  1.0

     total cpu time spent up to now is        2.6 secs

     total energy              =     -95.08571185 Ry
     Harris-Foulkes estimate   =     -95.08571179 Ry
     estimated scf accuracy    <       0.00000001 Ry

     iteration #  5     ecut=    40.00 Ry     beta=0.70
     Davidson diagonalization with overlap
     ethr =  1.58E-10,  avg # of iterations =  3.0

     total cpu time spent up to now is        3.1 secs

     End of self-consistent calculation

     Number of k-points >= 100: set verbosity='high' to print the bands.

     the Fermi energy is     4.3242 ev

!    total energy              =     -95.08571189 Ry
     Harris-Foulkes estimate   =     -95.08571188 Ry
     estimated scf accuracy    <          1.9E-09 Ry

     The total energy is the sum of the following terms:

     one-electron contribution =     -76.63657523 Ry
     hartree contribution      =      39.63098887 Ry
     xc contribution           =     -14.34300331 Ry
     ewald contribution        =     -43.73705467 Ry
     smearing contrib. (-TS)   =      -0.00006754 Ry

     convergence has been achieved in   5 iterations


     Computing stress (Cartesian axis) and pressure

          total   stress  (Ry/bohr**3)                   (kbar)     P=   89.74
   0.00061001   0.00000000  -0.00000000         89.74      0.00     -0.00
   0.00000000   0.00061001   0.00000000          0.00     89.74      0.00
  -0.00000000   0.00000000   0.00061001         -0.00      0.00     89.74


     Writing output data file na.bcc.save

     init_run     :      0.26s CPU      0.34s WALL (       1 calls)
     electrons    :      2.54s CPU      2.63s WALL (       1 calls)
     stress       :      0.19s CPU      0.19s WALL (       1 calls)

     Called by init_run:
     wfcinit      :      0.12s CPU      0.16s WALL (       1 calls)
     potinit      :      0.02s CPU      0.02s WALL (       1 calls)

     Called by electrons:
     c_bands      :      2.03s CPU      2.10s WALL (       6 calls)
     sum_band     :      0.42s CPU      0.43s WALL (       6 calls)
     v_of_rho     :      0.05s CPU      0.05s WALL (       6 calls)
     newd         :      0.05s CPU      0.06s WALL (       6 calls)
     mix_rho      :      0.00s CPU      0.02s WALL (       6 calls)

     Called by c_bands:
     init_us_2    :      0.12s CPU      0.11s WALL (    1400 calls)
     cegterg      :      1.93s CPU      2.00s WALL (     600 calls)

     Called by sum_band:
     sum_band:bec :      0.00s CPU      0.00s WALL (     600 calls)
     addusdens    :      0.07s CPU      0.07s WALL (       6 calls)

     Called by *egterg:
     h_psi        :      1.48s CPU      1.55s WALL (    2395 calls)
     s_psi        :      0.02s CPU      0.02s WALL (    2395 calls)
     g_psi        :      0.01s CPU      0.01s WALL (    1695 calls)
     cdiaghg      :      0.34s CPU      0.36s WALL (    2195 calls)

     Called by h_psi:
     h_psi:pot    :      1.47s CPU      1.54s WALL (    2395 calls)
     h_psi:calbec :      0.04s CPU      0.06s WALL (    2395 calls)
     vloc_psi     :      1.40s CPU      1.45s WALL (    2395 calls)
     add_vuspsi   :      0.02s CPU      0.03s WALL (    2395 calls)

     General routines
     calbec       :      0.05s CPU      0.07s WALL (    3095 calls)
     fft          :      0.03s CPU      0.05s WALL (     101 calls)
     ffts         :      0.00s CPU      0.00s WALL (      12 calls)
     fftw         :      1.53s CPU      1.47s WALL (   35032 calls)
     interpolate  :      0.01s CPU      0.01s WALL (      12 calls)
     davcio       :      0.00s CPU      0.00s WALL (     100 calls)

     Parallel routines
     fft_scatter  :      0.26s CPU      0.31s WALL (   35145 calls)

     PWSCF        :     3.13s CPU         3.38s WALL


   This run was terminated on:  11:48:25  21Dec2017            

=------------------------------------------------------------------------------=
   JOB DONE.
=------------------------------------------------------------------------------=
