
     Program PHONON v.6.1 (svn rev. 13369) starts on 21Dec2017 at 11:48:25 

     This program is part of the open-source Quantum ESPRESSO suite
     for quantum simulation of materials; please cite
         "P. Giannozzi et al., J. Phys.:Condens. Matter 21 395502 (2009);
          URL http://www.quantum-espresso.org", 
     in publications or presentations arising from this work. More details at
     http://www.quantum-espresso.org/quote

     Parallel version (MPI), running on     4 processors
     R & G space division:  proc/nbgrp/npool/nimage =       4

     Reading data from directory:
     ./na.bcc.save

   Info: using nr1, nr2, nr3 values from input

   Info: using nr1, nr2, nr3 values from input

     IMPORTANT: XC functional enforced from input :
     Exchange-correlation      = SLA  PW   PBE  PBE ( 1  4  3  4 0 0)
     Any further DFT definition will be discarded
     Please, verify this is what you really want


     Parallelization info
     --------------------
     sticks:   dense  smooth     PW     G-vecs:    dense   smooth      PW
     Min         204     102     32                 3692     1319     239
     Max         205     103     33                 3694     1321     242
     Sum         817     411    129                14771     5281     959



     Dynamical matrices for ( 8, 8, 8)  uniform grid of q-points
     (  29q-points):
       N         xq(1)         xq(2)         xq(3) 
       1   0.000000000   0.000000000   0.000000000
       2   0.000000000  -0.125000000   0.125000000
       3   0.000000000  -0.250000000   0.250000000
       4   0.000000000  -0.375000000   0.375000000
       5   0.000000000   0.500000000  -0.500000000
       6  -0.125000000  -0.125000000   0.250000000
       7  -0.125000000  -0.250000000   0.375000000
       8  -0.125000000   0.625000000  -0.500000000
       9  -0.250000000   0.750000000  -0.500000000
      10  -0.250000000   0.625000000  -0.375000000
      11   0.000000000   0.000000000   0.250000000
      12   0.000000000  -0.125000000   0.375000000
      13   0.000000000  -0.250000000   0.500000000
      14   0.000000000   0.625000000  -0.375000000
      15  -0.125000000  -0.125000000   0.500000000
      16  -0.125000000   0.750000000  -0.375000000
      17  -0.250000000   0.250000000   0.250000000
      18  -0.250000000   0.750000000  -0.250000000
      19   0.625000000  -0.625000000   0.250000000
      20   0.500000000  -0.500000000   0.250000000
      21   0.500000000  -0.625000000   0.375000000
      22   0.000000000   0.000000000   0.500000000
      23   0.000000000  -0.125000000   0.625000000
      24   0.000000000   0.750000000  -0.250000000
      25  -0.125000000   0.875000000  -0.250000000
      26   0.500000000  -0.500000000   0.500000000
      27   0.000000000   0.000000000   0.750000000
      28   0.000000000   0.875000000  -0.125000000
      29   0.000000000   0.000000000  -1.000000000

     Calculation of q =    0.0000000   0.0000000   0.0000000

                                                                                

     bravais-lattice index     =            3
     lattice parameter (alat)  =       6.7398  a.u.
     unit-cell volume          =     153.0757 (a.u.)^3
     number of atoms/cell      =            1
     number of atomic types    =            1
     kinetic-energy cut-off    =      40.0000  Ry
     charge density cut-off    =     320.0000  Ry
     convergence threshold     =      1.0E-12
     beta                      =       0.7000
     number of iterations used =            4
     Exchange-correlation      = SLA  PW   PBE  PBE ( 1  4  3  4 0 0)


     celldm(1)=    6.73978  celldm(2)=    0.00000  celldm(3)=    0.00000
     celldm(4)=    0.00000  celldm(5)=    0.00000  celldm(6)=    0.00000

     crystal axes: (cart. coord. in units of alat)
               a(1) = (  0.5000  0.5000  0.5000 )  
               a(2) = ( -0.5000  0.5000  0.5000 )  
               a(3) = ( -0.5000 -0.5000  0.5000 )  

     reciprocal axes: (cart. coord. in units 2 pi/alat)
               b(1) = (  1.0000  0.0000  1.0000 )  
               b(2) = ( -1.0000  1.0000  0.0000 )  
               b(3) = (  0.0000 -1.0000  1.0000 )  


     Atoms inside the unit cell: 

     Cartesian axes

     site n.  atom      mass           positions (alat units)
        1     Na  22.9900   tau(    1) = (    0.00000    0.00000    0.00000  )

     Computing dynamical matrix for 
                    q = (   0.0000000   0.0000000   0.0000000 )

     49 Sym.Ops. (with q -> -q+G )


     G cutoff =  368.1977  (   3694 G-vectors)     FFT grid: ( 36, 36, 36)
     G cutoff =  184.0988  (   1321 G-vectors)  smooth grid: ( 24, 24, 24)

     number of k points=   100  Marzari-Vanderbilt smearing, width (Ry)=  0.0200

     PseudoPot. # 1 for Na read from file:
     /home/s1333534/quantum_espresso/qe-6.1/pseudo/Na_pbe_v1.uspp.F.UPF
     MD5 check sum: 76a99c7e9422403d3e93cbc85ab7bccb
     Pseudo is Ultrasoft, Zval =  9.0
     Generated by new atomic code, or converted to UPF format
     Using radial grid of  819 points,  5 beta functions with: 
                l(1) =   0
                l(2) =   0
                l(3) =   1
                l(4) =   1
                l(5) =   2
     Q(r) pseudized with  8 coefficients,  rinner =    1.250   1.250   1.250
                                                       1.250   1.250

     Mode symmetry, O_h (m-3m)  point group:


     Atomic displacements:
     There are   1 irreducible representations

     Representation     1      3 modes -T_1u G_15  G_4-  To be done



     Alpha used in Ewald sum =   2.8000
     PHONON       :     0.89s CPU         0.94s WALL



     Representation #  1 modes #   1  2  3

     Self-consistent Calculation

     Pert. #  1: Fermi energy shift (Ry) =     2.5505E-24     5.8775E-39
     Pert. #  2: Fermi energy shift (Ry) =    -2.5160E-24     3.8204E-38
     Pert. #  3: Fermi energy shift (Ry) =    -1.1891E-24     3.5265E-38

      iter #   1 total cpu time :     2.8 secs   av.it.:   5.5
      thresh= 1.000E-02 alpha_mix =  0.700 |ddv_scf|^2 =  2.724E-06

     Pert. #  1: Fermi energy shift (Ry) =    -8.2718E-25    -3.7959E-39
     Pert. #  2: Fermi energy shift (Ry) =     5.5145E-25     5.5101E-40
     Pert. #  3: Fermi energy shift (Ry) =     1.1029E-24     1.2245E-39

      iter #   2 total cpu time :     4.8 secs   av.it.:   8.3
      thresh= 1.650E-04 alpha_mix =  0.700 |ddv_scf|^2 =  5.474E-08

     Pert. #  1: Fermi energy shift (Ry) =     1.3786E-25    -9.7958E-40
     Pert. #  2: Fermi energy shift (Ry) =    -6.8932E-25     3.9795E-40
     Pert. #  3: Fermi energy shift (Ry) =     6.2039E-25     1.2245E-40

      iter #   3 total cpu time :     6.8 secs   av.it.:   8.5
      thresh= 2.340E-05 alpha_mix =  0.700 |ddv_scf|^2 =  5.070E-10

     Pert. #  1: Fermi energy shift (Ry) =     1.7922E-24     2.7551E-40
     Pert. #  2: Fermi energy shift (Ry) =    -1.3786E-25    -1.9132E-40
     Pert. #  3: Fermi energy shift (Ry) =    -3.4466E-25     5.3571E-41

      iter #   4 total cpu time :     8.8 secs   av.it.:   8.0
      thresh= 2.252E-06 alpha_mix =  0.700 |ddv_scf|^2 =  1.515E-12

     Pert. #  1: Fermi energy shift (Ry) =    -9.6504E-25    -1.9898E-40
     Pert. #  2: Fermi energy shift (Ry) =     2.0680E-25    -9.1835E-41
     Pert. #  3: Fermi energy shift (Ry) =    -2.7573E-25     1.2245E-40

      iter #   5 total cpu time :    10.8 secs   av.it.:   8.3
      thresh= 1.231E-07 alpha_mix =  0.700 |ddv_scf|^2 =  9.616E-15

     End of self-consistent calculation

     Convergence has been achieved 

     Number of q in the star =    1
     List of q in the star:
          1   0.000000000   0.000000000   0.000000000

     Diagonalizing the dynamical matrix

     q = (    0.000000000   0.000000000   0.000000000 ) 

 **************************************************************************
     freq (    1) =       0.391754 [THz] =      13.067496 [cm-1]
     freq (    2) =       0.391754 [THz] =      13.067496 [cm-1]
     freq (    3) =       0.391754 [THz] =      13.067496 [cm-1]
 **************************************************************************

     Mode symmetry, O_h (m-3m)  point group:

     freq (  1 -  3) =         13.1  [cm-1]   --> T_1u G_15  G_4- I  

     Calculation of q =    0.0000000  -0.1250000   0.1250000

   Info: using nr1, nr2, nr3 values from input

   Info: using nr1, nr2, nr3 values from input

     Parallelization info
     --------------------
     sticks:   dense  smooth     PW     G-vecs:    dense   smooth      PW
     Min         204     102     34                 3692     1319     263
     Max         205     103     35                 3694     1321     265
     Sum         817     411    137                14771     5281    1055



     bravais-lattice index     =            3
     lattice parameter (alat)  =       6.7398  a.u.
     unit-cell volume          =     153.0757 (a.u.)^3
     number of atoms/cell      =            1
     number of atomic types    =            1
     number of electrons       =         9.00
     number of Kohn-Sham states=            9
     kinetic-energy cutoff     =      40.0000  Ry
     charge density cutoff     =     320.0000  Ry
     Exchange-correlation      = SLA  PW   PBE  PBE ( 1  4  3  4 0 0)

     celldm(1)=   6.739775  celldm(2)=   0.000000  celldm(3)=   0.000000
     celldm(4)=   0.000000  celldm(5)=   0.000000  celldm(6)=   0.000000

     crystal axes: (cart. coord. in units of alat)
               a(1) = (   0.500000   0.500000   0.500000 )  
               a(2) = (  -0.500000   0.500000   0.500000 )  
               a(3) = (  -0.500000  -0.500000   0.500000 )  

     reciprocal axes: (cart. coord. in units 2 pi/alat)
               b(1) = (  1.000000  0.000000  1.000000 )  
               b(2) = ( -1.000000  1.000000  0.000000 )  
               b(3) = (  0.000000 -1.000000  1.000000 )  


     PseudoPot. # 1 for Na read from file:
     /home/s1333534/quantum_espresso/qe-6.1/pseudo/Na_pbe_v1.uspp.F.UPF
     MD5 check sum: 76a99c7e9422403d3e93cbc85ab7bccb
     Pseudo is Ultrasoft, Zval =  9.0
     Generated by new atomic code, or converted to UPF format
     Using radial grid of  819 points,  5 beta functions with: 
                l(1) =   0
                l(2) =   0
                l(3) =   1
                l(4) =   1
                l(5) =   2
     Q(r) pseudized with  8 coefficients,  rinner =    1.250   1.250   1.250
                                                       1.250   1.250

     atomic species   valence    mass     pseudopotential
        Na             9.00    22.99000     Na( 1.00)

     48 Sym. Ops., with inversion, found



   Cartesian axes

     site n.     atom                  positions (alat units)
         1           Na  tau(   1) = (   0.0000000   0.0000000   0.0000000  )

     number of k points=  1568  Marzari-Vanderbilt smearing, width (Ry)=  0.0200

     Number of k-points >= 100: set verbosity='high' to print them.

     Dense  grid:    14771 G-vectors     FFT dimensions: (  36,  36,  36)

     Smooth grid:     5281 G-vectors     FFT dimensions: (  24,  24,  24)

     Estimated max dynamical RAM per process >       1.49MB

     Estimated total allocated dynamical RAM >       5.96MB

     The potential is recalculated from file :
     ./_ph0/na.bcc.save/charge-density.dat

     Starting wfc are    5 atomic +    4 random wfc

     Band Structure Calculation
     Davidson diagonalization with overlap

     ethr =  1.11E-10,  avg # of iterations = 17.9

     total cpu time spent up to now is       26.8 secs

     End of band structure calculation

     Number of k-points >= 100: set verbosity='high' to print the bands.

     the Fermi energy is     4.3242 ev

     Writing output data file na.bcc.save

                                                                                

     bravais-lattice index     =            3
     lattice parameter (alat)  =       6.7398  a.u.
     unit-cell volume          =     153.0757 (a.u.)^3
     number of atoms/cell      =            1
     number of atomic types    =            1
     kinetic-energy cut-off    =      40.0000  Ry
     charge density cut-off    =     320.0000  Ry
     convergence threshold     =      1.0E-12
     beta                      =       0.7000
     number of iterations used =            4
     Exchange-correlation      = SLA  PW   PBE  PBE ( 1  4  3  4 0 0)


     celldm(1)=    6.73978  celldm(2)=    0.00000  celldm(3)=    0.00000
     celldm(4)=    0.00000  celldm(5)=    0.00000  celldm(6)=    0.00000

     crystal axes: (cart. coord. in units of alat)
               a(1) = (  0.5000  0.5000  0.5000 )  
               a(2) = ( -0.5000  0.5000  0.5000 )  
               a(3) = ( -0.5000 -0.5000  0.5000 )  

     reciprocal axes: (cart. coord. in units 2 pi/alat)
               b(1) = (  1.0000  0.0000  1.0000 )  
               b(2) = ( -1.0000  1.0000  0.0000 )  
               b(3) = (  0.0000 -1.0000  1.0000 )  


     Atoms inside the unit cell: 

     Cartesian axes

     site n.  atom      mass           positions (alat units)
        1     Na  22.9900   tau(    1) = (    0.00000    0.00000    0.00000  )

     Computing dynamical matrix for 
                    q = (   0.0000000  -0.1250000   0.1250000 )

      4 Sym.Ops. (no q -> -q+G )


     G cutoff =  368.1977  (   3694 G-vectors)     FFT grid: ( 36, 36, 36)
     G cutoff =  184.0988  (   1321 G-vectors)  smooth grid: ( 24, 24, 24)

     number of k points=  1568  Marzari-Vanderbilt smearing, width (Ry)=  0.0200

     PseudoPot. # 1 for Na read from file:
     /home/s1333534/quantum_espresso/qe-6.1/pseudo/Na_pbe_v1.uspp.F.UPF
     MD5 check sum: 76a99c7e9422403d3e93cbc85ab7bccb
     Pseudo is Ultrasoft, Zval =  9.0
     Generated by new atomic code, or converted to UPF format
     Using radial grid of  819 points,  5 beta functions with: 
                l(1) =   0
                l(2) =   0
                l(3) =   1
                l(4) =   1
                l(5) =   2
     Q(r) pseudized with  8 coefficients,  rinner =    1.250   1.250   1.250
                                                       1.250   1.250

     Mode symmetry, C_2v (mm2)  point group:


     Atomic displacements:
     There are   3 irreducible representations

     Representation     1      1 modes -A_1  D_1  S_1  To be done

     Representation     2      1 modes -B_1  D_3  S_3  To be done

     Representation     3      1 modes -B_2  D_4  S_4  To be done



     Alpha used in Ewald sum =   2.8000
     PHONON       :    39.24s CPU        40.95s WALL



     Representation #  1 mode #   1

     Self-consistent Calculation

      iter #   1 total cpu time :    45.1 secs   av.it.:   5.6
      thresh= 1.000E-02 alpha_mix =  0.700 |ddv_scf|^2 =  3.561E-01

      iter #   2 total cpu time :    49.5 secs   av.it.:   7.1
      thresh= 1.000E-02 alpha_mix =  0.700 |ddv_scf|^2 =  1.306E+02

      iter #   3 total cpu time :    53.8 secs   av.it.:   7.1
      thresh= 1.000E-02 alpha_mix =  0.700 |ddv_scf|^2 =  2.334E-04

      iter #   4 total cpu time :    57.3 secs   av.it.:   5.4
      thresh= 1.528E-03 alpha_mix =  0.700 |ddv_scf|^2 =  6.564E-07

      iter #   5 total cpu time :    61.5 secs   av.it.:   6.9
      thresh= 8.102E-05 alpha_mix =  0.700 |ddv_scf|^2 =  9.155E-09

      iter #   6 total cpu time :    65.8 secs   av.it.:   7.1
      thresh= 9.568E-06 alpha_mix =  0.700 |ddv_scf|^2 =  1.534E-07

      iter #   7 total cpu time :    68.5 secs   av.it.:   3.7
      thresh= 3.916E-05 alpha_mix =  0.700 |ddv_scf|^2 =  9.554E-10

      iter #   8 total cpu time :    72.8 secs   av.it.:   6.9
      thresh= 3.091E-06 alpha_mix =  0.700 |ddv_scf|^2 =  4.649E-11

      iter #   9 total cpu time :    77.0 secs   av.it.:   6.8
      thresh= 6.818E-07 alpha_mix =  0.700 |ddv_scf|^2 =  1.235E-13

     End of self-consistent calculation

     Convergence has been achieved 


     Representation #  2 mode #   2

     Self-consistent Calculation

      iter #   1 total cpu time :    81.2 secs   av.it.:   5.4
      thresh= 1.000E-02 alpha_mix =  0.700 |ddv_scf|^2 =  2.469E-05

      iter #   2 total cpu time :    85.6 secs   av.it.:   7.3
      thresh= 4.968E-04 alpha_mix =  0.700 |ddv_scf|^2 =  4.888E-07

      iter #   3 total cpu time :    90.1 secs   av.it.:   7.5
      thresh= 6.992E-05 alpha_mix =  0.700 |ddv_scf|^2 =  4.879E-09

      iter #   4 total cpu time :    94.4 secs   av.it.:   7.2
      thresh= 6.985E-06 alpha_mix =  0.700 |ddv_scf|^2 =  1.449E-11

      iter #   5 total cpu time :    98.8 secs   av.it.:   7.3
      thresh= 3.806E-07 alpha_mix =  0.700 |ddv_scf|^2 =  8.228E-14

     End of self-consistent calculation

     Convergence has been achieved 


     Representation #  3 mode #   3

     Self-consistent Calculation

      iter #   1 total cpu time :   103.1 secs   av.it.:   5.4
      thresh= 1.000E-02 alpha_mix =  0.700 |ddv_scf|^2 =  2.524E-05

      iter #   2 total cpu time :   107.4 secs   av.it.:   7.3
      thresh= 5.023E-04 alpha_mix =  0.700 |ddv_scf|^2 =  4.861E-07

      iter #   3 total cpu time :   111.9 secs   av.it.:   7.5
      thresh= 6.972E-05 alpha_mix =  0.700 |ddv_scf|^2 =  5.817E-09

      iter #   4 total cpu time :   116.3 secs   av.it.:   7.2
      thresh= 7.627E-06 alpha_mix =  0.700 |ddv_scf|^2 =  1.776E-11

      iter #   5 total cpu time :   120.7 secs   av.it.:   7.3
      thresh= 4.214E-07 alpha_mix =  0.700 |ddv_scf|^2 =  8.068E-14

     End of self-consistent calculation

     Convergence has been achieved 

     Number of q in the star =   12
     List of q in the star:
          1   0.000000000  -0.125000000   0.125000000
          2   0.125000000   0.000000000   0.125000000
          3  -0.125000000   0.000000000   0.125000000
          4   0.000000000   0.125000000   0.125000000
          5   0.125000000  -0.125000000   0.000000000
          6  -0.125000000   0.000000000  -0.125000000
          7   0.125000000   0.000000000  -0.125000000
          8   0.000000000  -0.125000000  -0.125000000
          9  -0.125000000  -0.125000000   0.000000000
         10  -0.125000000   0.125000000   0.000000000
         11   0.125000000   0.125000000   0.000000000
         12   0.000000000   0.125000000  -0.125000000

     Diagonalizing the dynamical matrix

     q = (    0.000000000  -0.125000000   0.125000000 ) 

 **************************************************************************
     freq (    1) =       1.258283 [THz] =      41.971813 [cm-1]
     freq (    2) =       1.665345 [THz] =      55.549924 [cm-1]
     freq (    3) =       2.977836 [THz] =      99.329906 [cm-1]
 **************************************************************************

     Mode symmetry, C_2v (mm2)  point group:

     freq (  1 -  1) =         42.0  [cm-1]   --> B_1  D_3  S_3      
     freq (  2 -  2) =         55.5  [cm-1]   --> B_2  D_4  S_4      
     freq (  3 -  3) =         99.3  [cm-1]   --> A_1  D_1  S_1      

     Calculation of q =    0.0000000  -0.2500000   0.2500000

   Info: using nr1, nr2, nr3 values from input

   Info: using nr1, nr2, nr3 values from input

     Parallelization info
     --------------------
     sticks:   dense  smooth     PW     G-vecs:    dense   smooth      PW
     Min         204     102     34                 3692     1319     265
     Max         205     103     35                 3694     1321     266
     Sum         817     411    139                14771     5281    1061



     bravais-lattice index     =            3
     lattice parameter (alat)  =       6.7398  a.u.
     unit-cell volume          =     153.0757 (a.u.)^3
     number of atoms/cell      =            1
     number of atomic types    =            1
     number of electrons       =         9.00
     number of Kohn-Sham states=            9
     kinetic-energy cutoff     =      40.0000  Ry
     charge density cutoff     =     320.0000  Ry
     Exchange-correlation      = SLA  PW   PBE  PBE ( 1  4  3  4 0 0)

     celldm(1)=   6.739775  celldm(2)=   0.000000  celldm(3)=   0.000000
     celldm(4)=   0.000000  celldm(5)=   0.000000  celldm(6)=   0.000000

     crystal axes: (cart. coord. in units of alat)
               a(1) = (   0.500000   0.500000   0.500000 )  
               a(2) = (  -0.500000   0.500000   0.500000 )  
               a(3) = (  -0.500000  -0.500000   0.500000 )  

     reciprocal axes: (cart. coord. in units 2 pi/alat)
               b(1) = (  1.000000  0.000000  1.000000 )  
               b(2) = ( -1.000000  1.000000  0.000000 )  
               b(3) = (  0.000000 -1.000000  1.000000 )  


     PseudoPot. # 1 for Na read from file:
     /home/s1333534/quantum_espresso/qe-6.1/pseudo/Na_pbe_v1.uspp.F.UPF
     MD5 check sum: 76a99c7e9422403d3e93cbc85ab7bccb
     Pseudo is Ultrasoft, Zval =  9.0
     Generated by new atomic code, or converted to UPF format
     Using radial grid of  819 points,  5 beta functions with: 
                l(1) =   0
                l(2) =   0
                l(3) =   1
                l(4) =   1
                l(5) =   2
     Q(r) pseudized with  8 coefficients,  rinner =    1.250   1.250   1.250
                                                       1.250   1.250

     atomic species   valence    mass     pseudopotential
        Na             9.00    22.99000     Na( 1.00)

     48 Sym. Ops., with inversion, found



   Cartesian axes

     site n.     atom                  positions (alat units)
         1           Na  tau(   1) = (   0.0000000   0.0000000   0.0000000  )

     number of k points=  1568  Marzari-Vanderbilt smearing, width (Ry)=  0.0200

     Number of k-points >= 100: set verbosity='high' to print them.

     Dense  grid:    14771 G-vectors     FFT dimensions: (  36,  36,  36)

     Smooth grid:     5281 G-vectors     FFT dimensions: (  24,  24,  24)

     Estimated max dynamical RAM per process >       1.49MB

     Estimated total allocated dynamical RAM >       5.96MB

     The potential is recalculated from file :
     ./_ph0/na.bcc.save/charge-density.dat

     Starting wfc are    5 atomic +    4 random wfc

     Band Structure Calculation
     Davidson diagonalization with overlap

     ethr =  1.11E-10,  avg # of iterations = 17.9

     total cpu time spent up to now is       54.7 secs

     End of band structure calculation

     Number of k-points >= 100: set verbosity='high' to print the bands.

     the Fermi energy is     4.3242 ev

     Writing output data file na.bcc.save

                                                                                

     bravais-lattice index     =            3
     lattice parameter (alat)  =       6.7398  a.u.
     unit-cell volume          =     153.0757 (a.u.)^3
     number of atoms/cell      =            1
     number of atomic types    =            1
     kinetic-energy cut-off    =      40.0000  Ry
     charge density cut-off    =     320.0000  Ry
     convergence threshold     =      1.0E-12
     beta                      =       0.7000
     number of iterations used =            4
     Exchange-correlation      = SLA  PW   PBE  PBE ( 1  4  3  4 0 0)


     celldm(1)=    6.73978  celldm(2)=    0.00000  celldm(3)=    0.00000
     celldm(4)=    0.00000  celldm(5)=    0.00000  celldm(6)=    0.00000

     crystal axes: (cart. coord. in units of alat)
               a(1) = (  0.5000  0.5000  0.5000 )  
               a(2) = ( -0.5000  0.5000  0.5000 )  
               a(3) = ( -0.5000 -0.5000  0.5000 )  

     reciprocal axes: (cart. coord. in units 2 pi/alat)
               b(1) = (  1.0000  0.0000  1.0000 )  
               b(2) = ( -1.0000  1.0000  0.0000 )  
               b(3) = (  0.0000 -1.0000  1.0000 )  


     Atoms inside the unit cell: 

     Cartesian axes

     site n.  atom      mass           positions (alat units)
        1     Na  22.9900   tau(    1) = (    0.00000    0.00000    0.00000  )

     Computing dynamical matrix for 
                    q = (   0.0000000  -0.2500000   0.2500000 )

      4 Sym.Ops. (no q -> -q+G )


     G cutoff =  368.1977  (   3694 G-vectors)     FFT grid: ( 36, 36, 36)
     G cutoff =  184.0988  (   1321 G-vectors)  smooth grid: ( 24, 24, 24)

     number of k points=  1568  Marzari-Vanderbilt smearing, width (Ry)=  0.0200

     PseudoPot. # 1 for Na read from file:
     /home/s1333534/quantum_espresso/qe-6.1/pseudo/Na_pbe_v1.uspp.F.UPF
     MD5 check sum: 76a99c7e9422403d3e93cbc85ab7bccb
     Pseudo is Ultrasoft, Zval =  9.0
     Generated by new atomic code, or converted to UPF format
     Using radial grid of  819 points,  5 beta functions with: 
                l(1) =   0
                l(2) =   0
                l(3) =   1
                l(4) =   1
                l(5) =   2
     Q(r) pseudized with  8 coefficients,  rinner =    1.250   1.250   1.250
                                                       1.250   1.250

     Mode symmetry, C_2v (mm2)  point group:


     Atomic displacements:
     There are   3 irreducible representations

     Representation     1      1 modes -A_1  D_1  S_1  To be done

     Representation     2      1 modes -B_1  D_3  S_3  To be done

     Representation     3      1 modes -B_2  D_4  S_4  To be done



     Alpha used in Ewald sum =   2.8000
     PHONON       :  2m24.36s CPU     2m30.98s WALL



     Representation #  1 mode #   1

     Self-consistent Calculation

      iter #   1 total cpu time :   155.2 secs   av.it.:   5.7
      thresh= 1.000E-02 alpha_mix =  0.700 |ddv_scf|^2 =  5.840E-03

      iter #   2 total cpu time :   159.1 secs   av.it.:   6.3
      thresh= 7.642E-03 alpha_mix =  0.700 |ddv_scf|^2 =  1.035E-01

      iter #   3 total cpu time :   162.9 secs   av.it.:   6.0
      thresh= 1.000E-02 alpha_mix =  0.700 |ddv_scf|^2 =  4.954E-06

      iter #   4 total cpu time :   167.2 secs   av.it.:   7.2
      thresh= 2.226E-04 alpha_mix =  0.700 |ddv_scf|^2 =  2.544E-08

      iter #   5 total cpu time :   171.8 secs   av.it.:   7.8
      thresh= 1.595E-05 alpha_mix =  0.700 |ddv_scf|^2 =  3.637E-09

      iter #   6 total cpu time :   176.3 secs   av.it.:   7.6
      thresh= 6.031E-06 alpha_mix =  0.700 |ddv_scf|^2 =  5.107E-11

      iter #   7 total cpu time :   180.8 secs   av.it.:   7.6
      thresh= 7.146E-07 alpha_mix =  0.700 |ddv_scf|^2 =  1.464E-11

      iter #   8 total cpu time :   184.7 secs   av.it.:   6.2
      thresh= 3.826E-07 alpha_mix =  0.700 |ddv_scf|^2 =  3.000E-11

      iter #   9 total cpu time :   188.5 secs   av.it.:   6.0
      thresh= 5.478E-07 alpha_mix =  0.700 |ddv_scf|^2 =  4.320E-13

     End of self-consistent calculation

     Convergence has been achieved 


     Representation #  2 mode #   2

     Self-consistent Calculation

      iter #   1 total cpu time :   192.7 secs   av.it.:   5.5
      thresh= 1.000E-02 alpha_mix =  0.700 |ddv_scf|^2 =  2.518E-05

      iter #   2 total cpu time :   197.1 secs   av.it.:   7.4
      thresh= 5.018E-04 alpha_mix =  0.700 |ddv_scf|^2 =  4.759E-07

      iter #   3 total cpu time :   201.6 secs   av.it.:   7.6
      thresh= 6.899E-05 alpha_mix =  0.700 |ddv_scf|^2 =  5.911E-09

      iter #   4 total cpu time :   205.9 secs   av.it.:   7.3
      thresh= 7.688E-06 alpha_mix =  0.700 |ddv_scf|^2 =  1.710E-11

      iter #   5 total cpu time :   210.3 secs   av.it.:   7.4
      thresh= 4.136E-07 alpha_mix =  0.700 |ddv_scf|^2 =  7.059E-14

     End of self-consistent calculation

     Convergence has been achieved 


     Representation #  3 mode #   3

     Self-consistent Calculation

      iter #   1 total cpu time :   214.6 secs   av.it.:   5.5
      thresh= 1.000E-02 alpha_mix =  0.700 |ddv_scf|^2 =  2.709E-05

      iter #   2 total cpu time :   219.0 secs   av.it.:   7.4
      thresh= 5.205E-04 alpha_mix =  0.700 |ddv_scf|^2 =  4.669E-07

      iter #   3 total cpu time :   223.5 secs   av.it.:   7.6
      thresh= 6.833E-05 alpha_mix =  0.700 |ddv_scf|^2 =  9.362E-09

      iter #   4 total cpu time :   227.8 secs   av.it.:   7.3
      thresh= 9.676E-06 alpha_mix =  0.700 |ddv_scf|^2 =  2.981E-11

      iter #   5 total cpu time :   232.2 secs   av.it.:   7.4
      thresh= 5.460E-07 alpha_mix =  0.700 |ddv_scf|^2 =  7.001E-14

     End of self-consistent calculation

     Convergence has been achieved 

     Number of q in the star =   12
     List of q in the star:
          1   0.000000000  -0.250000000   0.250000000
          2   0.250000000   0.000000000   0.250000000
          3  -0.250000000   0.000000000   0.250000000
          4   0.000000000   0.250000000   0.250000000
          5   0.250000000  -0.250000000   0.000000000
          6  -0.250000000   0.000000000  -0.250000000
          7   0.250000000   0.000000000  -0.250000000
          8   0.000000000  -0.250000000  -0.250000000
          9  -0.250000000  -0.250000000   0.000000000
         10  -0.250000000   0.250000000   0.000000000
         11   0.250000000   0.250000000   0.000000000
         12   0.000000000   0.250000000  -0.250000000

     Diagonalizing the dynamical matrix

     q = (    0.000000000  -0.250000000   0.250000000 ) 

 **************************************************************************
     freq (    1) =       1.653479 [THz] =      55.154122 [cm-1]
     freq (    2) =       2.686242 [THz] =      89.603395 [cm-1]
     freq (    3) =       5.233389 [THz] =     174.567059 [cm-1]
 **************************************************************************

     Mode symmetry, C_2v (mm2)  point group:

     freq (  1 -  1) =         55.2  [cm-1]   --> B_1  D_3  S_3      
     freq (  2 -  2) =         89.6  [cm-1]   --> B_2  D_4  S_4      
     freq (  3 -  3) =        174.6  [cm-1]   --> A_1  D_1  S_1      

     Calculation of q =    0.0000000  -0.3750000   0.3750000

   Info: using nr1, nr2, nr3 values from input

   Info: using nr1, nr2, nr3 values from input

     Parallelization info
     --------------------
     sticks:   dense  smooth     PW     G-vecs:    dense   smooth      PW
     Min         204     102     38                 3692     1319     301
     Max         205     103     39                 3694     1321     302
     Sum         817     411    155                14771     5281    1205



     bravais-lattice index     =            3
     lattice parameter (alat)  =       6.7398  a.u.
     unit-cell volume          =     153.0757 (a.u.)^3
     number of atoms/cell      =            1
     number of atomic types    =            1
     number of electrons       =         9.00
     number of Kohn-Sham states=            9
     kinetic-energy cutoff     =      40.0000  Ry
     charge density cutoff     =     320.0000  Ry
     Exchange-correlation      = SLA  PW   PBE  PBE ( 1  4  3  4 0 0)

     celldm(1)=   6.739775  celldm(2)=   0.000000  celldm(3)=   0.000000
     celldm(4)=   0.000000  celldm(5)=   0.000000  celldm(6)=   0.000000

     crystal axes: (cart. coord. in units of alat)
               a(1) = (   0.500000   0.500000   0.500000 )  
               a(2) = (  -0.500000   0.500000   0.500000 )  
               a(3) = (  -0.500000  -0.500000   0.500000 )  

     reciprocal axes: (cart. coord. in units 2 pi/alat)
               b(1) = (  1.000000  0.000000  1.000000 )  
               b(2) = ( -1.000000  1.000000  0.000000 )  
               b(3) = (  0.000000 -1.000000  1.000000 )  


     PseudoPot. # 1 for Na read from file:
     /home/s1333534/quantum_espresso/qe-6.1/pseudo/Na_pbe_v1.uspp.F.UPF
     MD5 check sum: 76a99c7e9422403d3e93cbc85ab7bccb
     Pseudo is Ultrasoft, Zval =  9.0
     Generated by new atomic code, or converted to UPF format
     Using radial grid of  819 points,  5 beta functions with: 
                l(1) =   0
                l(2) =   0
                l(3) =   1
                l(4) =   1
                l(5) =   2
     Q(r) pseudized with  8 coefficients,  rinner =    1.250   1.250   1.250
                                                       1.250   1.250

     atomic species   valence    mass     pseudopotential
        Na             9.00    22.99000     Na( 1.00)

     48 Sym. Ops., with inversion, found



   Cartesian axes

     site n.     atom                  positions (alat units)
         1           Na  tau(   1) = (   0.0000000   0.0000000   0.0000000  )

     number of k points=  1568  Marzari-Vanderbilt smearing, width (Ry)=  0.0200

     Number of k-points >= 100: set verbosity='high' to print them.

     Dense  grid:    14771 G-vectors     FFT dimensions: (  36,  36,  36)

     Smooth grid:     5281 G-vectors     FFT dimensions: (  24,  24,  24)

     Estimated max dynamical RAM per process >       1.49MB

     Estimated total allocated dynamical RAM >       5.96MB

     The potential is recalculated from file :
     ./_ph0/na.bcc.save/charge-density.dat

     Starting wfc are    5 atomic +    4 random wfc

     Band Structure Calculation
     Davidson diagonalization with overlap

     ethr =  1.11E-10,  avg # of iterations = 17.9

     total cpu time spent up to now is       82.9 secs

     End of band structure calculation

     Number of k-points >= 100: set verbosity='high' to print the bands.

     the Fermi energy is     4.3242 ev

     Writing output data file na.bcc.save

                                                                                

     bravais-lattice index     =            3
     lattice parameter (alat)  =       6.7398  a.u.
     unit-cell volume          =     153.0757 (a.u.)^3
     number of atoms/cell      =            1
     number of atomic types    =            1
     kinetic-energy cut-off    =      40.0000  Ry
     charge density cut-off    =     320.0000  Ry
     convergence threshold     =      1.0E-12
     beta                      =       0.7000
     number of iterations used =            4
     Exchange-correlation      = SLA  PW   PBE  PBE ( 1  4  3  4 0 0)


     celldm(1)=    6.73978  celldm(2)=    0.00000  celldm(3)=    0.00000
     celldm(4)=    0.00000  celldm(5)=    0.00000  celldm(6)=    0.00000

     crystal axes: (cart. coord. in units of alat)
               a(1) = (  0.5000  0.5000  0.5000 )  
               a(2) = ( -0.5000  0.5000  0.5000 )  
               a(3) = ( -0.5000 -0.5000  0.5000 )  

     reciprocal axes: (cart. coord. in units 2 pi/alat)
               b(1) = (  1.0000  0.0000  1.0000 )  
               b(2) = ( -1.0000  1.0000  0.0000 )  
               b(3) = (  0.0000 -1.0000  1.0000 )  


     Atoms inside the unit cell: 

     Cartesian axes

     site n.  atom      mass           positions (alat units)
        1     Na  22.9900   tau(    1) = (    0.00000    0.00000    0.00000  )

     Computing dynamical matrix for 
                    q = (   0.0000000  -0.3750000   0.3750000 )

      4 Sym.Ops. (no q -> -q+G )


     G cutoff =  368.1977  (   3694 G-vectors)     FFT grid: ( 36, 36, 36)
     G cutoff =  184.0988  (   1321 G-vectors)  smooth grid: ( 24, 24, 24)

     number of k points=  1568  Marzari-Vanderbilt smearing, width (Ry)=  0.0200

     PseudoPot. # 1 for Na read from file:
     /home/s1333534/quantum_espresso/qe-6.1/pseudo/Na_pbe_v1.uspp.F.UPF
     MD5 check sum: 76a99c7e9422403d3e93cbc85ab7bccb
     Pseudo is Ultrasoft, Zval =  9.0
     Generated by new atomic code, or converted to UPF format
     Using radial grid of  819 points,  5 beta functions with: 
                l(1) =   0
                l(2) =   0
                l(3) =   1
                l(4) =   1
                l(5) =   2
     Q(r) pseudized with  8 coefficients,  rinner =    1.250   1.250   1.250
                                                       1.250   1.250

     Mode symmetry, C_2v (mm2)  point group:


     Atomic displacements:
     There are   3 irreducible representations

     Representation     1      1 modes -A_1  D_1  S_1  To be done

     Representation     2      1 modes -B_1  D_3  S_3  To be done

     Representation     3      1 modes -B_2  D_4  S_4  To be done



     Alpha used in Ewald sum =   2.8000
     PHONON       :  4m10.88s CPU     4m22.79s WALL



     Representation #  1 mode #   1

     Self-consistent Calculation

      iter #   1 total cpu time :   267.1 secs   av.it.:   5.8
      thresh= 1.000E-02 alpha_mix =  0.700 |ddv_scf|^2 =  6.563E-04

      iter #   2 total cpu time :   271.3 secs   av.it.:   6.6
      thresh= 2.562E-03 alpha_mix =  0.700 |ddv_scf|^2 =  1.637E-03

      iter #   3 total cpu time :   275.2 secs   av.it.:   6.2
      thresh= 4.046E-03 alpha_mix =  0.700 |ddv_scf|^2 =  6.281E-07

      iter #   4 total cpu time :   279.7 secs   av.it.:   7.7
      thresh= 7.925E-05 alpha_mix =  0.700 |ddv_scf|^2 =  2.057E-08

      iter #   5 total cpu time :   284.4 secs   av.it.:   8.1
      thresh= 1.434E-05 alpha_mix =  0.700 |ddv_scf|^2 =  1.157E-09

      iter #   6 total cpu time :   289.0 secs   av.it.:   7.8
      thresh= 3.401E-06 alpha_mix =  0.700 |ddv_scf|^2 =  2.486E-11

      iter #   7 total cpu time :   293.4 secs   av.it.:   7.4
      thresh= 4.986E-07 alpha_mix =  0.700 |ddv_scf|^2 =  1.464E-12

      iter #   8 total cpu time :   298.3 secs   av.it.:   7.7
      thresh= 1.210E-07 alpha_mix =  0.700 |ddv_scf|^2 =  5.132E-15

     End of self-consistent calculation

     Convergence has been achieved 


     Representation #  2 mode #   2

     Self-consistent Calculation

      iter #   1 total cpu time :   302.5 secs   av.it.:   5.5
      thresh= 1.000E-02 alpha_mix =  0.700 |ddv_scf|^2 =  2.579E-05

      iter #   2 total cpu time :   306.9 secs   av.it.:   7.4
      thresh= 5.078E-04 alpha_mix =  0.700 |ddv_scf|^2 =  4.585E-07

      iter #   3 total cpu time :   311.5 secs   av.it.:   7.6
      thresh= 6.771E-05 alpha_mix =  0.700 |ddv_scf|^2 =  7.502E-09

      iter #   4 total cpu time :   315.8 secs   av.it.:   7.2
      thresh= 8.662E-06 alpha_mix =  0.700 |ddv_scf|^2 =  2.061E-11

      iter #   5 total cpu time :   320.2 secs   av.it.:   7.5
      thresh= 4.540E-07 alpha_mix =  0.700 |ddv_scf|^2 =  5.674E-14

     End of self-consistent calculation

     Convergence has been achieved 


     Representation #  3 mode #   3

     Self-consistent Calculation

      iter #   1 total cpu time :   324.4 secs   av.it.:   5.5
      thresh= 1.000E-02 alpha_mix =  0.700 |ddv_scf|^2 =  2.914E-05

      iter #   2 total cpu time :   328.8 secs   av.it.:   7.4
      thresh= 5.398E-04 alpha_mix =  0.700 |ddv_scf|^2 =  4.449E-07

      iter #   3 total cpu time :   333.4 secs   av.it.:   7.6
      thresh= 6.670E-05 alpha_mix =  0.700 |ddv_scf|^2 =  1.401E-08

      iter #   4 total cpu time :   337.7 secs   av.it.:   7.3
      thresh= 1.184E-05 alpha_mix =  0.700 |ddv_scf|^2 =  4.610E-11

      iter #   5 total cpu time :   342.1 secs   av.it.:   7.4
      thresh= 6.790E-07 alpha_mix =  0.700 |ddv_scf|^2 =  6.395E-14

     End of self-consistent calculation

     Convergence has been achieved 

     Number of q in the star =   12
     List of q in the star:
          1   0.000000000  -0.375000000   0.375000000
          2   0.375000000   0.000000000   0.375000000
          3  -0.375000000   0.000000000   0.375000000
          4   0.000000000   0.375000000   0.375000000
          5   0.375000000  -0.375000000   0.000000000
          6  -0.375000000   0.000000000  -0.375000000
          7   0.375000000   0.000000000  -0.375000000
          8   0.000000000  -0.375000000  -0.375000000
          9  -0.375000000  -0.375000000   0.000000000
         10  -0.375000000   0.375000000   0.000000000
         11   0.375000000   0.375000000   0.000000000
         12   0.000000000   0.375000000  -0.375000000

     Diagonalizing the dynamical matrix

     q = (    0.000000000  -0.375000000   0.375000000 ) 

 **************************************************************************
     freq (    1) =       1.712916 [THz] =      57.136715 [cm-1]
     freq (    2) =       3.362924 [THz] =     112.175075 [cm-1]
     freq (    3) =       6.750178 [THz] =     225.161718 [cm-1]
 **************************************************************************

     Mode symmetry, C_2v (mm2)  point group:

     freq (  1 -  1) =         57.1  [cm-1]   --> B_1  D_3  S_3      
     freq (  2 -  2) =        112.2  [cm-1]   --> B_2  D_4  S_4      
     freq (  3 -  3) =        225.2  [cm-1]   --> A_1  D_1  S_1      

     Calculation of q =    0.0000000   0.5000000  -0.5000000

   Info: using nr1, nr2, nr3 values from input

   Info: using nr1, nr2, nr3 values from input

     Parallelization info
     --------------------
     sticks:   dense  smooth     PW     G-vecs:    dense   smooth      PW
     Min         204     102     38                 3692     1319     301
     Max         205     103     39                 3694     1321     302
     Sum         817     411    155                14771     5281    1205



     bravais-lattice index     =            3
     lattice parameter (alat)  =       6.7398  a.u.
     unit-cell volume          =     153.0757 (a.u.)^3
     number of atoms/cell      =            1
     number of atomic types    =            1
     number of electrons       =         9.00
     number of Kohn-Sham states=            9
     kinetic-energy cutoff     =      40.0000  Ry
     charge density cutoff     =     320.0000  Ry
     Exchange-correlation      = SLA  PW   PBE  PBE ( 1  4  3  4 0 0)

     celldm(1)=   6.739775  celldm(2)=   0.000000  celldm(3)=   0.000000
     celldm(4)=   0.000000  celldm(5)=   0.000000  celldm(6)=   0.000000

     crystal axes: (cart. coord. in units of alat)
               a(1) = (   0.500000   0.500000   0.500000 )  
               a(2) = (  -0.500000   0.500000   0.500000 )  
               a(3) = (  -0.500000  -0.500000   0.500000 )  

     reciprocal axes: (cart. coord. in units 2 pi/alat)
               b(1) = (  1.000000  0.000000  1.000000 )  
               b(2) = ( -1.000000  1.000000  0.000000 )  
               b(3) = (  0.000000 -1.000000  1.000000 )  


     PseudoPot. # 1 for Na read from file:
     /home/s1333534/quantum_espresso/qe-6.1/pseudo/Na_pbe_v1.uspp.F.UPF
     MD5 check sum: 76a99c7e9422403d3e93cbc85ab7bccb
     Pseudo is Ultrasoft, Zval =  9.0
     Generated by new atomic code, or converted to UPF format
     Using radial grid of  819 points,  5 beta functions with: 
                l(1) =   0
                l(2) =   0
                l(3) =   1
                l(4) =   1
                l(5) =   2
     Q(r) pseudized with  8 coefficients,  rinner =    1.250   1.250   1.250
                                                       1.250   1.250

     atomic species   valence    mass     pseudopotential
        Na             9.00    22.99000     Na( 1.00)

     48 Sym. Ops., with inversion, found



   Cartesian axes

     site n.     atom                  positions (alat units)
         1           Na  tau(   1) = (   0.0000000   0.0000000   0.0000000  )

     number of k points=   840  Marzari-Vanderbilt smearing, width (Ry)=  0.0200

     Number of k-points >= 100: set verbosity='high' to print them.

     Dense  grid:    14771 G-vectors     FFT dimensions: (  36,  36,  36)

     Smooth grid:     5281 G-vectors     FFT dimensions: (  24,  24,  24)

     Estimated max dynamical RAM per process >       1.49MB

     Estimated total allocated dynamical RAM >       5.96MB

     The potential is recalculated from file :
     ./_ph0/na.bcc.save/charge-density.dat

     Starting wfc are    5 atomic +    4 random wfc

     Band Structure Calculation
     Davidson diagonalization with overlap

     ethr =  1.11E-10,  avg # of iterations = 18.0

     total cpu time spent up to now is       98.4 secs

     End of band structure calculation

     Number of k-points >= 100: set verbosity='high' to print the bands.

     the Fermi energy is     4.3242 ev

     Writing output data file na.bcc.save

                                                                                

     bravais-lattice index     =            3
     lattice parameter (alat)  =       6.7398  a.u.
     unit-cell volume          =     153.0757 (a.u.)^3
     number of atoms/cell      =            1
     number of atomic types    =            1
     kinetic-energy cut-off    =      40.0000  Ry
     charge density cut-off    =     320.0000  Ry
     convergence threshold     =      1.0E-12
     beta                      =       0.7000
     number of iterations used =            4
     Exchange-correlation      = SLA  PW   PBE  PBE ( 1  4  3  4 0 0)


     celldm(1)=    6.73978  celldm(2)=    0.00000  celldm(3)=    0.00000
     celldm(4)=    0.00000  celldm(5)=    0.00000  celldm(6)=    0.00000

     crystal axes: (cart. coord. in units of alat)
               a(1) = (  0.5000  0.5000  0.5000 )  
               a(2) = ( -0.5000  0.5000  0.5000 )  
               a(3) = ( -0.5000 -0.5000  0.5000 )  

     reciprocal axes: (cart. coord. in units 2 pi/alat)
               b(1) = (  1.0000  0.0000  1.0000 )  
               b(2) = ( -1.0000  1.0000  0.0000 )  
               b(3) = (  0.0000 -1.0000  1.0000 )  


     Atoms inside the unit cell: 

     Cartesian axes

     site n.  atom      mass           positions (alat units)
        1     Na  22.9900   tau(    1) = (    0.00000    0.00000    0.00000  )

     Computing dynamical matrix for 
                    q = (   0.0000000   0.5000000  -0.5000000 )

      9 Sym.Ops. (with q -> -q+G )


     G cutoff =  368.1977  (   3694 G-vectors)     FFT grid: ( 36, 36, 36)
     G cutoff =  184.0988  (   1321 G-vectors)  smooth grid: ( 24, 24, 24)

     number of k points=   840  Marzari-Vanderbilt smearing, width (Ry)=  0.0200

     PseudoPot. # 1 for Na read from file:
     /home/s1333534/quantum_espresso/qe-6.1/pseudo/Na_pbe_v1.uspp.F.UPF
     MD5 check sum: 76a99c7e9422403d3e93cbc85ab7bccb
     Pseudo is Ultrasoft, Zval =  9.0
     Generated by new atomic code, or converted to UPF format
     Using radial grid of  819 points,  5 beta functions with: 
                l(1) =   0
                l(2) =   0
                l(3) =   1
                l(4) =   1
                l(5) =   2
     Q(r) pseudized with  8 coefficients,  rinner =    1.250   1.250   1.250
                                                       1.250   1.250

     Mode symmetry, D_2h (mmm)  point group:


     Atomic displacements:
     There are   3 irreducible representations

     Representation     1      1 modes -B_1u  To be done

     Representation     2      1 modes -B_2u  To be done

     Representation     3      1 modes -B_3u  To be done



     Alpha used in Ewald sum =   2.8000
     PHONON       :  5m41.96s CPU     5m58.49s WALL



     Representation #  1 mode #   1

     Self-consistent Calculation

      iter #   1 total cpu time :   360.7 secs   av.it.:   5.5
      thresh= 1.000E-02 alpha_mix =  0.700 |ddv_scf|^2 =  3.003E-05

      iter #   2 total cpu time :   363.1 secs   av.it.:   7.3
      thresh= 5.480E-04 alpha_mix =  0.700 |ddv_scf|^2 =  4.361E-07

      iter #   3 total cpu time :   365.5 secs   av.it.:   7.5
      thresh= 6.604E-05 alpha_mix =  0.700 |ddv_scf|^2 =  1.623E-08

      iter #   4 total cpu time :   367.8 secs   av.it.:   7.1
      thresh= 1.274E-05 alpha_mix =  0.700 |ddv_scf|^2 =  5.367E-11

      iter #   5 total cpu time :   370.2 secs   av.it.:   7.3
      thresh= 7.326E-07 alpha_mix =  0.700 |ddv_scf|^2 =  6.243E-14

     End of self-consistent calculation

     Convergence has been achieved 


     Representation #  2 mode #   2

     Self-consistent Calculation

      iter #   1 total cpu time :   372.5 secs   av.it.:   5.5
      thresh= 1.000E-02 alpha_mix =  0.700 |ddv_scf|^2 =  2.608E-05

      iter #   2 total cpu time :   374.9 secs   av.it.:   7.3
      thresh= 5.107E-04 alpha_mix =  0.700 |ddv_scf|^2 =  4.506E-07

      iter #   3 total cpu time :   377.3 secs   av.it.:   7.5
      thresh= 6.713E-05 alpha_mix =  0.700 |ddv_scf|^2 =  8.315E-09

      iter #   4 total cpu time :   379.6 secs   av.it.:   7.0
      thresh= 9.118E-06 alpha_mix =  0.700 |ddv_scf|^2 =  2.200E-11

      iter #   5 total cpu time :   382.0 secs   av.it.:   7.4
      thresh= 4.691E-07 alpha_mix =  0.700 |ddv_scf|^2 =  5.078E-14

     End of self-consistent calculation

     Convergence has been achieved 


     Representation #  3 mode #   3

     Self-consistent Calculation

      iter #   1 total cpu time :   384.4 secs   av.it.:   5.7
      thresh= 1.000E-02 alpha_mix =  0.700 |ddv_scf|^2 =  2.469E-04

      iter #   2 total cpu time :   386.6 secs   av.it.:   6.6
      thresh= 1.571E-03 alpha_mix =  0.700 |ddv_scf|^2 =  1.074E-04

      iter #   3 total cpu time :   388.8 secs   av.it.:   6.5
      thresh= 1.036E-03 alpha_mix =  0.700 |ddv_scf|^2 =  1.461E-07

      iter #   4 total cpu time :   391.2 secs   av.it.:   7.5
      thresh= 3.823E-05 alpha_mix =  0.700 |ddv_scf|^2 =  4.456E-10

      iter #   5 total cpu time :   393.4 secs   av.it.:   6.2
      thresh= 2.111E-06 alpha_mix =  0.700 |ddv_scf|^2 =  1.022E-11

      iter #   6 total cpu time :   395.6 secs   av.it.:   6.6
      thresh= 3.197E-07 alpha_mix =  0.700 |ddv_scf|^2 =  2.140E-14

     End of self-consistent calculation

     Convergence has been achieved 

     Number of q in the star =    6
     List of q in the star:
          1   0.000000000   0.500000000  -0.500000000
          2  -0.500000000   0.500000000   0.000000000
          3   0.500000000   0.000000000   0.500000000
          4   0.500000000   0.000000000  -0.500000000
          5   0.000000000   0.500000000   0.500000000
          6   0.500000000   0.500000000   0.000000000

     Diagonalizing the dynamical matrix

     q = (    0.000000000   0.500000000  -0.500000000 ) 

 **************************************************************************
     freq (    1) =       1.572138 [THz] =      52.440881 [cm-1]
     freq (    2) =       3.555389 [THz] =     118.595001 [cm-1]
     freq (    3) =       7.323616 [THz] =     244.289534 [cm-1]
 **************************************************************************

     Mode symmetry, D_2h (mmm)  point group:

     freq (  1 -  1) =         52.4  [cm-1]   --> B_2u               
     freq (  2 -  2) =        118.6  [cm-1]   --> B_1u               
     freq (  3 -  3) =        244.3  [cm-1]   --> B_3u               

     Calculation of q =   -0.1250000  -0.1250000   0.2500000

   Info: using nr1, nr2, nr3 values from input

   Info: using nr1, nr2, nr3 values from input

     Parallelization info
     --------------------
     sticks:   dense  smooth     PW     G-vecs:    dense   smooth      PW
     Min         204     102     34                 3692     1319     265
     Max         205     103     35                 3694     1321     266
     Sum         817     411    139                14771     5281    1061



     bravais-lattice index     =            3
     lattice parameter (alat)  =       6.7398  a.u.
     unit-cell volume          =     153.0757 (a.u.)^3
     number of atoms/cell      =            1
     number of atomic types    =            1
     number of electrons       =         9.00
     number of Kohn-Sham states=            9
     kinetic-energy cutoff     =      40.0000  Ry
     charge density cutoff     =     320.0000  Ry
     Exchange-correlation      = SLA  PW   PBE  PBE ( 1  4  3  4 0 0)

     celldm(1)=   6.739775  celldm(2)=   0.000000  celldm(3)=   0.000000
     celldm(4)=   0.000000  celldm(5)=   0.000000  celldm(6)=   0.000000

     crystal axes: (cart. coord. in units of alat)
               a(1) = (   0.500000   0.500000   0.500000 )  
               a(2) = (  -0.500000   0.500000   0.500000 )  
               a(3) = (  -0.500000  -0.500000   0.500000 )  

     reciprocal axes: (cart. coord. in units 2 pi/alat)
               b(1) = (  1.000000  0.000000  1.000000 )  
               b(2) = ( -1.000000  1.000000  0.000000 )  
               b(3) = (  0.000000 -1.000000  1.000000 )  


     PseudoPot. # 1 for Na read from file:
     /home/s1333534/quantum_espresso/qe-6.1/pseudo/Na_pbe_v1.uspp.F.UPF
     MD5 check sum: 76a99c7e9422403d3e93cbc85ab7bccb
     Pseudo is Ultrasoft, Zval =  9.0
     Generated by new atomic code, or converted to UPF format
     Using radial grid of  819 points,  5 beta functions with: 
                l(1) =   0
                l(2) =   0
                l(3) =   1
                l(4) =   1
                l(5) =   2
     Q(r) pseudized with  8 coefficients,  rinner =    1.250   1.250   1.250
                                                       1.250   1.250

     atomic species   valence    mass     pseudopotential
        Na             9.00    22.99000     Na( 1.00)

     48 Sym. Ops., with inversion, found



   Cartesian axes

     site n.     atom                  positions (alat units)
         1           Na  tau(   1) = (   0.0000000   0.0000000   0.0000000  )

     number of k points=  2940  Marzari-Vanderbilt smearing, width (Ry)=  0.0200

     Number of k-points >= 100: set verbosity='high' to print them.

     Dense  grid:    14771 G-vectors     FFT dimensions: (  36,  36,  36)

     Smooth grid:     5281 G-vectors     FFT dimensions: (  24,  24,  24)

     Estimated max dynamical RAM per process >       1.49MB

     Estimated total allocated dynamical RAM >       5.96MB

     The potential is recalculated from file :
     ./_ph0/na.bcc.save/charge-density.dat

     Starting wfc are    5 atomic +    4 random wfc

     Band Structure Calculation
     Davidson diagonalization with overlap

     ethr =  1.11E-10,  avg # of iterations = 17.9

     total cpu time spent up to now is      148.8 secs

     End of band structure calculation

     Number of k-points >= 100: set verbosity='high' to print the bands.

     the Fermi energy is     4.3242 ev

     Writing output data file na.bcc.save

                                                                                

     bravais-lattice index     =            3
     lattice parameter (alat)  =       6.7398  a.u.
     unit-cell volume          =     153.0757 (a.u.)^3
     number of atoms/cell      =            1
     number of atomic types    =            1
     kinetic-energy cut-off    =      40.0000  Ry
     charge density cut-off    =     320.0000  Ry
     convergence threshold     =      1.0E-12
     beta                      =       0.7000
     number of iterations used =            4
     Exchange-correlation      = SLA  PW   PBE  PBE ( 1  4  3  4 0 0)


     celldm(1)=    6.73978  celldm(2)=    0.00000  celldm(3)=    0.00000
     celldm(4)=    0.00000  celldm(5)=    0.00000  celldm(6)=    0.00000

     crystal axes: (cart. coord. in units of alat)
               a(1) = (  0.5000  0.5000  0.5000 )  
               a(2) = ( -0.5000  0.5000  0.5000 )  
               a(3) = ( -0.5000 -0.5000  0.5000 )  

     reciprocal axes: (cart. coord. in units 2 pi/alat)
               b(1) = (  1.0000  0.0000  1.0000 )  
               b(2) = ( -1.0000  1.0000  0.0000 )  
               b(3) = (  0.0000 -1.0000  1.0000 )  


     Atoms inside the unit cell: 

     Cartesian axes

     site n.  atom      mass           positions (alat units)
        1     Na  22.9900   tau(    1) = (    0.00000    0.00000    0.00000  )

     Computing dynamical matrix for 
                    q = (  -0.1250000  -0.1250000   0.2500000 )

      2 Sym.Ops. (no q -> -q+G )


     G cutoff =  368.1977  (   3694 G-vectors)     FFT grid: ( 36, 36, 36)
     G cutoff =  184.0988  (   1321 G-vectors)  smooth grid: ( 24, 24, 24)

     number of k points=  2940  Marzari-Vanderbilt smearing, width (Ry)=  0.0200

     PseudoPot. # 1 for Na read from file:
     /home/s1333534/quantum_espresso/qe-6.1/pseudo/Na_pbe_v1.uspp.F.UPF
     MD5 check sum: 76a99c7e9422403d3e93cbc85ab7bccb
     Pseudo is Ultrasoft, Zval =  9.0
     Generated by new atomic code, or converted to UPF format
     Using radial grid of  819 points,  5 beta functions with: 
                l(1) =   0
                l(2) =   0
                l(3) =   1
                l(4) =   1
                l(5) =   2
     Q(r) pseudized with  8 coefficients,  rinner =    1.250   1.250   1.250
                                                       1.250   1.250

     Mode symmetry, C_s (m)     point group:


     Atomic displacements:
     There are   3 irreducible representations

     Representation     1      1 modes -A'  To be done

     Representation     2      1 modes -A'  To be done

     Representation     3      1 modes -A''  To be done



     Alpha used in Ewald sum =   2.8000
     PHONON       :  7m11.04s CPU     7m31.41s WALL



     Representation #  1 mode #   1

     Self-consistent Calculation

      iter #   1 total cpu time :   459.2 secs   av.it.:   5.7
      thresh= 1.000E-02 alpha_mix =  0.700 |ddv_scf|^2 =  1.452E-03

      iter #   2 total cpu time :   466.8 secs   av.it.:   6.7
      thresh= 3.810E-03 alpha_mix =  0.700 |ddv_scf|^2 =  5.202E-02

      iter #   3 total cpu time :   473.1 secs   av.it.:   5.2
      thresh= 1.000E-02 alpha_mix =  0.700 |ddv_scf|^2 =  6.865E-07

      iter #   4 total cpu time :   481.6 secs   av.it.:   7.7
      thresh= 8.286E-05 alpha_mix =  0.700 |ddv_scf|^2 =  7.999E-09

      iter #   5 total cpu time :   490.2 secs   av.it.:   7.8
      thresh= 8.944E-06 alpha_mix =  0.700 |ddv_scf|^2 =  1.062E-09

      iter #   6 total cpu time :   498.5 secs   av.it.:   7.6
      thresh= 3.258E-06 alpha_mix =  0.700 |ddv_scf|^2 =  7.801E-10

      iter #   7 total cpu time :   505.7 secs   av.it.:   6.2
      thresh= 2.793E-06 alpha_mix =  0.700 |ddv_scf|^2 =  9.498E-10

      iter #   8 total cpu time :   513.0 secs   av.it.:   6.4
      thresh= 3.082E-06 alpha_mix =  0.700 |ddv_scf|^2 =  1.302E-11

      iter #   9 total cpu time :   521.0 secs   av.it.:   7.3
      thresh= 3.608E-07 alpha_mix =  0.700 |ddv_scf|^2 =  1.098E-11

      iter #  10 total cpu time :   528.6 secs   av.it.:   6.7
      thresh= 3.313E-07 alpha_mix =  0.700 |ddv_scf|^2 =  3.137E-14

     End of self-consistent calculation

     Convergence has been achieved 


     Representation #  2 mode #   2

     Self-consistent Calculation

      iter #   1 total cpu time :   536.7 secs   av.it.:   5.8
      thresh= 1.000E-02 alpha_mix =  0.700 |ddv_scf|^2 =  1.287E-02

      iter #   2 total cpu time :   543.9 secs   av.it.:   6.3
      thresh= 1.000E-02 alpha_mix =  0.700 |ddv_scf|^2 =  4.682E-01

      iter #   3 total cpu time :   551.2 secs   av.it.:   6.3
      thresh= 1.000E-02 alpha_mix =  0.700 |ddv_scf|^2 =  6.845E-06

      iter #   4 total cpu time :   559.3 secs   av.it.:   7.3
      thresh= 2.616E-04 alpha_mix =  0.700 |ddv_scf|^2 =  8.365E-08

      iter #   5 total cpu time :   567.7 secs   av.it.:   7.6
      thresh= 2.892E-05 alpha_mix =  0.700 |ddv_scf|^2 =  4.553E-09

      iter #   6 total cpu time :   576.1 secs   av.it.:   7.6
      thresh= 6.748E-06 alpha_mix =  0.700 |ddv_scf|^2 =  2.609E-10

      iter #   7 total cpu time :   584.3 secs   av.it.:   7.5
      thresh= 1.615E-06 alpha_mix =  0.700 |ddv_scf|^2 =  4.389E-09

      iter #   8 total cpu time :   590.6 secs   av.it.:   5.2
      thresh= 6.625E-06 alpha_mix =  0.700 |ddv_scf|^2 =  5.384E-12

      iter #   9 total cpu time :   598.2 secs   av.it.:   6.8
      thresh= 2.320E-07 alpha_mix =  0.700 |ddv_scf|^2 =  5.772E-14

     End of self-consistent calculation

     Convergence has been achieved 


     Representation #  3 mode #   3

     Self-consistent Calculation

      iter #   1 total cpu time :   606.0 secs   av.it.:   5.5
      thresh= 1.000E-02 alpha_mix =  0.700 |ddv_scf|^2 =  2.707E-05

      iter #   2 total cpu time :   614.2 secs   av.it.:   7.4
      thresh= 5.203E-04 alpha_mix =  0.700 |ddv_scf|^2 =  4.510E-07

      iter #   3 total cpu time :   622.6 secs   av.it.:   7.6
      thresh= 6.715E-05 alpha_mix =  0.700 |ddv_scf|^2 =  1.002E-08

      iter #   4 total cpu time :   630.8 secs   av.it.:   7.4
      thresh= 1.001E-05 alpha_mix =  0.700 |ddv_scf|^2 =  4.677E-11

      iter #   5 total cpu time :   639.0 secs   av.it.:   7.5
      thresh= 6.839E-07 alpha_mix =  0.700 |ddv_scf|^2 =  6.464E-14

     End of self-consistent calculation

     Convergence has been achieved 

     Number of q in the star =   24
     List of q in the star:
          1  -0.125000000  -0.125000000   0.250000000
          2  -0.125000000  -0.250000000   0.125000000
          3   0.125000000  -0.250000000   0.125000000
          4  -0.125000000   0.125000000  -0.250000000
          5  -0.125000000   0.250000000  -0.125000000
          6   0.125000000   0.125000000  -0.250000000
          7   0.125000000   0.250000000  -0.125000000
          8   0.125000000  -0.250000000  -0.125000000
          9  -0.250000000   0.125000000  -0.125000000
         10   0.250000000   0.125000000   0.125000000
         11   0.125000000   0.125000000   0.250000000
         12  -0.250000000  -0.125000000   0.125000000
         13   0.250000000  -0.125000000  -0.125000000
         14   0.125000000  -0.125000000  -0.250000000
         15   0.125000000  -0.125000000   0.250000000
         16   0.125000000   0.250000000   0.125000000
         17  -0.125000000  -0.125000000  -0.250000000
         18  -0.125000000   0.125000000   0.250000000
         19  -0.125000000   0.250000000   0.125000000
         20  -0.125000000  -0.250000000  -0.125000000
         21   0.250000000   0.125000000  -0.125000000
         22  -0.250000000   0.125000000   0.125000000
         23   0.250000000  -0.125000000   0.125000000
         24  -0.250000000  -0.125000000  -0.125000000

     Diagonalizing the dynamical matrix

     q = (   -0.125000000  -0.125000000   0.250000000 ) 

 **************************************************************************
     freq (    1) =       1.960626 [THz] =      65.399446 [cm-1]
     freq (    2) =       2.414593 [THz] =      80.542169 [cm-1]
     freq (    3) =       4.589143 [THz] =     153.077339 [cm-1]
 **************************************************************************

     Mode symmetry, C_s (m)     point group:

     freq (  1 -  1) =         65.4  [cm-1]   --> A'                 
     freq (  2 -  2) =         80.5  [cm-1]   --> A''                
     freq (  3 -  3) =        153.1  [cm-1]   --> A'                 

     Calculation of q =   -0.1250000  -0.2500000   0.3750000

   Info: using nr1, nr2, nr3 values from input

   Info: using nr1, nr2, nr3 values from input

     Parallelization info
     --------------------
     sticks:   dense  smooth     PW     G-vecs:    dense   smooth      PW
     Min         204     102     37                 3692     1319     289
     Max         205     103     38                 3694     1321     290
     Sum         817     411    151                14771     5281    1157



     bravais-lattice index     =            3
     lattice parameter (alat)  =       6.7398  a.u.
     unit-cell volume          =     153.0757 (a.u.)^3
     number of atoms/cell      =            1
     number of atomic types    =            1
     number of electrons       =         9.00
     number of Kohn-Sham states=            9
     kinetic-energy cutoff     =      40.0000  Ry
     charge density cutoff     =     320.0000  Ry
     Exchange-correlation      = SLA  PW   PBE  PBE ( 1  4  3  4 0 0)

     celldm(1)=   6.739775  celldm(2)=   0.000000  celldm(3)=   0.000000
     celldm(4)=   0.000000  celldm(5)=   0.000000  celldm(6)=   0.000000

     crystal axes: (cart. coord. in units of alat)
               a(1) = (   0.500000   0.500000   0.500000 )  
               a(2) = (  -0.500000   0.500000   0.500000 )  
               a(3) = (  -0.500000  -0.500000   0.500000 )  

     reciprocal axes: (cart. coord. in units 2 pi/alat)
               b(1) = (  1.000000  0.000000  1.000000 )  
               b(2) = ( -1.000000  1.000000  0.000000 )  
               b(3) = (  0.000000 -1.000000  1.000000 )  


     PseudoPot. # 1 for Na read from file:
     /home/s1333534/quantum_espresso/qe-6.1/pseudo/Na_pbe_v1.uspp.F.UPF
     MD5 check sum: 76a99c7e9422403d3e93cbc85ab7bccb
     Pseudo is Ultrasoft, Zval =  9.0
     Generated by new atomic code, or converted to UPF format
     Using radial grid of  819 points,  5 beta functions with: 
                l(1) =   0
                l(2) =   0
                l(3) =   1
                l(4) =   1
                l(5) =   2
     Q(r) pseudized with  8 coefficients,  rinner =    1.250   1.250   1.250
                                                       1.250   1.250

     atomic species   valence    mass     pseudopotential
        Na             9.00    22.99000     Na( 1.00)

     48 Sym. Ops., with inversion, found



   Cartesian axes

     site n.     atom                  positions (alat units)
         1           Na  tau(   1) = (   0.0000000   0.0000000   0.0000000  )

     number of k points=  5488  Marzari-Vanderbilt smearing, width (Ry)=  0.0200

     Number of k-points >= 100: set verbosity='high' to print them.

     Dense  grid:    14771 G-vectors     FFT dimensions: (  36,  36,  36)

     Smooth grid:     5281 G-vectors     FFT dimensions: (  24,  24,  24)

     Estimated max dynamical RAM per process >       1.49MB

     Estimated total allocated dynamical RAM >       5.96MB

     The potential is recalculated from file :
     ./_ph0/na.bcc.save/charge-density.dat

     Starting wfc are    5 atomic +    4 random wfc

     Band Structure Calculation
     Davidson diagonalization with overlap

     ethr =  1.11E-10,  avg # of iterations = 17.8

     total cpu time spent up to now is      243.1 secs

     End of band structure calculation

     Number of k-points >= 100: set verbosity='high' to print the bands.

     the Fermi energy is     4.3242 ev

     Writing output data file na.bcc.save

                                                                                

     bravais-lattice index     =            3
     lattice parameter (alat)  =       6.7398  a.u.
     unit-cell volume          =     153.0757 (a.u.)^3
     number of atoms/cell      =            1
     number of atomic types    =            1
     kinetic-energy cut-off    =      40.0000  Ry
     charge density cut-off    =     320.0000  Ry
     convergence threshold     =      1.0E-12
     beta                      =       0.7000
     number of iterations used =            4
     Exchange-correlation      = SLA  PW   PBE  PBE ( 1  4  3  4 0 0)


     celldm(1)=    6.73978  celldm(2)=    0.00000  celldm(3)=    0.00000
     celldm(4)=    0.00000  celldm(5)=    0.00000  celldm(6)=    0.00000

     crystal axes: (cart. coord. in units of alat)
               a(1) = (  0.5000  0.5000  0.5000 )  
               a(2) = ( -0.5000  0.5000  0.5000 )  
               a(3) = ( -0.5000 -0.5000  0.5000 )  

     reciprocal axes: (cart. coord. in units 2 pi/alat)
               b(1) = (  1.0000  0.0000  1.0000 )  
               b(2) = ( -1.0000  1.0000  0.0000 )  
               b(3) = (  0.0000 -1.0000  1.0000 )  


     Atoms inside the unit cell: 

     Cartesian axes

     site n.  atom      mass           positions (alat units)
        1     Na  22.9900   tau(    1) = (    0.00000    0.00000    0.00000  )

     Computing dynamical matrix for 
                    q = (  -0.1250000  -0.2500000   0.3750000 )

     No symmetry!

     G cutoff =  368.1977  (   3694 G-vectors)     FFT grid: ( 36, 36, 36)
     G cutoff =  184.0988  (   1321 G-vectors)  smooth grid: ( 24, 24, 24)

     number of k points=  5488  Marzari-Vanderbilt smearing, width (Ry)=  0.0200

     PseudoPot. # 1 for Na read from file:
     /home/s1333534/quantum_espresso/qe-6.1/pseudo/Na_pbe_v1.uspp.F.UPF
     MD5 check sum: 76a99c7e9422403d3e93cbc85ab7bccb
     Pseudo is Ultrasoft, Zval =  9.0
     Generated by new atomic code, or converted to UPF format
     Using radial grid of  819 points,  5 beta functions with: 
                l(1) =   0
                l(2) =   0
                l(3) =   1
                l(4) =   1
                l(5) =   2
     Q(r) pseudized with  8 coefficients,  rinner =    1.250   1.250   1.250
                                                       1.250   1.250

     Mode symmetry, C_1 (1)     point group:


     Atomic displacements:
     There are   3 irreducible representations

     Representation     1      1 modes -A  To be done

     Representation     2      1 modes -A  To be done

     Representation     3      1 modes -A  To be done



     Alpha used in Ewald sum =   2.8000
     PHONON       : 11m47.84s CPU    12m22.78s WALL



     Representation #  1 mode #   1

     Self-consistent Calculation

      iter #   1 total cpu time :   757.5 secs   av.it.:   5.7
      thresh= 1.000E-02 alpha_mix =  0.700 |ddv_scf|^2 =  4.281E-05

      iter #   2 total cpu time :   773.4 secs   av.it.:   7.7
      thresh= 6.543E-04 alpha_mix =  0.700 |ddv_scf|^2 =  7.612E-05

      iter #   3 total cpu time :   787.7 secs   av.it.:   6.2
      thresh= 8.725E-04 alpha_mix =  0.700 |ddv_scf|^2 =  6.042E-06

      iter #   4 total cpu time :   802.7 secs   av.it.:   7.2
      thresh= 2.458E-04 alpha_mix =  0.700 |ddv_scf|^2 =  6.302E-09

      iter #   5 total cpu time :   819.0 secs   av.it.:   7.8
      thresh= 7.939E-06 alpha_mix =  0.700 |ddv_scf|^2 =  2.141E-10

      iter #   6 total cpu time :   835.2 secs   av.it.:   7.9
      thresh= 1.463E-06 alpha_mix =  0.700 |ddv_scf|^2 =  1.008E-11

      iter #   7 total cpu time :   851.6 secs   av.it.:   8.0
      thresh= 3.175E-07 alpha_mix =  0.700 |ddv_scf|^2 =  6.558E-13

     End of self-consistent calculation

     Convergence has been achieved 


     Representation #  2 mode #   2

     Self-consistent Calculation

      iter #   1 total cpu time :   866.9 secs   av.it.:   5.8
      thresh= 1.000E-02 alpha_mix =  0.700 |ddv_scf|^2 =  6.288E-04

      iter #   2 total cpu time :   882.1 secs   av.it.:   7.0
      thresh= 2.508E-03 alpha_mix =  0.700 |ddv_scf|^2 =  2.890E-03

      iter #   3 total cpu time :   895.2 secs   av.it.:   5.8
      thresh= 5.376E-03 alpha_mix =  0.700 |ddv_scf|^2 =  5.234E-07

      iter #   4 total cpu time :   911.3 secs   av.it.:   7.8
      thresh= 7.235E-05 alpha_mix =  0.700 |ddv_scf|^2 =  9.170E-09

      iter #   5 total cpu time :   927.8 secs   av.it.:   8.1
      thresh= 9.576E-06 alpha_mix =  0.700 |ddv_scf|^2 =  1.415E-09

      iter #   6 total cpu time :   944.5 secs   av.it.:   7.8
      thresh= 3.761E-06 alpha_mix =  0.700 |ddv_scf|^2 =  1.947E-11

      iter #   7 total cpu time :   960.5 secs   av.it.:   7.8
      thresh= 4.412E-07 alpha_mix =  0.700 |ddv_scf|^2 =  1.698E-12

      iter #   8 total cpu time :   976.4 secs   av.it.:   7.7
      thresh= 1.303E-07 alpha_mix =  0.700 |ddv_scf|^2 =  2.738E-13

     End of self-consistent calculation

     Convergence has been achieved 


     Representation #  3 mode #   3

     Self-consistent Calculation

      iter #   1 total cpu time :   991.7 secs   av.it.:   5.8
      thresh= 1.000E-02 alpha_mix =  0.700 |ddv_scf|^2 =  6.093E-04

      iter #   2 total cpu time :  1006.5 secs   av.it.:   7.0
      thresh= 2.468E-03 alpha_mix =  0.700 |ddv_scf|^2 =  2.765E-03

      iter #   3 total cpu time :  1019.9 secs   av.it.:   5.8
      thresh= 5.258E-03 alpha_mix =  0.700 |ddv_scf|^2 =  3.690E-07

      iter #   4 total cpu time :  1036.2 secs   av.it.:   7.9
      thresh= 6.075E-05 alpha_mix =  0.700 |ddv_scf|^2 =  1.210E-08

      iter #   5 total cpu time :  1053.1 secs   av.it.:   8.2
      thresh= 1.100E-05 alpha_mix =  0.700 |ddv_scf|^2 =  9.774E-10

      iter #   6 total cpu time :  1069.3 secs   av.it.:   8.0
      thresh= 3.126E-06 alpha_mix =  0.700 |ddv_scf|^2 =  2.687E-11

      iter #   7 total cpu time :  1085.3 secs   av.it.:   7.6
      thresh= 5.183E-07 alpha_mix =  0.700 |ddv_scf|^2 =  1.284E-12

      iter #   8 total cpu time :  1100.7 secs   av.it.:   7.4
      thresh= 1.133E-07 alpha_mix =  0.700 |ddv_scf|^2 =  3.549E-13

     End of self-consistent calculation

     Convergence has been achieved 

     Number of q in the star =   48
     List of q in the star:
          1  -0.125000000  -0.250000000   0.375000000
          2  -0.250000000  -0.125000000   0.375000000
          3  -0.125000000  -0.375000000   0.250000000
          4   0.125000000  -0.375000000   0.250000000
          5  -0.125000000   0.250000000  -0.375000000
          6  -0.125000000   0.375000000  -0.250000000
          7   0.125000000   0.250000000  -0.375000000
          8   0.125000000   0.375000000  -0.250000000
          9   0.250000000  -0.375000000  -0.125000000
         10  -0.375000000   0.125000000  -0.250000000
         11   0.375000000   0.125000000   0.250000000
         12   0.250000000   0.125000000   0.375000000
         13  -0.375000000  -0.125000000   0.250000000
         14   0.375000000  -0.125000000  -0.250000000
         15   0.125000000  -0.250000000  -0.375000000
         16   0.250000000  -0.125000000  -0.375000000
         17  -0.250000000   0.125000000  -0.375000000
         18  -0.375000000  -0.250000000   0.125000000
         19  -0.375000000   0.250000000  -0.125000000
         20   0.375000000   0.250000000   0.125000000
         21   0.250000000  -0.125000000   0.375000000
         22  -0.250000000   0.375000000  -0.125000000
         23   0.125000000  -0.375000000  -0.250000000
         24   0.125000000   0.375000000   0.250000000
         25   0.250000000   0.125000000  -0.375000000
         26  -0.125000000  -0.250000000  -0.375000000
         27  -0.250000000   0.125000000   0.375000000
         28  -0.125000000   0.375000000   0.250000000
         29  -0.125000000   0.250000000   0.375000000
         30   0.125000000  -0.250000000   0.375000000
         31  -0.125000000  -0.375000000  -0.250000000
         32   0.125000000   0.250000000   0.375000000
         33   0.375000000  -0.250000000  -0.125000000
         34   0.250000000   0.375000000   0.125000000
         35  -0.250000000  -0.375000000   0.125000000
         36   0.375000000   0.250000000  -0.125000000
         37  -0.375000000   0.250000000   0.125000000
         38   0.375000000  -0.250000000   0.125000000
         39  -0.375000000  -0.250000000  -0.125000000
         40  -0.250000000  -0.125000000  -0.375000000
         41   0.250000000  -0.375000000   0.125000000
         42  -0.250000000  -0.375000000  -0.125000000
         43   0.250000000   0.375000000  -0.125000000
         44  -0.250000000   0.375000000   0.125000000
         45  -0.375000000   0.125000000   0.250000000
         46  -0.375000000  -0.125000000  -0.250000000
         47   0.375000000  -0.125000000   0.250000000
         48   0.375000000   0.125000000  -0.250000000

     Diagonalizing the dynamical matrix

     q = (   -0.125000000  -0.250000000   0.375000000 ) 

 **************************************************************************
     freq (    1) =       2.488910 [THz] =      83.021093 [cm-1]
     freq (    2) =       3.561646 [THz] =     118.803706 [cm-1]
     freq (    3) =       6.127375 [THz] =     204.387239 [cm-1]
 **************************************************************************

     Mode symmetry, C_1 (1)     point group:

     freq (  1 -  1) =         83.0  [cm-1]   --> A                  
     freq (  2 -  2) =        118.8  [cm-1]   --> A                  
     freq (  3 -  3) =        204.4  [cm-1]   --> A                  

     Calculation of q =   -0.1250000   0.6250000  -0.5000000

   Info: using nr1, nr2, nr3 values from input

   Info: using nr1, nr2, nr3 values from input

     Parallelization info
     --------------------
     sticks:   dense  smooth     PW     G-vecs:    dense   smooth      PW
     Min         204     102     41                 3692     1319     322
     Max         205     103     42                 3694     1321     323
     Sum         817     411    165                14771     5281    1289



     bravais-lattice index     =            3
     lattice parameter (alat)  =       6.7398  a.u.
     unit-cell volume          =     153.0757 (a.u.)^3
     number of atoms/cell      =            1
     number of atomic types    =            1
     number of electrons       =         9.00
     number of Kohn-Sham states=            9
     kinetic-energy cutoff     =      40.0000  Ry
     charge density cutoff     =     320.0000  Ry
     Exchange-correlation      = SLA  PW   PBE  PBE ( 1  4  3  4 0 0)

     celldm(1)=   6.739775  celldm(2)=   0.000000  celldm(3)=   0.000000
     celldm(4)=   0.000000  celldm(5)=   0.000000  celldm(6)=   0.000000

     crystal axes: (cart. coord. in units of alat)
               a(1) = (   0.500000   0.500000   0.500000 )  
               a(2) = (  -0.500000   0.500000   0.500000 )  
               a(3) = (  -0.500000  -0.500000   0.500000 )  

     reciprocal axes: (cart. coord. in units 2 pi/alat)
               b(1) = (  1.000000  0.000000  1.000000 )  
               b(2) = ( -1.000000  1.000000  0.000000 )  
               b(3) = (  0.000000 -1.000000  1.000000 )  


     PseudoPot. # 1 for Na read from file:
     /home/s1333534/quantum_espresso/qe-6.1/pseudo/Na_pbe_v1.uspp.F.UPF
     MD5 check sum: 76a99c7e9422403d3e93cbc85ab7bccb
     Pseudo is Ultrasoft, Zval =  9.0
     Generated by new atomic code, or converted to UPF format
     Using radial grid of  819 points,  5 beta functions with: 
                l(1) =   0
                l(2) =   0
                l(3) =   1
                l(4) =   1
                l(5) =   2
     Q(r) pseudized with  8 coefficients,  rinner =    1.250   1.250   1.250
                                                       1.250   1.250

     atomic species   valence    mass     pseudopotential
        Na             9.00    22.99000     Na( 1.00)

     48 Sym. Ops., with inversion, found



   Cartesian axes

     site n.     atom                  positions (alat units)
         1           Na  tau(   1) = (   0.0000000   0.0000000   0.0000000  )

     number of k points=  5488  Marzari-Vanderbilt smearing, width (Ry)=  0.0200

     Number of k-points >= 100: set verbosity='high' to print them.

     Dense  grid:    14771 G-vectors     FFT dimensions: (  36,  36,  36)

     Smooth grid:     5281 G-vectors     FFT dimensions: (  24,  24,  24)

     Estimated max dynamical RAM per process >       1.49MB

     Estimated total allocated dynamical RAM >       5.96MB

     The potential is recalculated from file :
     ./_ph0/na.bcc.save/charge-density.dat

     Starting wfc are    5 atomic +    4 random wfc

     Band Structure Calculation
     Davidson diagonalization with overlap

     ethr =  1.11E-10,  avg # of iterations = 17.8

     total cpu time spent up to now is      340.5 secs

     End of band structure calculation

     Number of k-points >= 100: set verbosity='high' to print the bands.

     the Fermi energy is     4.3242 ev

     Writing output data file na.bcc.save

                                                                                

     bravais-lattice index     =            3
     lattice parameter (alat)  =       6.7398  a.u.
     unit-cell volume          =     153.0757 (a.u.)^3
     number of atoms/cell      =            1
     number of atomic types    =            1
     kinetic-energy cut-off    =      40.0000  Ry
     charge density cut-off    =     320.0000  Ry
     convergence threshold     =      1.0E-12
     beta                      =       0.7000
     number of iterations used =            4
     Exchange-correlation      = SLA  PW   PBE  PBE ( 1  4  3  4 0 0)


     celldm(1)=    6.73978  celldm(2)=    0.00000  celldm(3)=    0.00000
     celldm(4)=    0.00000  celldm(5)=    0.00000  celldm(6)=    0.00000

     crystal axes: (cart. coord. in units of alat)
               a(1) = (  0.5000  0.5000  0.5000 )  
               a(2) = ( -0.5000  0.5000  0.5000 )  
               a(3) = ( -0.5000 -0.5000  0.5000 )  

     reciprocal axes: (cart. coord. in units 2 pi/alat)
               b(1) = (  1.0000  0.0000  1.0000 )  
               b(2) = ( -1.0000  1.0000  0.0000 )  
               b(3) = (  0.0000 -1.0000  1.0000 )  


     Atoms inside the unit cell: 

     Cartesian axes

[...]
     celldm(4)=    0.00000  celldm(5)=    0.00000  celldm(6)=    0.00000

     crystal axes: (cart. coord. in units of alat)
               a(1) = (  0.5000  0.5000  0.5000 )  
               a(2) = ( -0.5000  0.5000  0.5000 )  
               a(3) = ( -0.5000 -0.5000  0.5000 )  

     reciprocal axes: (cart. coord. in units 2 pi/alat)
               b(1) = (  1.0000  0.0000  1.0000 )  
               b(2) = ( -1.0000  1.0000  0.0000 )  
               b(3) = (  0.0000 -1.0000  1.0000 )  


     Atoms inside the unit cell: 

     Cartesian axes

     site n.  atom      mass           positions (alat units)
        1     Na  22.9900   tau(    1) = (    0.00000    0.00000    0.00000  )

     Computing dynamical matrix for 
                    q = (   0.0000000   0.8750000  -0.1250000 )

      4 Sym.Ops. (no q -> -q+G )


     G cutoff =  368.1977  (   3694 G-vectors)     FFT grid: ( 36, 36, 36)
     G cutoff =  184.0988  (   1321 G-vectors)  smooth grid: ( 24, 24, 24)

     number of k points=  1568  Marzari-Vanderbilt smearing, width (Ry)=  0.0200

     PseudoPot. # 1 for Na read from file:
     /home/s1333534/quantum_espresso/qe-6.1/pseudo/Na_pbe_v1.uspp.F.UPF
     MD5 check sum: 76a99c7e9422403d3e93cbc85ab7bccb
     Pseudo is Ultrasoft, Zval =  9.0
     Generated by new atomic code, or converted to UPF format
     Using radial grid of  819 points,  5 beta functions with: 
                l(1) =   0
                l(2) =   0
                l(3) =   1
                l(4) =   1
                l(5) =   2
     Q(r) pseudized with  8 coefficients,  rinner =    1.250   1.250   1.250
                                                       1.250   1.250

     Mode symmetry, C_2v (mm2)  point group:


     Atomic displacements:
     There are   3 irreducible representations

     Representation     1      1 modes -A_1  D_1  S_1  To be done

     Representation     2      1 modes -B_1  D_3  S_3  To be done

     Representation     3      1 modes -B_2  D_4  S_4  To be done



     Alpha used in Ewald sum =   2.8000
     PHONON       :     1h15m CPU        1h20m WALL



     Representation #  1 mode #   1

     Self-consistent Calculation

      iter #   1 total cpu time :  4821.1 secs   av.it.:   5.7
      thresh= 1.000E-02 alpha_mix =  0.700 |ddv_scf|^2 =  5.065E-05

      iter #   2 total cpu time :  4825.6 secs   av.it.:   7.4
      thresh= 7.117E-04 alpha_mix =  0.700 |ddv_scf|^2 =  1.246E-06

      iter #   3 total cpu time :  4830.2 secs   av.it.:   7.6
      thresh= 1.116E-04 alpha_mix =  0.700 |ddv_scf|^2 =  4.112E-08

      iter #   4 total cpu time :  4834.8 secs   av.it.:   7.9
      thresh= 2.028E-05 alpha_mix =  0.700 |ddv_scf|^2 =  2.465E-09

      iter #   5 total cpu time :  4839.5 secs   av.it.:   7.9
      thresh= 4.965E-06 alpha_mix =  0.700 |ddv_scf|^2 =  1.838E-10

      iter #   6 total cpu time :  4844.0 secs   av.it.:   7.5
      thresh= 1.356E-06 alpha_mix =  0.700 |ddv_scf|^2 =  1.200E-12

      iter #   7 total cpu time :  4848.6 secs   av.it.:   7.7
      thresh= 1.095E-07 alpha_mix =  0.700 |ddv_scf|^2 =  4.383E-14

     End of self-consistent calculation

     Convergence has been achieved 


     Representation #  2 mode #   2

     Self-consistent Calculation

      iter #   1 total cpu time :  4853.0 secs   av.it.:   5.6
      thresh= 1.000E-02 alpha_mix =  0.700 |ddv_scf|^2 =  4.569E-05

      iter #   2 total cpu time :  4857.4 secs   av.it.:   7.3
      thresh= 6.759E-04 alpha_mix =  0.700 |ddv_scf|^2 =  4.203E-07

      iter #   3 total cpu time :  4861.8 secs   av.it.:   7.3
      thresh= 6.483E-05 alpha_mix =  0.700 |ddv_scf|^2 =  3.810E-08

      iter #   4 total cpu time :  4866.2 secs   av.it.:   7.4
      thresh= 1.952E-05 alpha_mix =  0.700 |ddv_scf|^2 =  1.702E-10

      iter #   5 total cpu time :  4870.7 secs   av.it.:   7.3
      thresh= 1.304E-06 alpha_mix =  0.700 |ddv_scf|^2 =  4.970E-14

     End of self-consistent calculation

     Convergence has been achieved 


     Representation #  3 mode #   3

     Self-consistent Calculation

      iter #   1 total cpu time :  4875.0 secs   av.it.:   5.7
      thresh= 1.000E-02 alpha_mix =  0.700 |ddv_scf|^2 =  6.409E-05

      iter #   2 total cpu time :  4879.4 secs   av.it.:   7.2
      thresh= 8.006E-04 alpha_mix =  0.700 |ddv_scf|^2 =  2.276E-06

      iter #   3 total cpu time :  4883.9 secs   av.it.:   7.2
      thresh= 1.509E-04 alpha_mix =  0.700 |ddv_scf|^2 =  5.024E-08

      iter #   4 total cpu time :  4888.4 secs   av.it.:   7.5
      thresh= 2.242E-05 alpha_mix =  0.700 |ddv_scf|^2 =  1.668E-09

      iter #   5 total cpu time :  4892.7 secs   av.it.:   7.2
      thresh= 4.084E-06 alpha_mix =  0.700 |ddv_scf|^2 =  5.156E-12

      iter #   6 total cpu time :  4897.3 secs   av.it.:   7.6
      thresh= 2.271E-07 alpha_mix =  0.700 |ddv_scf|^2 =  5.291E-15

     End of self-consistent calculation

     Convergence has been achieved 

     Number of q in the star =   12
     List of q in the star:
          1   0.000000000   0.875000000  -0.125000000
          2   0.000000000  -0.875000000  -0.125000000
          3   0.875000000   0.000000000  -0.125000000
          4  -0.875000000   0.000000000  -0.125000000
          5   0.125000000   0.000000000  -0.875000000
          6   0.125000000   0.875000000   0.000000000
          7   0.000000000   0.875000000   0.125000000
          8   0.875000000   0.000000000   0.125000000
          9   0.125000000  -0.875000000   0.000000000
         10  -0.125000000  -0.875000000   0.000000000
         11   0.875000000  -0.125000000   0.000000000
         12   0.000000000  -0.875000000   0.125000000

     Diagonalizing the dynamical matrix

     q = (    0.000000000   0.875000000  -0.125000000 ) 

 **************************************************************************
     freq (    1) =       5.551918 [THz] =     185.192065 [cm-1]
     freq (    2) =       5.667090 [THz] =     189.033761 [cm-1]
     freq (    3) =       6.208078 [THz] =     207.079208 [cm-1]
 **************************************************************************

     Mode symmetry, C_2v (mm2)  point group:

     freq (  1 -  1) =        185.2  [cm-1]   --> A_1  D_1  S_1      
     freq (  2 -  2) =        189.0  [cm-1]   --> B_1  D_3  S_3      
     freq (  3 -  3) =        207.1  [cm-1]   --> B_2  D_4  S_4      

     Calculation of q =    0.0000000   0.0000000  -1.0000000

   Info: using nr1, nr2, nr3 values from input

   Info: using nr1, nr2, nr3 values from input

     Parallelization info
     --------------------
     sticks:   dense  smooth     PW     G-vecs:    dense   smooth      PW
     Min         204     102     39                 3692     1319     312
     Max         205     103     40                 3694     1321     314
     Sum         817     411    159                14771     5281    1253



     bravais-lattice index     =            3
     lattice parameter (alat)  =       6.7398  a.u.
     unit-cell volume          =     153.0757 (a.u.)^3
     number of atoms/cell      =            1
     number of atomic types    =            1
     number of electrons       =         9.00
     number of Kohn-Sham states=            9
     kinetic-energy cutoff     =      40.0000  Ry
     charge density cutoff     =     320.0000  Ry
     Exchange-correlation      = SLA  PW   PBE  PBE ( 1  4  3  4 0 0)

     celldm(1)=   6.739775  celldm(2)=   0.000000  celldm(3)=   0.000000
     celldm(4)=   0.000000  celldm(5)=   0.000000  celldm(6)=   0.000000

     crystal axes: (cart. coord. in units of alat)
               a(1) = (   0.500000   0.500000   0.500000 )  
               a(2) = (  -0.500000   0.500000   0.500000 )  
               a(3) = (  -0.500000  -0.500000   0.500000 )  

     reciprocal axes: (cart. coord. in units 2 pi/alat)
               b(1) = (  1.000000  0.000000  1.000000 )  
               b(2) = ( -1.000000  1.000000  0.000000 )  
               b(3) = (  0.000000 -1.000000  1.000000 )  


     PseudoPot. # 1 for Na read from file:
     /home/s1333534/quantum_espresso/qe-6.1/pseudo/Na_pbe_v1.uspp.F.UPF
     MD5 check sum: 76a99c7e9422403d3e93cbc85ab7bccb
     Pseudo is Ultrasoft, Zval =  9.0
     Generated by new atomic code, or converted to UPF format
     Using radial grid of  819 points,  5 beta functions with: 
                l(1) =   0
                l(2) =   0
                l(3) =   1
                l(4) =   1
                l(5) =   2
     Q(r) pseudized with  8 coefficients,  rinner =    1.250   1.250   1.250
                                                       1.250   1.250

     atomic species   valence    mass     pseudopotential
        Na             9.00    22.99000     Na( 1.00)

     48 Sym. Ops., with inversion, found



   Cartesian axes

     site n.     atom                  positions (alat units)
         1           Na  tau(   1) = (   0.0000000   0.0000000   0.0000000  )

     number of k points=   200  Marzari-Vanderbilt smearing, width (Ry)=  0.0200

     Number of k-points >= 100: set verbosity='high' to print them.

     Dense  grid:    14771 G-vectors     FFT dimensions: (  36,  36,  36)

     Smooth grid:     5281 G-vectors     FFT dimensions: (  24,  24,  24)

     Estimated max dynamical RAM per process >       1.49MB

     Estimated total allocated dynamical RAM >       5.96MB

     The potential is recalculated from file :
     ./_ph0/na.bcc.save/charge-density.dat

     Starting wfc are    5 atomic +    4 random wfc

     Band Structure Calculation
     Davidson diagonalization with overlap

     ethr =  1.11E-10,  avg # of iterations = 18.3

     total cpu time spent up to now is     1131.6 secs

     End of band structure calculation

     Number of k-points >= 100: set verbosity='high' to print the bands.

     the Fermi energy is     4.3242 ev

     Writing output data file na.bcc.save

                                                                                

     bravais-lattice index     =            3
     lattice parameter (alat)  =       6.7398  a.u.
     unit-cell volume          =     153.0757 (a.u.)^3
     number of atoms/cell      =            1
     number of atomic types    =            1
     kinetic-energy cut-off    =      40.0000  Ry
     charge density cut-off    =     320.0000  Ry
     convergence threshold     =      1.0E-12
     beta                      =       0.7000
     number of iterations used =            4
     Exchange-correlation      = SLA  PW   PBE  PBE ( 1  4  3  4 0 0)


     celldm(1)=    6.73978  celldm(2)=    0.00000  celldm(3)=    0.00000
     celldm(4)=    0.00000  celldm(5)=    0.00000  celldm(6)=    0.00000

     crystal axes: (cart. coord. in units of alat)
               a(1) = (  0.5000  0.5000  0.5000 )  
               a(2) = ( -0.5000  0.5000  0.5000 )  
               a(3) = ( -0.5000 -0.5000  0.5000 )  

     reciprocal axes: (cart. coord. in units 2 pi/alat)
               b(1) = (  1.0000  0.0000  1.0000 )  
               b(2) = ( -1.0000  1.0000  0.0000 )  
               b(3) = (  0.0000 -1.0000  1.0000 )  


     Atoms inside the unit cell: 

     Cartesian axes

     site n.  atom      mass           positions (alat units)
        1     Na  22.9900   tau(    1) = (    0.00000    0.00000    0.00000  )

     Computing dynamical matrix for 
                    q = (   0.0000000   0.0000000  -1.0000000 )

     49 Sym.Ops. (with q -> -q+G )


     G cutoff =  368.1977  (   3694 G-vectors)     FFT grid: ( 36, 36, 36)
     G cutoff =  184.0988  (   1321 G-vectors)  smooth grid: ( 24, 24, 24)

     number of k points=   200  Marzari-Vanderbilt smearing, width (Ry)=  0.0200

     PseudoPot. # 1 for Na read from file:
     /home/s1333534/quantum_espresso/qe-6.1/pseudo/Na_pbe_v1.uspp.F.UPF
     MD5 check sum: 76a99c7e9422403d3e93cbc85ab7bccb
     Pseudo is Ultrasoft, Zval =  9.0
     Generated by new atomic code, or converted to UPF format
     Using radial grid of  819 points,  5 beta functions with: 
                l(1) =   0
                l(2) =   0
                l(3) =   1
                l(4) =   1
                l(5) =   2
     Q(r) pseudized with  8 coefficients,  rinner =    1.250   1.250   1.250
                                                       1.250   1.250

     Mode symmetry, O_h (m-3m)  point group:


     Atomic displacements:
     There are   1 irreducible representations

     Representation     1      3 modes -T_1u G_15  G_4-  To be done



     Alpha used in Ewald sum =   2.8000
     PHONON       :     1h16m CPU        1h21m WALL



     Representation #  1 modes #   1  2  3

     Self-consistent Calculation

      iter #   1 total cpu time :  4903.5 secs   av.it.:   5.8
      thresh= 1.000E-02 alpha_mix =  0.700 |ddv_scf|^2 =  5.422E-06

      iter #   2 total cpu time :  4905.6 secs   av.it.:   8.3
      thresh= 2.329E-04 alpha_mix =  0.700 |ddv_scf|^2 =  5.247E-08

      iter #   3 total cpu time :  4907.6 secs   av.it.:   8.2
      thresh= 2.291E-05 alpha_mix =  0.700 |ddv_scf|^2 =  4.579E-09

      iter #   4 total cpu time :  4909.7 secs   av.it.:   8.4
      thresh= 6.767E-06 alpha_mix =  0.700 |ddv_scf|^2 =  2.003E-11

      iter #   5 total cpu time :  4911.8 secs   av.it.:   8.2
      thresh= 4.475E-07 alpha_mix =  0.700 |ddv_scf|^2 =  4.929E-15

     End of self-consistent calculation

     Convergence has been achieved 

     Number of q in the star =    1
     List of q in the star:
          1   0.000000000   0.000000000  -1.000000000

     Diagonalizing the dynamical matrix

     q = (    0.000000000   0.000000000  -1.000000000 ) 

 **************************************************************************
     freq (    1) =       5.903157 [THz] =     196.908106 [cm-1]
     freq (    2) =       5.903157 [THz] =     196.908106 [cm-1]
     freq (    3) =       5.903157 [THz] =     196.908106 [cm-1]
 **************************************************************************

     Mode symmetry, O_h (m-3m)  point group:

     freq (  1 -  3) =        196.9  [cm-1]   --> T_1u G_15  G_4-    

     init_run     :      4.39s CPU      4.45s WALL (      28 calls)
     electrons    :   1034.69s CPU   1082.28s WALL (      28 calls)

     Called by init_run:
     wfcinit      :      0.00s CPU      0.00s WALL (      28 calls)
     potinit      :      0.31s CPU      0.32s WALL (      28 calls)

     Called by electrons:
     c_bands      :   1034.40s CPU   1081.99s WALL (      28 calls)
     v_of_rho     :      0.24s CPU      0.24s WALL (      29 calls)
     newd         :      0.25s CPU      0.26s WALL (      29 calls)

     Called by c_bands:
     init_us_2    :     67.09s CPU     63.47s WALL (  905885 calls)
     cegterg      :    951.51s CPU    994.54s WALL (   73745 calls)

     Called by sum_band:

     Called by *egterg:
     h_psi        :   2950.78s CPU   3146.05s WALL ( 7434298 calls)
     s_psi        :    117.26s CPU    110.00s WALL (14242864 calls)
     g_psi        :      6.48s CPU      7.63s WALL ( 1129007 calls)
     cdiaghg      :    243.95s CPU    247.78s WALL ( 1192173 calls)

     Called by h_psi:
     h_psi:pot    :   2936.22s CPU   3123.40s WALL ( 7434298 calls)
     h_psi:calbec :     78.76s CPU     91.57s WALL ( 7434298 calls)
     vloc_psi     :   2792.00s CPU   2944.67s WALL ( 7434298 calls)
     add_vuspsi   :     50.37s CPU     65.58s WALL ( 7434298 calls)

     General routines
     calbec       :    166.41s CPU    177.20s WALL (15801557 calls)
     fft          :      2.18s CPU      2.31s WALL (    8962 calls)
     ffts         :      5.97s CPU      6.09s WALL (   97070 calls)
     fftw         :   3086.67s CPU   3143.22s WALL (71833677 calls)
     interpolate  :      0.35s CPU      0.40s WALL (    1243 calls)
     davcio       :     28.58s CPU     46.04s WALL ( 3426322 calls)

     Parallel routines
     fft_scatter  :    615.10s CPU    683.88s WALL (71939709 calls)

     PHONON       :     1h16m CPU        1h21m WALL

     INITIALIZATION: 
     phq_setup    :      0.78s CPU      0.80s WALL (      29 calls)
     phq_init     :     83.01s CPU     86.82s WALL (      29 calls)

     phq_init     :     83.01s CPU     86.82s WALL (      29 calls)
     init_vloc    :      0.06s CPU      0.06s WALL (      29 calls)
     init_us_1    :      2.54s CPU      2.56s WALL (      29 calls)
     newd         :      0.25s CPU      0.26s WALL (      29 calls)
     dvanqq       :      1.01s CPU      1.02s WALL (      29 calls)
     drho         :     65.39s CPU     68.26s WALL (      29 calls)

     DYNAMICAL MATRIX:
     dynmat0      :     10.37s CPU     10.83s WALL (      29 calls)
     phqscf       :   3447.68s CPU   3691.41s WALL (      29 calls)
     dynmatrix    :      0.03s CPU      0.04s WALL (      29 calls)

     phqscf       :   3447.68s CPU   3691.41s WALL (      29 calls)
     solve_linter :   3430.64s CPU   3673.48s WALL (      76 calls)
     drhodv       :     16.95s CPU     17.81s WALL (      76 calls)

     dynmat0      :     10.37s CPU     10.83s WALL (      29 calls)
     dynmat_us    :     10.33s CPU     10.79s WALL (      29 calls)
     d2ionq       :      0.02s CPU      0.02s WALL (      29 calls)

     dynmat_us    :     10.33s CPU     10.79s WALL (      29 calls)
     addusdynmat  :      0.00s CPU      0.00s WALL (      29 calls)

     phqscf       :   3447.68s CPU   3691.41s WALL (      29 calls)
     solve_linter :   3430.64s CPU   3673.48s WALL (      76 calls)

     solve_linter :   3430.64s CPU   3673.48s WALL (      76 calls)
     dvqpsi_us    :    103.24s CPU    109.71s WALL (   95049 calls)
     ortho        :     33.23s CPU     36.24s WALL (  640186 calls)
     cgsolve      :   2653.78s CPU   2822.16s WALL (  640186 calls)
     incdrhoscf   :    289.99s CPU    315.04s WALL (  640186 calls)
     addusddens   :      8.14s CPU      8.20s WALL (     570 calls)
     vpsifft      :    230.11s CPU    247.67s WALL (  545137 calls)
     dv_of_drho   :      2.54s CPU      2.63s WALL (     549 calls)
     mix_pot      :      0.36s CPU      1.00s WALL (     494 calls)
     ef_shift     :      0.01s CPU      0.01s WALL (       6 calls)
     localdos     :      0.04s CPU      0.05s WALL (       1 calls)
     psymdvscf    :      5.73s CPU      5.82s WALL (     427 calls)
     newdq        :      7.30s CPU      7.39s WALL (     494 calls)
     adddvscf     :     12.83s CPU     13.74s WALL (  545137 calls)
     drhodvus     :      0.02s CPU      0.02s WALL (      76 calls)

     dvqpsi_us    :    103.24s CPU    109.71s WALL (   95049 calls)
     dvqpsi_us_on :     20.05s CPU     20.07s WALL (   95049 calls)

     cgsolve      :   2653.78s CPU   2822.16s WALL (  640186 calls)
     ch_psi       :   2579.85s CPU   2756.11s WALL ( 6168380 calls)

     ch_psi       :   2579.85s CPU   2756.11s WALL ( 6168380 calls)
     h_psi        :   2950.78s CPU   3146.05s WALL ( 7434298 calls)
     last         :    181.99s CPU    207.35s WALL ( 6168380 calls)

     h_psi        :   2950.78s CPU   3146.05s WALL ( 7434298 calls)
     add_vuspsi   :     50.37s CPU     65.58s WALL ( 7434298 calls)

     incdrhoscf   :    289.99s CPU    315.04s WALL (  640186 calls)
     addusdbec    :     13.23s CPU     15.95s WALL (  735235 calls)

     drhodvus     :      0.02s CPU      0.02s WALL (      76 calls)

      General routines
     calbec       :    166.41s CPU    177.20s WALL (15801557 calls)
     fft          :      2.18s CPU      2.31s WALL (    8962 calls)
     ffts         :      5.97s CPU      6.09s WALL (   97070 calls)
     fftw         :   3086.67s CPU   3143.22s WALL (71833677 calls)
     davcio       :     28.58s CPU     46.04s WALL ( 3426322 calls)
     write_rec    :      0.42s CPU      0.56s WALL (     570 calls)


     PHONON       :     1h16m CPU        1h21m WALL


   This run was terminated on:  13:10:17  21Dec2017            

=------------------------------------------------------------------------------=
   JOB DONE.
=------------------------------------------------------------------------------=
