
     Program PHONON v.5.4.0 starts on  7Apr2018 at 16:52:41 

     This program is part of the open-source Quantum ESPRESSO suite
     for quantum simulation of materials; please cite
         "P. Giannozzi et al., J. Phys.:Condens. Matter 21 395502 (2009);
          URL http://www.quantum-espresso.org", 
     in publications or presentations arising from this work. More details at
     http://www.quantum-espresso.org/quote

     Parallel version (MPI & OpenMP), running on     384 processor cores
     Number of MPI processes:               384
     Threads/MPI process:                     1
     K-points division:     npool     =      24
     R & G space division:  proc/nbgrp/npool/nimage =      16

     Reading data from directory:
     ./silicon/silicon.10.400.save

   Info: using nr1, nr2, nr3 values from input

   Info: using nr1, nr2, nr3 values from input

     IMPORTANT: XC functional enforced from input :
     Exchange-correlation      = SLA  PW   PBE  PBE ( 1  4  3  4 0 0)
     Any further DFT definition will be discarded
     Please, verify this is what you really want

 
     Parallelization info
     --------------------
     sticks:   dense  smooth     PW     G-vecs:    dense   smooth      PW
     Min          55      27      9                 1097      380      76
     Max          56      28     10                 1100      398      79
     Sum         889     439    151                17573     6231    1243
 


     Dynamical matrices for ( 6, 6, 6)  uniform grid of q-points
     (  16q-points):
       N         xq(1)         xq(2)         xq(3) 
       1   0.000000000   0.000000000   0.000000000
       2  -0.166666667   0.166666667  -0.166666667
       3  -0.333333333   0.333333333  -0.333333333
       4   0.500000000  -0.500000000   0.500000000
       5   0.000000000   0.333333333   0.000000000
       6  -0.166666667   0.500000000  -0.166666667
       7   0.666666667  -0.333333333   0.666666667
       8   0.500000000  -0.166666667   0.500000000
       9   0.333333333   0.000000000   0.333333333
      10   0.000000000   0.666666667   0.000000000
      11   0.833333333  -0.166666667   0.833333333
      12   0.666666667  -0.000000000   0.666666667
      13   0.000000000  -1.000000000   0.000000000
      14   0.666666667  -0.333333333   1.000000000
      15   0.500000000  -0.166666667   0.833333333
      16  -0.333333333  -1.000000000   0.000000000

     Calculation of q =    0.5000000  -0.1666667   0.8333333
 
     Parallelization info
     --------------------
     sticks:   dense  smooth     PW     G-vecs:    dense   smooth      PW
     Min          55      27     11                 1097      381     101
     Max          56      28     12                 1100      396     103
     Sum         889     439    187                17573     6231    1639
 


     bravais-lattice index     =            2
     lattice parameter (alat)  =      10.4000  a.u.
     unit-cell volume          =     281.2160 (a.u.)^3
     number of atoms/cell      =            2
     number of atomic types    =            1
     number of electrons       =         8.00
     number of Kohn-Sham states=            4
     kinetic-energy cutoff     =      30.0000  Ry
     charge density cutoff     =     240.0000  Ry
     Exchange-correlation      = SLA  PW   PBE  PBE ( 1  4  3  4 0 0)

     celldm(1)=  10.400000  celldm(2)=   0.000000  celldm(3)=   0.000000
     celldm(4)=   0.000000  celldm(5)=   0.000000  celldm(6)=   0.000000

     crystal axes: (cart. coord. in units of alat)
               a(1) = (  -0.500000   0.000000   0.500000 )  
               a(2) = (   0.000000   0.500000   0.500000 )  
               a(3) = (  -0.500000   0.500000   0.000000 )  

     reciprocal axes: (cart. coord. in units 2 pi/alat)
               b(1) = ( -1.000000 -1.000000  1.000000 )  
               b(2) = (  1.000000  1.000000  1.000000 )  
               b(3) = ( -1.000000  1.000000 -1.000000 )  


     PseudoPot. # 1 for Si read from file:
     ./si_pbe_v1.uspp.F.UPF.txt
     MD5 check sum: a056efeee980c13900f22a371efd63c1
     Pseudo is Ultrasoft + core correction, Zval =  4.0
     Generated by new atomic code, or converted to UPF format
     Using radial grid of  899 points,  6 beta functions with: 
                l(1) =   0
                l(2) =   0
                l(3) =   1
                l(4) =   1
                l(5) =   2
                l(6) =   2
     Q(r) pseudized with  8 coefficients,  rinner =    0.900   0.900   0.900
                                                       0.900   0.900

     atomic species   valence    mass     pseudopotential
        Si             4.00    28.08600     Si( 1.00)

     48 Sym. Ops., with inversion, found



   Cartesian axes

     site n.     atom                  positions (alat units)
         1           Si  tau(   1) = (   0.0000000   0.0000000   0.0000000  )
         2           Si  tau(   2) = (   0.2500000   0.2500000   0.2500000  )

     number of k points=  6912

     Number of k-points >= 100: set verbosity='high' to print them.

     Dense  grid:    17573 G-vectors     FFT dimensions: (  40,  40,  40)

     Smooth grid:     6231 G-vectors     FFT dimensions: (  25,  25,  25)

     Largest allocated arrays     est. size (Mb)     dimensions
        Kohn-Sham Wavefunctions         0.00 Mb     (      56,    4)
        NL pseudopotentials             0.03 Mb     (      56,   36)
        Each V/rho on FFT grid          0.07 Mb     (    4800)
        Each G-vector array             0.01 Mb     (    1100)
        G-vector shells                 0.00 Mb     (     211)
     Largest temporary arrays     est. size (Mb)     dimensions
        Auxiliary wavefunctions         0.01 Mb     (      56,   16)
        Each subspace H/S matrix        0.00 Mb     (       8,    8)
        Each <psi_i|beta_j> matrix      0.00 Mb     (      36,    4)

     The potential is recalculated from file :
     ./silicon/_ph0/silicon.10.400.save/charge-density.dat

     Starting wfc are    8 atomic wfcs

     Band Structure Calculation
     Davidson diagonalization with overlap

     ethr =  1.25E-10,  avg # of iterations = 12.3

     total cpu time spent up to now is       46.0 secs

     End of band structure calculation

     Number of k-points >= 100: set verbosity='high' to print the bands.

     highest occupied level (ev):     5.7457

     Writing output data file silicon.10.400.save

                                                                                

     bravais-lattice index     =            2
     lattice parameter (alat)  =      10.4000  a.u.
     unit-cell volume          =     281.2160 (a.u.)^3
     number of atoms/cell      =            2
     number of atomic types    =            1
     kinetic-energy cut-off    =      30.0000  Ry
     charge density cut-off    =     240.0000  Ry
     convergence threshold     =      1.0E-16
     beta                      =       0.7000
     number of iterations used =            4
     Exchange-correlation      = SLA  PW   PBE  PBE ( 1  4  3  4 0 0)


     celldm(1)=   10.40000  celldm(2)=    0.00000  celldm(3)=    0.00000
     celldm(4)=    0.00000  celldm(5)=    0.00000  celldm(6)=    0.00000

     crystal axes: (cart. coord. in units of alat)
               a(1) = ( -0.5000  0.0000  0.5000 )  
               a(2) = (  0.0000  0.5000  0.5000 )  
               a(3) = ( -0.5000  0.5000  0.0000 )  

     reciprocal axes: (cart. coord. in units 2 pi/alat)
               b(1) = ( -1.0000 -1.0000  1.0000 )  
               b(2) = (  1.0000  1.0000  1.0000 )  
               b(3) = ( -1.0000  1.0000 -1.0000 )  


     Atoms inside the unit cell: 

     Cartesian axes

     site n.  atom      mass           positions (alat units)
        1     Si  28.0860   tau(    1) = (    0.00000    0.00000    0.00000  )
        2     Si  28.0860   tau(    2) = (    0.25000    0.25000    0.25000  )

     Computing dynamical matrix for 
                    q = (   0.5000000  -0.1666667   0.8333333 )
 
      2 Sym.Ops. (no q -> -q+G )


     G cutoff =  657.5340  (   1100 G-vectors)     FFT grid: ( 40, 40, 40)
     G cutoff =  328.7670  (    385 G-vectors)  smooth grid: ( 25, 25, 25)
     number of k points=  6912

     PseudoPot. # 1 for Si read from file:
     ./si_pbe_v1.uspp.F.UPF.txt
     MD5 check sum: a056efeee980c13900f22a371efd63c1
     Pseudo is Ultrasoft + core correction, Zval =  4.0
     Generated by new atomic code, or converted to UPF format
     Using radial grid of  899 points,  6 beta functions with: 
                l(1) =   0
                l(2) =   0
                l(3) =   1
                l(4) =   1
                l(5) =   2
                l(6) =   2
     Q(r) pseudized with  8 coefficients,  rinner =    0.900   0.900   0.900
                                                       0.900   0.900


     Atomic displacements:
     There are   6 irreducible representations

     Representation     1      1 modes -  To be done

     Representation     2      1 modes -  To be done

     Representation     3      1 modes -  To be done

     Representation     4      1 modes -  To be done

     Representation     5      1 modes -  To be done

     Representation     6      1 modes -  To be done



     Alpha used in Ewald sum =   2.5000
     PHONON       :  0m50.70s CPU     1m 1.61s WALL



     Representation #  1 mode #   1

     Self-consistent Calculation

      iter #   1 total cpu time :    77.3 secs   av.it.:   5.4
      thresh= 1.000E-02 alpha_mix =  0.700 |ddv_scf|^2 =  2.038E-06

      iter #   2 total cpu time :    80.3 secs   av.it.:  11.2
      thresh= 1.428E-04 alpha_mix =  0.700 |ddv_scf|^2 =  3.257E-06

      iter #   3 total cpu time :    84.0 secs   av.it.:  10.2
      thresh= 1.805E-04 alpha_mix =  0.700 |ddv_scf|^2 =  1.038E-08

      iter #   4 total cpu time :    87.0 secs   av.it.:  11.0
      thresh= 1.019E-05 alpha_mix =  0.700 |ddv_scf|^2 =  4.898E-10

      iter #   5 total cpu time :    89.3 secs   av.it.:  10.9
      thresh= 2.213E-06 alpha_mix =  0.700 |ddv_scf|^2 =  1.529E-12

      iter #   6 total cpu time :    92.7 secs   av.it.:  11.0
      thresh= 1.237E-07 alpha_mix =  0.700 |ddv_scf|^2 =  5.123E-14

      iter #   7 total cpu time :    95.7 secs   av.it.:  11.0
      thresh= 2.263E-08 alpha_mix =  0.700 |ddv_scf|^2 =  1.310E-15

      iter #   8 total cpu time :    97.8 secs   av.it.:  11.0
      thresh= 3.620E-09 alpha_mix =  0.700 |ddv_scf|^2 =  3.072E-16

      iter #   9 total cpu time :   100.4 secs   av.it.:  11.0
      thresh= 1.753E-09 alpha_mix =  0.700 |ddv_scf|^2 =  1.440E-16

      iter #  10 total cpu time :   102.5 secs   av.it.:  10.5
      thresh= 1.200E-09 alpha_mix =  0.700 |ddv_scf|^2 =  3.376E-18

     End of self-consistent calculation

     Convergence has been achieved 


     Representation #  2 mode #   2

     Self-consistent Calculation

      iter #   1 total cpu time :   104.5 secs   av.it.:   5.6
      thresh= 1.000E-02 alpha_mix =  0.700 |ddv_scf|^2 =  2.470E-06

      iter #   2 total cpu time :   106.8 secs   av.it.:  11.2
      thresh= 1.572E-04 alpha_mix =  0.700 |ddv_scf|^2 =  3.377E-06

      iter #   3 total cpu time :   109.2 secs   av.it.:  10.3
      thresh= 1.838E-04 alpha_mix =  0.700 |ddv_scf|^2 =  3.334E-08

      iter #   4 total cpu time :   112.1 secs   av.it.:  10.8
      thresh= 1.826E-05 alpha_mix =  0.700 |ddv_scf|^2 =  4.931E-10

      iter #   5 total cpu time :   114.5 secs   av.it.:  10.8
      thresh= 2.221E-06 alpha_mix =  0.700 |ddv_scf|^2 =  1.437E-12

      iter #   6 total cpu time :   116.7 secs   av.it.:  10.9
      thresh= 1.199E-07 alpha_mix =  0.700 |ddv_scf|^2 =  5.981E-14

      iter #   7 total cpu time :   119.1 secs   av.it.:  11.0
      thresh= 2.446E-08 alpha_mix =  0.700 |ddv_scf|^2 =  1.904E-15

      iter #   8 total cpu time :   121.2 secs   av.it.:  10.7
      thresh= 4.363E-09 alpha_mix =  0.700 |ddv_scf|^2 =  1.067E-16

      iter #   9 total cpu time :   123.7 secs   av.it.:  11.1
      thresh= 1.033E-09 alpha_mix =  0.700 |ddv_scf|^2 =  5.560E-17

     End of self-consistent calculation

     Convergence has been achieved 


     Representation #  3 mode #   3

     Self-consistent Calculation

      iter #   1 total cpu time :   125.7 secs   av.it.:   5.3
      thresh= 1.000E-02 alpha_mix =  0.700 |ddv_scf|^2 =  1.070E-06

      iter #   2 total cpu time :   128.0 secs   av.it.:  11.2
      thresh= 1.035E-04 alpha_mix =  0.700 |ddv_scf|^2 =  6.457E-07

      iter #   3 total cpu time :   130.6 secs   av.it.:  10.7
      thresh= 8.036E-05 alpha_mix =  0.700 |ddv_scf|^2 =  9.046E-09

      iter #   4 total cpu time :   132.7 secs   av.it.:  10.9
      thresh= 9.511E-06 alpha_mix =  0.700 |ddv_scf|^2 =  1.811E-09

      iter #   5 total cpu time :   134.9 secs   av.it.:  10.8
      thresh= 4.256E-06 alpha_mix =  0.700 |ddv_scf|^2 =  6.209E-12

      iter #   6 total cpu time :   137.1 secs   av.it.:  11.0
      thresh= 2.492E-07 alpha_mix =  0.700 |ddv_scf|^2 =  1.623E-13

      iter #   7 total cpu time :   139.3 secs   av.it.:  10.8
      thresh= 4.029E-08 alpha_mix =  0.700 |ddv_scf|^2 =  1.105E-14

      iter #   8 total cpu time :   141.6 secs   av.it.:  10.7
      thresh= 1.051E-08 alpha_mix =  0.700 |ddv_scf|^2 =  9.539E-17

     End of self-consistent calculation

     Convergence has been achieved 


     Representation #  4 mode #   4

     Self-consistent Calculation

      iter #   1 total cpu time :   143.5 secs   av.it.:   5.9
      thresh= 1.000E-02 alpha_mix =  0.700 |ddv_scf|^2 =  7.947E-06

      iter #   2 total cpu time :   145.8 secs   av.it.:  11.1
      thresh= 2.819E-04 alpha_mix =  0.700 |ddv_scf|^2 =  1.288E-05

      iter #   3 total cpu time :   148.8 secs   av.it.:  10.1
      thresh= 3.590E-04 alpha_mix =  0.700 |ddv_scf|^2 =  6.495E-09

      iter #   4 total cpu time :   151.3 secs   av.it.:  11.1
      thresh= 8.059E-06 alpha_mix =  0.700 |ddv_scf|^2 =  1.171E-09

      iter #   5 total cpu time :   154.0 secs   av.it.:  10.9
      thresh= 3.423E-06 alpha_mix =  0.700 |ddv_scf|^2 =  6.340E-12

      iter #   6 total cpu time :   156.5 secs   av.it.:  11.1
      thresh= 2.518E-07 alpha_mix =  0.700 |ddv_scf|^2 =  1.800E-13

      iter #   7 total cpu time :   158.7 secs   av.it.:  10.6
      thresh= 4.242E-08 alpha_mix =  0.700 |ddv_scf|^2 =  1.259E-14

      iter #   8 total cpu time :   161.2 secs   av.it.:  10.6
      thresh= 1.122E-08 alpha_mix =  0.700 |ddv_scf|^2 =  3.083E-16

      iter #   9 total cpu time :   163.3 secs   av.it.:  11.1
      thresh= 1.756E-09 alpha_mix =  0.700 |ddv_scf|^2 =  3.459E-16

      iter #  10 total cpu time :   165.6 secs   av.it.:  10.4
      thresh= 1.860E-09 alpha_mix =  0.700 |ddv_scf|^2 =  7.432E-18

     End of self-consistent calculation

     Convergence has been achieved 


     Representation #  5 mode #   5

     Self-consistent Calculation

      iter #   1 total cpu time :   167.3 secs   av.it.:   5.3
      thresh= 1.000E-02 alpha_mix =  0.700 |ddv_scf|^2 =  1.440E-06

      iter #   2 total cpu time :   169.6 secs   av.it.:  11.2
      thresh= 1.200E-04 alpha_mix =  0.700 |ddv_scf|^2 =  2.304E-06

      iter #   3 total cpu time :   171.7 secs   av.it.:  10.2
      thresh= 1.518E-04 alpha_mix =  0.700 |ddv_scf|^2 =  6.467E-09

      iter #   4 total cpu time :   173.9 secs   av.it.:  11.0
      thresh= 8.042E-06 alpha_mix =  0.700 |ddv_scf|^2 =  4.947E-10

      iter #   5 total cpu time :   176.0 secs   av.it.:  10.9
      thresh= 2.224E-06 alpha_mix =  0.700 |ddv_scf|^2 =  4.166E-12

      iter #   6 total cpu time :   178.3 secs   av.it.:  10.9
      thresh= 2.041E-07 alpha_mix =  0.700 |ddv_scf|^2 =  9.563E-14

      iter #   7 total cpu time :   180.8 secs   av.it.:  10.9
      thresh= 3.092E-08 alpha_mix =  0.700 |ddv_scf|^2 =  4.532E-15

      iter #   8 total cpu time :   183.5 secs   av.it.:  10.8
      thresh= 6.732E-09 alpha_mix =  0.700 |ddv_scf|^2 =  1.261E-16

      iter #   9 total cpu time :   186.6 secs   av.it.:  11.2
      thresh= 1.123E-09 alpha_mix =  0.700 |ddv_scf|^2 =  1.026E-16

      iter #  10 total cpu time :   188.8 secs   av.it.:  10.5
      thresh= 1.013E-09 alpha_mix =  0.700 |ddv_scf|^2 =  5.486E-18

     End of self-consistent calculation

     Convergence has been achieved 


     Representation #  6 mode #   6

     Self-consistent Calculation

      iter #   1 total cpu time :   191.9 secs   av.it.:   5.6
      thresh= 1.000E-02 alpha_mix =  0.700 |ddv_scf|^2 =  1.882E-06

      iter #   2 total cpu time :   194.5 secs   av.it.:  11.3
      thresh= 1.372E-04 alpha_mix =  0.700 |ddv_scf|^2 =  2.069E-06

      iter #   3 total cpu time :   197.2 secs   av.it.:  10.5
      thresh= 1.438E-04 alpha_mix =  0.700 |ddv_scf|^2 =  3.078E-08

      iter #   4 total cpu time :   199.4 secs   av.it.:  10.9
      thresh= 1.754E-05 alpha_mix =  0.700 |ddv_scf|^2 =  8.938E-10

      iter #   5 total cpu time :   203.2 secs   av.it.:  11.0
      thresh= 2.990E-06 alpha_mix =  0.700 |ddv_scf|^2 =  1.019E-11

      iter #   6 total cpu time :   205.9 secs   av.it.:  11.0
      thresh= 3.192E-07 alpha_mix =  0.700 |ddv_scf|^2 =  1.925E-13

      iter #   7 total cpu time :   208.0 secs   av.it.:  10.7
      thresh= 4.387E-08 alpha_mix =  0.700 |ddv_scf|^2 =  1.337E-14

      iter #   8 total cpu time :   210.3 secs   av.it.:  10.7
      thresh= 1.156E-08 alpha_mix =  0.700 |ddv_scf|^2 =  1.201E-15

      iter #   9 total cpu time :   212.5 secs   av.it.:  11.0
      thresh= 3.465E-09 alpha_mix =  0.700 |ddv_scf|^2 =  2.955E-16

      iter #  10 total cpu time :   214.6 secs   av.it.:  10.7
      thresh= 1.719E-09 alpha_mix =  0.700 |ddv_scf|^2 =  5.102E-17

     End of self-consistent calculation

     Convergence has been achieved 
 
     Number of q in the star =   24
     List of q in the star:
          1   0.500000000  -0.166666667   0.833333333
          2   0.500000000   0.166666667  -0.833333333
          3   0.500000000  -0.166666667  -0.833333333
          4   0.833333333  -0.166666667  -0.500000000
          5  -0.833333333  -0.166666667   0.500000000
          6  -0.500000000  -0.166666667  -0.833333333
          7   0.833333333  -0.166666667   0.500000000
          8  -0.500000000   0.166666667  -0.833333333
          9  -0.500000000   0.166666667   0.833333333
         10  -0.500000000  -0.166666667   0.833333333
         11  -0.833333333  -0.166666667  -0.500000000
         12   0.833333333   0.166666667   0.500000000
         13  -0.833333333   0.166666667   0.500000000
         14   0.833333333   0.166666667  -0.500000000
         15  -0.833333333   0.166666667  -0.500000000
         16  -0.166666667   0.500000000  -0.833333333
         17   0.833333333   0.500000000  -0.166666667
         18  -0.833333333  -0.500000000  -0.166666667
         19  -0.833333333   0.500000000   0.166666667
         20   0.166666667  -0.500000000   0.833333333
         21  -0.166666667   0.500000000   0.833333333
         22   0.166666667   0.500000000  -0.833333333
         23  -0.166666667  -0.500000000  -0.833333333
         24  -0.500000000  -0.833333333  -0.166666667

     Diagonalizing the dynamical matrix

     q = (    0.500000000  -0.166666667   0.833333333 ) 

 **************************************************************************
     freq (    1) =       5.192756 [THz] =     173.211704 [cm-1]
     freq (    2) =       6.171882 [THz] =     205.871829 [cm-1]
     freq (    3) =       9.498160 [THz] =     316.824515 [cm-1]
     freq (    4) =      10.854401 [THz] =     362.063847 [cm-1]
     freq (    5) =      13.242247 [THz] =     441.713822 [cm-1]
     freq (    6) =      13.450519 [THz] =     448.661021 [cm-1]
 **************************************************************************

     Calculation of q =   -0.3333333  -1.0000000   0.0000000
 
     Parallelization info
     --------------------
     sticks:   dense  smooth     PW     G-vecs:    dense   smooth      PW
     Min          55      27     11                 1097      381     101
     Max          56      28     12                 1100      396     103
     Sum         889     439    187                17573     6231    1639
 


     bravais-lattice index     =            2
     lattice parameter (alat)  =      10.4000  a.u.
     unit-cell volume          =     281.2160 (a.u.)^3
     number of atoms/cell      =            2
     number of atomic types    =            1
     number of electrons       =         8.00
     number of Kohn-Sham states=            4
     kinetic-energy cutoff     =      30.0000  Ry
     charge density cutoff     =     240.0000  Ry
     Exchange-correlation      = SLA  PW   PBE  PBE ( 1  4  3  4 0 0)

     celldm(1)=  10.400000  celldm(2)=   0.000000  celldm(3)=   0.000000
     celldm(4)=   0.000000  celldm(5)=   0.000000  celldm(6)=   0.000000

     crystal axes: (cart. coord. in units of alat)
               a(1) = (  -0.500000   0.000000   0.500000 )  
               a(2) = (   0.000000   0.500000   0.500000 )  
               a(3) = (  -0.500000   0.500000   0.000000 )  

     reciprocal axes: (cart. coord. in units 2 pi/alat)
               b(1) = ( -1.000000 -1.000000  1.000000 )  
               b(2) = (  1.000000  1.000000  1.000000 )  
               b(3) = ( -1.000000  1.000000 -1.000000 )  


     PseudoPot. # 1 for Si read from file:
     ./si_pbe_v1.uspp.F.UPF.txt
     MD5 check sum: a056efeee980c13900f22a371efd63c1
     Pseudo is Ultrasoft + core correction, Zval =  4.0
     Generated by new atomic code, or converted to UPF format
     Using radial grid of  899 points,  6 beta functions with: 
                l(1) =   0
                l(2) =   0
                l(3) =   1
                l(4) =   1
                l(5) =   2
                l(6) =   2
     Q(r) pseudized with  8 coefficients,  rinner =    0.900   0.900   0.900
                                                       0.900   0.900

     atomic species   valence    mass     pseudopotential
        Si             4.00    28.08600     Si( 1.00)

     48 Sym. Ops., with inversion, found



   Cartesian axes

     site n.     atom                  positions (alat units)
         1           Si  tau(   1) = (   0.0000000   0.0000000   0.0000000  )
         2           Si  tau(   2) = (   0.2500000   0.2500000   0.2500000  )

     number of k points=  3456

     Number of k-points >= 100: set verbosity='high' to print them.

     Dense  grid:    17573 G-vectors     FFT dimensions: (  40,  40,  40)

     Smooth grid:     6231 G-vectors     FFT dimensions: (  25,  25,  25)

     Largest allocated arrays     est. size (Mb)     dimensions
        Kohn-Sham Wavefunctions         0.00 Mb     (      57,    4)
        NL pseudopotentials             0.03 Mb     (      57,   36)
        Each V/rho on FFT grid          0.07 Mb     (    4800)
        Each G-vector array             0.01 Mb     (    1100)
        G-vector shells                 0.00 Mb     (     211)
     Largest temporary arrays     est. size (Mb)     dimensions
        Auxiliary wavefunctions         0.01 Mb     (      57,   16)
        Each subspace H/S matrix        0.00 Mb     (       8,    8)
        Each <psi_i|beta_j> matrix      0.00 Mb     (      36,    4)

     The potential is recalculated from file :
     ./silicon/_ph0/silicon.10.400.save/charge-density.dat

     Starting wfc are    8 atomic wfcs

     Band Structure Calculation
     Davidson diagonalization with overlap

     ethr =  1.25E-10,  avg # of iterations = 12.3

     total cpu time spent up to now is       55.1 secs

     End of band structure calculation

     Number of k-points >= 100: set verbosity='high' to print the bands.

     highest occupied level (ev):     5.7457

     Writing output data file silicon.10.400.save

                                                                                

     bravais-lattice index     =            2
     lattice parameter (alat)  =      10.4000  a.u.
     unit-cell volume          =     281.2160 (a.u.)^3
     number of atoms/cell      =            2
     number of atomic types    =            1
     kinetic-energy cut-off    =      30.0000  Ry
     charge density cut-off    =     240.0000  Ry
     convergence threshold     =      1.0E-16
     beta                      =       0.7000
     number of iterations used =            4
     Exchange-correlation      = SLA  PW   PBE  PBE ( 1  4  3  4 0 0)


     celldm(1)=   10.40000  celldm(2)=    0.00000  celldm(3)=    0.00000
     celldm(4)=    0.00000  celldm(5)=    0.00000  celldm(6)=    0.00000

     crystal axes: (cart. coord. in units of alat)
               a(1) = ( -0.5000  0.0000  0.5000 )  
               a(2) = (  0.0000  0.5000  0.5000 )  
               a(3) = ( -0.5000  0.5000  0.0000 )  

     reciprocal axes: (cart. coord. in units 2 pi/alat)
               b(1) = ( -1.0000 -1.0000  1.0000 )  
               b(2) = (  1.0000  1.0000  1.0000 )  
               b(3) = ( -1.0000  1.0000 -1.0000 )  


     Atoms inside the unit cell: 

     Cartesian axes

     site n.  atom      mass           positions (alat units)
        1     Si  28.0860   tau(    1) = (    0.00000    0.00000    0.00000  )
        2     Si  28.0860   tau(    2) = (    0.25000    0.25000    0.25000  )

     Computing dynamical matrix for 
                    q = (  -0.3333333  -1.0000000   0.0000000 )
 
      4 Sym.Ops. (no q -> -q+G )


     G cutoff =  657.5340  (   1100 G-vectors)     FFT grid: ( 40, 40, 40)
     G cutoff =  328.7670  (    385 G-vectors)  smooth grid: ( 25, 25, 25)
     number of k points=  3456

     PseudoPot. # 1 for Si read from file:
     ./si_pbe_v1.uspp.F.UPF.txt
     MD5 check sum: a056efeee980c13900f22a371efd63c1
     Pseudo is Ultrasoft + core correction, Zval =  4.0
     Generated by new atomic code, or converted to UPF format
     Using radial grid of  899 points,  6 beta functions with: 
                l(1) =   0
                l(2) =   0
                l(3) =   1
                l(4) =   1
                l(5) =   2
                l(6) =   2
     Q(r) pseudized with  8 coefficients,  rinner =    0.900   0.900   0.900
                                                       0.900   0.900


     Atomic displacements:
     There are   3 irreducible representations

     Representation     1      2 modes -  To be done

     Representation     2      2 modes -  To be done

     Representation     3      2 modes -  To be done



     Alpha used in Ewald sum =   2.5000
     PHONON       :  3m18.90s CPU     3m42.34s WALL



     Representation #  1 modes #   1  2

     Self-consistent Calculation

      iter #   1 total cpu time :   224.5 secs   av.it.:   5.6
      thresh= 1.000E-02 alpha_mix =  0.700 |ddv_scf|^2 =  3.692E-07

      iter #   2 total cpu time :   227.8 secs   av.it.:  12.0
      thresh= 6.076E-05 alpha_mix =  0.700 |ddv_scf|^2 =  1.988E-07

      iter #   3 total cpu time :   230.6 secs   av.it.:  11.7
      thresh= 4.458E-05 alpha_mix =  0.700 |ddv_scf|^2 =  3.290E-09

      iter #   4 total cpu time :   232.9 secs   av.it.:  11.6
      thresh= 5.736E-06 alpha_mix =  0.700 |ddv_scf|^2 =  3.621E-10

      iter #   5 total cpu time :   235.8 secs   av.it.:  11.5
      thresh= 1.903E-06 alpha_mix =  0.700 |ddv_scf|^2 =  1.003E-12

      iter #   6 total cpu time :   239.1 secs   av.it.:  11.9
      thresh= 1.001E-07 alpha_mix =  0.700 |ddv_scf|^2 =  3.420E-14

      iter #   7 total cpu time :   249.8 secs   av.it.:  11.5
      thresh= 1.849E-08 alpha_mix =  0.700 |ddv_scf|^2 =  2.794E-15

      iter #   8 total cpu time :   252.7 secs   av.it.:  11.5
      thresh= 5.286E-09 alpha_mix =  0.700 |ddv_scf|^2 =  2.585E-17

     End of self-consistent calculation

     Convergence has been achieved 


     Representation #  2 modes #   3  4

     Self-consistent Calculation

      iter #   1 total cpu time :   255.1 secs   av.it.:   5.8
      thresh= 1.000E-02 alpha_mix =  0.700 |ddv_scf|^2 =  9.366E-07

      iter #   2 total cpu time :   258.2 secs   av.it.:  12.0
      thresh= 9.678E-05 alpha_mix =  0.700 |ddv_scf|^2 =  1.175E-06

      iter #   3 total cpu time :   260.9 secs   av.it.:  11.2
      thresh= 1.084E-04 alpha_mix =  0.700 |ddv_scf|^2 =  4.646E-09

      iter #   4 total cpu time :   263.6 secs   av.it.:  11.7
      thresh= 6.816E-06 alpha_mix =  0.700 |ddv_scf|^2 =  1.826E-10

      iter #   5 total cpu time :   266.1 secs   av.it.:  11.6
      thresh= 1.351E-06 alpha_mix =  0.700 |ddv_scf|^2 =  3.689E-13

      iter #   6 total cpu time :   268.7 secs   av.it.:  11.4
      thresh= 6.074E-08 alpha_mix =  0.700 |ddv_scf|^2 =  2.194E-14

      iter #   7 total cpu time :   271.2 secs   av.it.:  11.4
      thresh= 1.481E-08 alpha_mix =  0.700 |ddv_scf|^2 =  4.811E-16

      iter #   8 total cpu time :   273.8 secs   av.it.:  11.9
      thresh= 2.193E-09 alpha_mix =  0.700 |ddv_scf|^2 =  1.131E-16

      iter #   9 total cpu time :   276.3 secs   av.it.:  11.6
      thresh= 1.064E-09 alpha_mix =  0.700 |ddv_scf|^2 =  7.963E-18

     End of self-consistent calculation

     Convergence has been achieved 


     Representation #  3 modes #   5  6

     Self-consistent Calculation

      iter #   1 total cpu time :   278.1 secs   av.it.:   5.3
      thresh= 1.000E-02 alpha_mix =  0.700 |ddv_scf|^2 =  3.365E-07

      iter #   2 total cpu time :   281.1 secs   av.it.:  12.0
      thresh= 5.801E-05 alpha_mix =  0.700 |ddv_scf|^2 =  4.231E-07

      iter #   3 total cpu time :   283.4 secs   av.it.:  11.3
      thresh= 6.504E-05 alpha_mix =  0.700 |ddv_scf|^2 =  2.084E-09

      iter #   4 total cpu time :   287.8 secs   av.it.:  11.7
      thresh= 4.565E-06 alpha_mix =  0.700 |ddv_scf|^2 =  2.134E-10

      iter #   5 total cpu time :   290.3 secs   av.it.:  11.6
      thresh= 1.461E-06 alpha_mix =  0.700 |ddv_scf|^2 =  1.792E-12

      iter #   6 total cpu time :   293.3 secs   av.it.:  11.9
      thresh= 1.339E-07 alpha_mix =  0.700 |ddv_scf|^2 =  4.613E-14

      iter #   7 total cpu time :   306.6 secs   av.it.:  11.6
      thresh= 2.148E-08 alpha_mix =  0.700 |ddv_scf|^2 =  2.672E-15

      iter #   8 total cpu time :   309.0 secs   av.it.:  11.6
      thresh= 5.169E-09 alpha_mix =  0.700 |ddv_scf|^2 =  2.093E-17

     End of self-consistent calculation

     Convergence has been achieved 
 
     Number of q in the star =   12
     List of q in the star:
          1  -0.333333333  -1.000000000   0.000000000
          2   0.000000000  -1.000000000   0.333333333
          3   0.000000000  -1.000000000  -0.333333333
          4   0.333333333  -1.000000000   0.000000000
          5  -1.000000000   0.000000000  -0.333333333
          6   1.000000000   0.000000000   0.333333333
          7  -1.000000000  -0.333333333   0.000000000
          8   0.000000000  -0.333333333  -1.000000000
          9   0.000000000   0.333333333   1.000000000
         10   1.000000000   0.333333333   0.000000000
         11  -0.333333333   0.000000000   1.000000000
         12   0.333333333   0.000000000   1.000000000

     Diagonalizing the dynamical matrix

     q = (   -0.333333333  -1.000000000   0.000000000 ) 

 **************************************************************************
     freq (    1) =       5.676787 [THz] =     189.357240 [cm-1]
     freq (    2) =       5.676787 [THz] =     189.357240 [cm-1]
     freq (    3) =      10.503153 [THz] =     350.347460 [cm-1]
     freq (    4) =      10.503153 [THz] =     350.347460 [cm-1]
     freq (    5) =      13.162469 [THz] =     439.052703 [cm-1]
     freq (    6) =      13.162469 [THz] =     439.052703 [cm-1]
 **************************************************************************
 
     init_run     :      0.12s CPU      0.15s WALL (       2 calls)
     electrons    :     46.18s CPU     48.36s WALL (       2 calls)

     Called by init_run:
     wfcinit      :      0.00s CPU      0.03s WALL (       2 calls)
     potinit      :      0.03s CPU      0.03s WALL (       2 calls)

     Called by electrons:
     c_bands      :     46.18s CPU     48.35s WALL (       2 calls)
     v_of_rho     :      0.00s CPU      0.01s WALL (       3 calls)
     newd         :      0.02s CPU      0.01s WALL (       3 calls)

     Called by c_bands:
     init_us_2    :      0.23s CPU      0.29s WALL (   12384 calls)
     cegterg      :      2.83s CPU      2.90s WALL (     432 calls)

     Called by sum_band:

     Called by *egterg:
     h_psi        :      2.21s CPU      2.27s WALL (    6205 calls)
     s_psi        :      3.45s CPU      3.78s WALL (  288501 calls)
     g_psi        :      0.01s CPU      0.01s WALL (    5341 calls)
     cdiaghg      :      0.47s CPU      0.47s WALL (    5773 calls)

     Called by h_psi:
     add_vuspsi   :      2.02s CPU      2.23s WALL (  141449 calls)

     General routines
     calbec       :      8.54s CPU      9.20s WALL (  309813 calls)
     fft          :      0.28s CPU      0.32s WALL (    1982 calls)
     ffts         :      0.13s CPU      0.14s WALL (    1592 calls)
     fftw         :     40.08s CPU     43.97s WALL ( 1275962 calls)
     interpolate  :      0.12s CPU      0.10s WALL (     230 calls)
     davcio       :      2.21s CPU      6.05s WALL (   58019 calls)
 
     Parallel routines
     fft_scatter  :     23.62s CPU     26.19s WALL ( 1279536 calls)
 
     PHONON       :  4m41.63s CPU     5m 9.69s WALL

     INITIALIZATION: 
     phq_setup    :      0.03s CPU      0.05s WALL (       2 calls)
     phq_init     :      2.36s CPU      2.51s WALL (       2 calls)
 
     phq_init     :      2.36s CPU      2.51s WALL (       2 calls)
     set_drhoc    :      0.07s CPU      0.08s WALL (       6 calls)
     init_vloc    :      0.00s CPU      0.00s WALL (       3 calls)
     init_us_1    :      0.08s CPU      0.09s WALL (       3 calls)
     newd         :      0.02s CPU      0.01s WALL (       3 calls)
     dvanqq       :      0.07s CPU      0.07s WALL (       2 calls)
     drho         :      1.23s CPU      1.31s WALL (       2 calls)
 
     DYNAMICAL MATRIX:
     dynmat0      :      0.81s CPU      0.86s WALL (       2 calls)
     phqscf       :    225.28s CPU    240.18s WALL (       2 calls)
     dynmatrix    :      0.55s CPU      0.59s WALL (       2 calls)
 
     phqscf       :    225.28s CPU    240.18s WALL (       2 calls)
     solve_linter :    224.85s CPU    239.19s WALL (       9 calls)
     drhodv       :      0.42s CPU      0.49s WALL (       9 calls)
 
     dynmat0      :      0.81s CPU      0.86s WALL (       2 calls)
     dynmat_us    :      0.75s CPU      0.76s WALL (       2 calls)
     d2ionq       :      0.00s CPU      0.00s WALL (       2 calls)
     dynmatcc     :      0.06s CPU      0.06s WALL (       2 calls)
 
     dynmat_us    :      0.75s CPU      0.76s WALL (       2 calls)
     addusdynmat  :      0.00s CPU      0.00s WALL (       2 calls)
 
     phqscf       :    225.28s CPU    240.18s WALL (       2 calls)
     solve_linter :    224.85s CPU    239.19s WALL (       9 calls)
 
     solve_linter :    224.85s CPU    239.19s WALL (       9 calls)
     dvqpsi_us    :      0.95s CPU      0.98s WALL (    1296 calls)
     ortho        :      2.49s CPU      2.64s WALL (   11808 calls)
     cgsolve      :     57.48s CPU     63.06s WALL (   11808 calls)
     incdrhoscf   :      5.54s CPU      5.85s WALL (   11808 calls)
     addusddens   :      0.44s CPU      0.46s WALL (      91 calls)
     vpsifft      :      2.91s CPU      3.00s WALL (   10512 calls)
     dv_of_drho   :      0.12s CPU      0.16s WALL (     107 calls)
     mix_pot      :      0.42s CPU      1.93s WALL (      82 calls)
     psymdvscf    :      1.01s CPU      1.01s WALL (      82 calls)
     newdq        :      0.47s CPU      0.47s WALL (      82 calls)
     adddvscf     :      0.27s CPU      0.23s WALL (   10512 calls)
     drhodvus     :      0.00s CPU      0.01s WALL (       9 calls)
 
     dvqpsi_us    :      0.95s CPU      0.98s WALL (    1296 calls)
     dvqpsi_us_on :      0.58s CPU      0.54s WALL (    1296 calls)
 
     cgsolve      :     57.48s CPU     63.06s WALL (   11808 calls)
     ch_psi       :     52.81s CPU     58.13s WALL (  135244 calls)
 
     ch_psi       :     52.81s CPU     58.13s WALL (  135244 calls)
     h_psiq       :     43.59s CPU     48.11s WALL (  135244 calls)
     last         :      8.73s CPU      9.47s WALL (  135244 calls)
 
     h_psiq       :     43.59s CPU     48.11s WALL (  135244 calls)
     firstfft     :     18.43s CPU     20.39s WALL (  515615 calls)
     secondfft    :     15.62s CPU     17.27s WALL (  515615 calls)
     add_vuspsi   :      2.02s CPU      2.23s WALL (  141449 calls)
 
     incdrhoscf   :      5.54s CPU      5.85s WALL (   11808 calls)
     addusdbec    :      0.56s CPU      0.56s WALL (   13104 calls)
 
     drhodvus     :      0.00s CPU      0.01s WALL (       9 calls)
 
      General routines
     calbec       :      8.54s CPU      9.20s WALL (  309813 calls)
     fft          :      0.28s CPU      0.32s WALL (    1982 calls)
     ffts         :      0.13s CPU      0.14s WALL (    1592 calls)
     fftw         :     40.08s CPU     43.97s WALL ( 1275962 calls)
     davcio       :      2.21s CPU      6.05s WALL (   58019 calls)
     write_rec    :      0.14s CPU      4.56s WALL (      91 calls)
 
 
     PHONON       :  4m41.63s CPU     5m 9.69s WALL

 
   This run was terminated on:  16:57:51   7Apr2018            

=------------------------------------------------------------------------------=
   JOB DONE.
=------------------------------------------------------------------------------=
Application 30446931 resources: utime ~112755s, stime ~2488s, Rss ~31912, inblocks ~166761983, outblocks ~76970389
