
     Program PHONON v.5.4.0 starts on  7Apr2018 at 14:21:21 

     This program is part of the open-source Quantum ESPRESSO suite
     for quantum simulation of materials; please cite
         "P. Giannozzi et al., J. Phys.:Condens. Matter 21 395502 (2009);
          URL http://www.quantum-espresso.org", 
     in publications or presentations arising from this work. More details at
     http://www.quantum-espresso.org/quote

     Parallel version (MPI & OpenMP), running on     384 processor cores
     Number of MPI processes:               384
     Threads/MPI process:                     1
     K-points division:     npool     =      24
     R & G space division:  proc/nbgrp/npool/nimage =      16

     Reading data from directory:
     ./silicon/silicon.10.340.save

   Info: using nr1, nr2, nr3 values from input

   Info: using nr1, nr2, nr3 values from input

     IMPORTANT: XC functional enforced from input :
     Exchange-correlation      = SLA  PW   PBE  PBE ( 1  4  3  4 0 0)
     Any further DFT definition will be discarded
     Please, verify this is what you really want

 
     Parallelization info
     --------------------
     sticks:   dense  smooth     PW     G-vecs:    dense   smooth      PW
     Min          54      27      9                 1078      381      76
     Max          55      28     10                 1080      392      79
     Sum         877     439    151                17261     6183    1243
 


     Dynamical matrices for ( 6, 6, 6)  uniform grid of q-points
     (  16q-points):
       N         xq(1)         xq(2)         xq(3) 
       1   0.000000000   0.000000000   0.000000000
       2  -0.166666667   0.166666667  -0.166666667
       3  -0.333333333   0.333333333  -0.333333333
       4   0.500000000  -0.500000000   0.500000000
       5   0.000000000   0.333333333   0.000000000
       6  -0.166666667   0.500000000  -0.166666667
       7   0.666666667  -0.333333333   0.666666667
       8   0.500000000  -0.166666667   0.500000000
       9   0.333333333   0.000000000   0.333333333
      10   0.000000000   0.666666667   0.000000000
      11   0.833333333  -0.166666667   0.833333333
      12   0.666666667  -0.000000000   0.666666667
      13   0.000000000  -1.000000000   0.000000000
      14   0.666666667  -0.333333333   1.000000000
      15   0.500000000  -0.166666667   0.833333333
      16  -0.333333333  -1.000000000   0.000000000

     Calculation of q =    0.0000000   0.0000000   0.0000000

                                                                                

     bravais-lattice index     =            2
     lattice parameter (alat)  =      10.3400  a.u.
     unit-cell volume          =     276.3768 (a.u.)^3
     number of atoms/cell      =            2
     number of atomic types    =            1
     kinetic-energy cut-off    =      30.0000  Ry
     charge density cut-off    =     240.0000  Ry
     convergence threshold     =      1.0E-16
     beta                      =       0.7000
     number of iterations used =            4
     Exchange-correlation      = SLA  PW   PBE  PBE ( 1  4  3  4 0 0)


     celldm(1)=   10.34000  celldm(2)=    0.00000  celldm(3)=    0.00000
     celldm(4)=    0.00000  celldm(5)=    0.00000  celldm(6)=    0.00000

     crystal axes: (cart. coord. in units of alat)
               a(1) = ( -0.5000  0.0000  0.5000 )  
               a(2) = (  0.0000  0.5000  0.5000 )  
               a(3) = ( -0.5000  0.5000  0.0000 )  

     reciprocal axes: (cart. coord. in units 2 pi/alat)
               b(1) = ( -1.0000 -1.0000  1.0000 )  
               b(2) = (  1.0000  1.0000  1.0000 )  
               b(3) = ( -1.0000  1.0000 -1.0000 )  


     Atoms inside the unit cell: 

     Cartesian axes

     site n.  atom      mass           positions (alat units)
        1     Si  28.0860   tau(    1) = (    0.00000    0.00000    0.00000  )
        2     Si  28.0860   tau(    2) = (    0.25000    0.25000    0.25000  )

     Computing dynamical matrix for 
                    q = (   0.0000000   0.0000000   0.0000000 )
 
     49 Sym.Ops. (with q -> -q+G )


     G cutoff =  649.9689  (   1079 G-vectors)     FFT grid: ( 40, 40, 40)
     G cutoff =  324.9845  (    388 G-vectors)  smooth grid: ( 25, 25, 25)
     number of k points=   182

     PseudoPot. # 1 for Si read from file:
     ./si_pbe_v1.uspp.F.UPF.txt
     MD5 check sum: a056efeee980c13900f22a371efd63c1
     Pseudo is Ultrasoft + core correction, Zval =  4.0
     Generated by new atomic code, or converted to UPF format
     Using radial grid of  899 points,  6 beta functions with: 
                l(1) =   0
                l(2) =   0
                l(3) =   1
                l(4) =   1
                l(5) =   2
                l(6) =   2
     Q(r) pseudized with  8 coefficients,  rinner =    0.900   0.900   0.900
                                                       0.900   0.900

     Mode symmetry, O_h (m-3m)  point group:


     Electric field:
     Dielectric constant
     Born effective charges in two ways 


     Atomic displacements:
     There are   2 irreducible representations

     Representation     1      3 modes -T_2g G_25' G_5+  To be done

     Representation     2      3 modes -T_1u G_15  G_4-  To be done



     Alpha used in Ewald sum =   2.5000
     PHONON       :     3.04s CPU         4.99s WALL


     Electric Fields Calculation

      iter #   1 total cpu time :     5.9 secs   av.it.:   6.5
      thresh= 1.000E-02 alpha_mix =  0.700 |ddv_scf|^2 =  6.804E-08

      iter #   2 total cpu time :     6.7 secs   av.it.:  12.2
      thresh= 2.608E-05 alpha_mix =  0.700 |ddv_scf|^2 =  3.915E-09

      iter #   3 total cpu time :     8.0 secs   av.it.:  12.1
      thresh= 6.257E-06 alpha_mix =  0.700 |ddv_scf|^2 =  2.523E-10

      iter #   4 total cpu time :     8.8 secs   av.it.:  11.3
      thresh= 1.588E-06 alpha_mix =  0.700 |ddv_scf|^2 =  1.647E-12

      iter #   5 total cpu time :     9.5 secs   av.it.:  11.4
      thresh= 1.283E-07 alpha_mix =  0.700 |ddv_scf|^2 =  1.576E-15

      iter #   6 total cpu time :    10.8 secs   av.it.:  11.4
      thresh= 3.970E-09 alpha_mix =  0.700 |ddv_scf|^2 =  1.042E-16

      iter #   7 total cpu time :    11.8 secs   av.it.:  11.8
      thresh= 1.021E-09 alpha_mix =  0.700 |ddv_scf|^2 =  1.642E-19

     End of electric fields calculation

          Dielectric constant in cartesian axis 

          (      12.985825133       0.000000000       0.000000000 )
          (       0.000000000      12.985825133      -0.000000000 )
          (       0.000000000      -0.000000000      12.985825133 )

          Effective charges (d Force / dE) in cartesian axis

           atom      1   Si 
      Ex  (        0.01963        0.00000       -0.00000 )
      Ey  (        0.00000        0.01963       -0.00000 )
      Ez  (       -0.00000       -0.00000        0.01963 )
           atom      2   Si 
      Ex  (        0.01963        0.00000       -0.00000 )
      Ey  (        0.00000        0.01963        0.00000 )
      Ez  (       -0.00000        0.00000        0.01963 )


     Representation #  1 modes #   1  2  3

     Self-consistent Calculation

      iter #   1 total cpu time :    14.3 secs   av.it.:   5.1
      thresh= 1.000E-02 alpha_mix =  0.700 |ddv_scf|^2 =  1.189E-08

      iter #   2 total cpu time :    14.9 secs   av.it.:  12.0
      thresh= 1.090E-05 alpha_mix =  0.700 |ddv_scf|^2 =  4.868E-10

      iter #   3 total cpu time :    15.5 secs   av.it.:  11.8
      thresh= 2.206E-06 alpha_mix =  0.700 |ddv_scf|^2 =  3.309E-11

      iter #   4 total cpu time :    16.2 secs   av.it.:  11.0
      thresh= 5.752E-07 alpha_mix =  0.700 |ddv_scf|^2 =  8.253E-14

      iter #   5 total cpu time :    16.8 secs   av.it.:  11.9
      thresh= 2.873E-08 alpha_mix =  0.700 |ddv_scf|^2 =  7.034E-16

      iter #   6 total cpu time :    17.5 secs   av.it.:  11.8
      thresh= 2.652E-09 alpha_mix =  0.700 |ddv_scf|^2 =  1.181E-17

     End of self-consistent calculation

     Convergence has been achieved 


     Representation #  2 modes #   4  5  6

     Self-consistent Calculation

      iter #   1 total cpu time :    19.4 secs   av.it.:   5.2
      thresh= 1.000E-02 alpha_mix =  0.700 |ddv_scf|^2 =  9.384E-09

      iter #   2 total cpu time :    20.1 secs   av.it.:  12.0
      thresh= 9.687E-06 alpha_mix =  0.700 |ddv_scf|^2 =  5.525E-10

      iter #   3 total cpu time :    20.7 secs   av.it.:  11.7
      thresh= 2.351E-06 alpha_mix =  0.700 |ddv_scf|^2 =  3.426E-11

      iter #   4 total cpu time :    21.4 secs   av.it.:  11.8
      thresh= 5.853E-07 alpha_mix =  0.700 |ddv_scf|^2 =  1.328E-13

      iter #   5 total cpu time :    22.3 secs   av.it.:  11.7
      thresh= 3.645E-08 alpha_mix =  0.700 |ddv_scf|^2 =  3.460E-16

      iter #   6 total cpu time :    23.5 secs   av.it.:  12.0
      thresh= 1.860E-09 alpha_mix =  0.700 |ddv_scf|^2 =  2.871E-17

     End of self-consistent calculation

     Convergence has been achieved 
 
     Number of q in the star =    1
     List of q in the star:
          1   0.000000000   0.000000000   0.000000000

          Dielectric constant in cartesian axis 

          (      12.985825133       0.000000000       0.000000000 )
          (       0.000000000      12.985825133      -0.000000000 )
          (       0.000000000      -0.000000000      12.985825133 )

          Effective charges (d Force / dE) in cartesian axis

           atom      1   Si 
      Ex  (        0.01963        0.00000       -0.00000 )
      Ey  (        0.00000        0.01963       -0.00000 )
      Ez  (       -0.00000       -0.00000        0.01963 )
           atom      2   Si 
      Ex  (        0.01963        0.00000       -0.00000 )
      Ey  (        0.00000        0.01963        0.00000 )
      Ez  (       -0.00000        0.00000        0.01963 )

          Effective charges (d P / du) in cartesian axis 

           atom      1   Si 
      Px  (       -0.00051       -0.00000       -0.00000 )
      Py  (       -0.00000       -0.00051        0.00000 )
      Pz  (        0.00000        0.00000       -0.00051 )
           atom      2   Si 
      Px  (       -0.00051       -0.00000        0.00000 )
      Py  (       -0.00000       -0.00051        0.00000 )
      Pz  (       -0.00000        0.00000       -0.00051 )

     Diagonalizing the dynamical matrix

     q = (    0.000000000   0.000000000   0.000000000 ) 

 **************************************************************************
     freq (    1) =      -0.122928 [THz] =      -4.100448 [cm-1]
     freq (    2) =      -0.122928 [THz] =      -4.100448 [cm-1]
     freq (    3) =      -0.122928 [THz] =      -4.100448 [cm-1]
     freq (    4) =      15.052146 [THz] =     502.085562 [cm-1]
     freq (    5) =      15.052146 [THz] =     502.085562 [cm-1]
     freq (    6) =      15.052146 [THz] =     502.085562 [cm-1]
 **************************************************************************

     Mode symmetry, O_h (m-3m)  point group:

     freq (  1 -  3) =         -4.1  [cm-1]   --> T_1u G_15  G_4- I  
     freq (  4 -  6) =        502.1  [cm-1]   --> T_2g G_25' G_5+ R  

     Calculation of q =   -0.1666667   0.1666667  -0.1666667
 
     Parallelization info
     --------------------
     sticks:   dense  smooth     PW     G-vecs:    dense   smooth      PW
     Min          54      27     10                 1078      378      84
     Max          55      28     11                 1080      393      86
     Sum         877     439    163                17261     6183    1363
 


     bravais-lattice index     =            2
     lattice parameter (alat)  =      10.3400  a.u.
     unit-cell volume          =     276.3768 (a.u.)^3
     number of atoms/cell      =            2
     number of atomic types    =            1
     number of electrons       =         8.00
     number of Kohn-Sham states=            4
     kinetic-energy cutoff     =      30.0000  Ry
     charge density cutoff     =     240.0000  Ry
     Exchange-correlation      = SLA  PW   PBE  PBE ( 1  4  3  4 0 0)

     celldm(1)=  10.340000  celldm(2)=   0.000000  celldm(3)=   0.000000
     celldm(4)=   0.000000  celldm(5)=   0.000000  celldm(6)=   0.000000

     crystal axes: (cart. coord. in units of alat)
               a(1) = (  -0.500000   0.000000   0.500000 )  
               a(2) = (   0.000000   0.500000   0.500000 )  
               a(3) = (  -0.500000   0.500000   0.000000 )  

     reciprocal axes: (cart. coord. in units 2 pi/alat)
               b(1) = ( -1.000000 -1.000000  1.000000 )  
               b(2) = (  1.000000  1.000000  1.000000 )  
               b(3) = ( -1.000000  1.000000 -1.000000 )  


     PseudoPot. # 1 for Si read from file:
     ./si_pbe_v1.uspp.F.UPF.txt
     MD5 check sum: a056efeee980c13900f22a371efd63c1
     Pseudo is Ultrasoft + core correction, Zval =  4.0
     Generated by new atomic code, or converted to UPF format
     Using radial grid of  899 points,  6 beta functions with: 
                l(1) =   0
                l(2) =   0
                l(3) =   1
                l(4) =   1
                l(5) =   2
                l(6) =   2
     Q(r) pseudized with  8 coefficients,  rinner =    0.900   0.900   0.900
                                                       0.900   0.900

     atomic species   valence    mass     pseudopotential
        Si             4.00    28.08600     Si( 1.00)

     48 Sym. Ops., with inversion, found



   Cartesian axes

     site n.     atom                  positions (alat units)
         1           Si  tau(   1) = (   0.0000000   0.0000000   0.0000000  )
         2           Si  tau(   2) = (   0.2500000   0.2500000   0.2500000  )

     number of k points=  2600

     Number of k-points >= 100: set verbosity='high' to print them.

     Dense  grid:    17261 G-vectors     FFT dimensions: (  40,  40,  40)

     Smooth grid:     6183 G-vectors     FFT dimensions: (  25,  25,  25)

     Largest allocated arrays     est. size (Mb)     dimensions
        Kohn-Sham Wavefunctions         0.00 Mb     (      57,    4)
        NL pseudopotentials             0.03 Mb     (      57,   36)
        Each V/rho on FFT grid          0.07 Mb     (    4800)
        Each G-vector array             0.01 Mb     (    1079)
        G-vector shells                 0.00 Mb     (     206)
     Largest temporary arrays     est. size (Mb)     dimensions
        Auxiliary wavefunctions         0.01 Mb     (      57,   16)
        Each subspace H/S matrix        0.00 Mb     (       8,    8)
        Each <psi_i|beta_j> matrix      0.00 Mb     (      36,    4)

     The potential is recalculated from file :
     ./silicon/_ph0/silicon.10.340.save/charge-density.dat

     Starting wfc are    8 atomic wfcs

     Band Structure Calculation
     Davidson diagonalization with overlap

     ethr =  1.25E-10,  avg # of iterations = 12.4

     total cpu time spent up to now is        1.7 secs

     End of band structure calculation

     Number of k-points >= 100: set verbosity='high' to print the bands.

     highest occupied level (ev):     5.9211

     Writing output data file silicon.10.340.save

                                                                                

     bravais-lattice index     =            2
     lattice parameter (alat)  =      10.3400  a.u.
     unit-cell volume          =     276.3768 (a.u.)^3
     number of atoms/cell      =            2
     number of atomic types    =            1
     kinetic-energy cut-off    =      30.0000  Ry
     charge density cut-off    =     240.0000  Ry
     convergence threshold     =      1.0E-16
     beta                      =       0.7000
     number of iterations used =            4
     Exchange-correlation      = SLA  PW   PBE  PBE ( 1  4  3  4 0 0)


     celldm(1)=   10.34000  celldm(2)=    0.00000  celldm(3)=    0.00000
     celldm(4)=    0.00000  celldm(5)=    0.00000  celldm(6)=    0.00000

     crystal axes: (cart. coord. in units of alat)
               a(1) = ( -0.5000  0.0000  0.5000 )  
               a(2) = (  0.0000  0.5000  0.5000 )  
               a(3) = ( -0.5000  0.5000  0.0000 )  

     reciprocal axes: (cart. coord. in units 2 pi/alat)
               b(1) = ( -1.0000 -1.0000  1.0000 )  
               b(2) = (  1.0000  1.0000  1.0000 )  
               b(3) = ( -1.0000  1.0000 -1.0000 )  


     Atoms inside the unit cell: 

     Cartesian axes

     site n.  atom      mass           positions (alat units)
        1     Si  28.0860   tau(    1) = (    0.00000    0.00000    0.00000  )
        2     Si  28.0860   tau(    2) = (    0.25000    0.25000    0.25000  )

     Computing dynamical matrix for 
                    q = (  -0.1666667   0.1666667  -0.1666667 )
 
      6 Sym.Ops. (no q -> -q+G )


     G cutoff =  649.9689  (   1079 G-vectors)     FFT grid: ( 40, 40, 40)
     G cutoff =  324.9845  (    383 G-vectors)  smooth grid: ( 25, 25, 25)
     number of k points=  2600

     PseudoPot. # 1 for Si read from file:
     ./si_pbe_v1.uspp.F.UPF.txt
     MD5 check sum: a056efeee980c13900f22a371efd63c1
     Pseudo is Ultrasoft + core correction, Zval =  4.0
     Generated by new atomic code, or converted to UPF format
     Using radial grid of  899 points,  6 beta functions with: 
                l(1) =   0
                l(2) =   0
                l(3) =   1
                l(4) =   1
                l(5) =   2
                l(6) =   2
     Q(r) pseudized with  8 coefficients,  rinner =    0.900   0.900   0.900
                                                       0.900   0.900

     Mode symmetry, C_3v (3m)   point group:


     Atomic displacements:
     There are   4 irreducible representations

     Representation     1      1 modes -A_1  L_1  To be done

     Representation     2      1 modes -A_1  L_1  To be done

     Representation     3      2 modes -E    L_3  To be done

     Representation     4      2 modes -E    L_3  To be done



     Alpha used in Ewald sum =   2.5000
     PHONON       :    23.75s CPU        29.80s WALL



     Representation #  1 mode #   1

     Self-consistent Calculation

      iter #   1 total cpu time :    30.5 secs   av.it.:   6.1
      thresh= 1.000E-02 alpha_mix =  0.700 |ddv_scf|^2 =  9.758E-04

      iter #   2 total cpu time :    32.0 secs   av.it.:   9.2
      thresh= 3.124E-03 alpha_mix =  0.700 |ddv_scf|^2 =  3.035E-02

      iter #   3 total cpu time :    33.1 secs   av.it.:   7.2
      thresh= 1.000E-02 alpha_mix =  0.700 |ddv_scf|^2 =  3.072E-07

      iter #   4 total cpu time :    34.2 secs   av.it.:   9.8
      thresh= 5.543E-05 alpha_mix =  0.700 |ddv_scf|^2 =  5.679E-09

      iter #   5 total cpu time :    34.8 secs   av.it.:  10.5
      thresh= 7.536E-06 alpha_mix =  0.700 |ddv_scf|^2 =  8.347E-10

      iter #   6 total cpu time :    35.4 secs   av.it.:   9.6
      thresh= 2.889E-06 alpha_mix =  0.700 |ddv_scf|^2 =  3.018E-10

      iter #   7 total cpu time :    36.0 secs   av.it.:   7.2
      thresh= 1.737E-06 alpha_mix =  0.700 |ddv_scf|^2 =  6.144E-11

      iter #   8 total cpu time :    36.6 secs   av.it.:   9.1
      thresh= 7.838E-07 alpha_mix =  0.700 |ddv_scf|^2 =  1.073E-12

      iter #   9 total cpu time :    37.1 secs   av.it.:   8.3
      thresh= 1.036E-07 alpha_mix =  0.700 |ddv_scf|^2 =  3.908E-14

      iter #  10 total cpu time :    37.7 secs   av.it.:   9.0
      thresh= 1.977E-08 alpha_mix =  0.700 |ddv_scf|^2 =  9.114E-15

      iter #  11 total cpu time :    40.1 secs   av.it.:   9.3
      thresh= 9.547E-09 alpha_mix =  0.700 |ddv_scf|^2 =  3.669E-16

      iter #  12 total cpu time :    41.4 secs   av.it.:   9.9
      thresh= 1.915E-09 alpha_mix =  0.700 |ddv_scf|^2 =  3.143E-17

     End of self-consistent calculation

     Convergence has been achieved 


     Representation #  2 mode #   2

     Self-consistent Calculation

      iter #   1 total cpu time :    42.6 secs   av.it.:   6.1
      thresh= 1.000E-02 alpha_mix =  0.700 |ddv_scf|^2 =  9.758E-04

      iter #   2 total cpu time :    43.3 secs   av.it.:   9.2
      thresh= 3.124E-03 alpha_mix =  0.700 |ddv_scf|^2 =  3.035E-02

      iter #   3 total cpu time :    57.4 secs   av.it.:   7.2
      thresh= 1.000E-02 alpha_mix =  0.700 |ddv_scf|^2 =  3.072E-07

      iter #   4 total cpu time :    58.8 secs   av.it.:   9.8
      thresh= 5.543E-05 alpha_mix =  0.700 |ddv_scf|^2 =  5.679E-09

      iter #   5 total cpu time :    63.5 secs   av.it.:  10.5
      thresh= 7.536E-06 alpha_mix =  0.700 |ddv_scf|^2 =  8.347E-10

      iter #   6 total cpu time :    64.2 secs   av.it.:   9.6
      thresh= 2.889E-06 alpha_mix =  0.700 |ddv_scf|^2 =  3.018E-10

      iter #   7 total cpu time :    65.2 secs   av.it.:   7.2
      thresh= 1.737E-06 alpha_mix =  0.700 |ddv_scf|^2 =  6.144E-11

      iter #   8 total cpu time :    66.7 secs   av.it.:   9.1
      thresh= 7.838E-07 alpha_mix =  0.700 |ddv_scf|^2 =  1.073E-12

      iter #   9 total cpu time :    67.3 secs   av.it.:   8.3
      thresh= 1.036E-07 alpha_mix =  0.700 |ddv_scf|^2 =  3.908E-14

      iter #  10 total cpu time :    68.2 secs   av.it.:   9.0
      thresh= 1.977E-08 alpha_mix =  0.700 |ddv_scf|^2 =  9.114E-15

      iter #  11 total cpu time :    69.1 secs   av.it.:   9.3
      thresh= 9.547E-09 alpha_mix =  0.700 |ddv_scf|^2 =  3.669E-16

      iter #  12 total cpu time :    69.7 secs   av.it.:   9.9
      thresh= 1.915E-09 alpha_mix =  0.700 |ddv_scf|^2 =  3.143E-17

     End of self-consistent calculation

     Convergence has been achieved 


     Representation #  3 modes #   3  4

     Self-consistent Calculation

      iter #   1 total cpu time :    70.7 secs   av.it.:   5.3
      thresh= 1.000E-02 alpha_mix =  0.700 |ddv_scf|^2 =  2.889E-08

      iter #   2 total cpu time :    71.9 secs   av.it.:  11.8
      thresh= 1.700E-05 alpha_mix =  0.700 |ddv_scf|^2 =  1.632E-09

      iter #   3 total cpu time :    73.2 secs   av.it.:  11.6
      thresh= 4.040E-06 alpha_mix =  0.700 |ddv_scf|^2 =  9.905E-11

      iter #   4 total cpu time :    74.4 secs   av.it.:  11.3
      thresh= 9.952E-07 alpha_mix =  0.700 |ddv_scf|^2 =  4.272E-13

      iter #   5 total cpu time :    76.2 secs   av.it.:  11.7
      thresh= 6.536E-08 alpha_mix =  0.700 |ddv_scf|^2 =  2.802E-14

      iter #   6 total cpu time :    77.4 secs   av.it.:  11.6
      thresh= 1.674E-08 alpha_mix =  0.700 |ddv_scf|^2 =  1.638E-16

      iter #   7 total cpu time :    82.4 secs   av.it.:  11.0
      thresh= 1.280E-09 alpha_mix =  0.700 |ddv_scf|^2 =  1.385E-17

     End of self-consistent calculation

     Convergence has been achieved 


     Representation #  4 modes #   5  6

     Self-consistent Calculation

      iter #   1 total cpu time :    84.2 secs   av.it.:   5.3
      thresh= 1.000E-02 alpha_mix =  0.700 |ddv_scf|^2 =  2.890E-08

      iter #   2 total cpu time :    85.4 secs   av.it.:  12.0
      thresh= 1.700E-05 alpha_mix =  0.700 |ddv_scf|^2 =  1.633E-09

      iter #   3 total cpu time :    86.8 secs   av.it.:  11.9
      thresh= 4.041E-06 alpha_mix =  0.700 |ddv_scf|^2 =  9.905E-11

      iter #   4 total cpu time :    88.6 secs   av.it.:  11.6
      thresh= 9.952E-07 alpha_mix =  0.700 |ddv_scf|^2 =  4.270E-13

      iter #   5 total cpu time :    90.0 secs   av.it.:  11.9
      thresh= 6.535E-08 alpha_mix =  0.700 |ddv_scf|^2 =  2.800E-14

      iter #   6 total cpu time :    91.2 secs   av.it.:  11.8
      thresh= 1.673E-08 alpha_mix =  0.700 |ddv_scf|^2 =  1.634E-16

      iter #   7 total cpu time :    93.0 secs   av.it.:  11.1
      thresh= 1.278E-09 alpha_mix =  0.700 |ddv_scf|^2 =  1.381E-17

     End of self-consistent calculation

     Convergence has been achieved 
 
     Number of q in the star =    8
     List of q in the star:
          1  -0.166666667   0.166666667  -0.166666667
          2   0.166666667   0.166666667   0.166666667
          3  -0.166666667  -0.166666667  -0.166666667
          4   0.166666667  -0.166666667   0.166666667
          5   0.166666667  -0.166666667  -0.166666667
          6   0.166666667   0.166666667  -0.166666667
          7  -0.166666667  -0.166666667   0.166666667
          8  -0.166666667   0.166666667   0.166666667

     Diagonalizing the dynamical matrix

     q = (   -0.166666667   0.166666667  -0.166666667 ) 

 **************************************************************************
     freq (    1) =       2.227900 [THz] =      74.314750 [cm-1]
     freq (    2) =       2.227900 [THz] =      74.314750 [cm-1]
     freq (    3) =       4.641943 [THz] =     154.838544 [cm-1]
     freq (    4) =      14.669077 [THz] =     489.307740 [cm-1]
     freq (    5) =      14.685815 [THz] =     489.866048 [cm-1]
     freq (    6) =      14.685815 [THz] =     489.866048 [cm-1]
 **************************************************************************

     Mode symmetry, C_3v (3m)   point group:

     freq (  1 -  2) =         74.3  [cm-1]   --> E    L_3           
     freq (  3 -  3) =        154.8  [cm-1]   --> A_1  L_1           
     freq (  4 -  4) =        489.3  [cm-1]   --> A_1  L_1           
     freq (  5 -  6) =        489.9  [cm-1]   --> E    L_3           

     Calculation of q =   -0.3333333   0.3333333  -0.3333333
 
     Parallelization info
     --------------------
     sticks:   dense  smooth     PW     G-vecs:    dense   smooth      PW
     Min          54      27     10                 1078      382      87
     Max          55      28     11                 1080      390      90
     Sum         877     439    163                17261     6183    1411
 


     bravais-lattice index     =            2
     lattice parameter (alat)  =      10.3400  a.u.
     unit-cell volume          =     276.3768 (a.u.)^3
     number of atoms/cell      =            2
     number of atomic types    =            1
     number of electrons       =         8.00
     number of Kohn-Sham states=            4
     kinetic-energy cutoff     =      30.0000  Ry
     charge density cutoff     =     240.0000  Ry
     Exchange-correlation      = SLA  PW   PBE  PBE ( 1  4  3  4 0 0)

     celldm(1)=  10.340000  celldm(2)=   0.000000  celldm(3)=   0.000000
     celldm(4)=   0.000000  celldm(5)=   0.000000  celldm(6)=   0.000000

     crystal axes: (cart. coord. in units of alat)
               a(1) = (  -0.500000   0.000000   0.500000 )  
               a(2) = (   0.000000   0.500000   0.500000 )  
               a(3) = (  -0.500000   0.500000   0.000000 )  

     reciprocal axes: (cart. coord. in units 2 pi/alat)
               b(1) = ( -1.000000 -1.000000  1.000000 )  
               b(2) = (  1.000000  1.000000  1.000000 )  
               b(3) = ( -1.000000  1.000000 -1.000000 )  


     PseudoPot. # 1 for Si read from file:
     ./si_pbe_v1.uspp.F.UPF.txt
     MD5 check sum: a056efeee980c13900f22a371efd63c1
     Pseudo is Ultrasoft + core correction, Zval =  4.0
     Generated by new atomic code, or converted to UPF format
     Using radial grid of  899 points,  6 beta functions with: 
                l(1) =   0
                l(2) =   0
                l(3) =   1
                l(4) =   1
                l(5) =   2
                l(6) =   2
     Q(r) pseudized with  8 coefficients,  rinner =    0.900   0.900   0.900
                                                       0.900   0.900

     atomic species   valence    mass     pseudopotential
        Si             4.00    28.08600     Si( 1.00)

     48 Sym. Ops., with inversion, found



   Cartesian axes

     site n.     atom                  positions (alat units)
         1           Si  tau(   1) = (   0.0000000   0.0000000   0.0000000  )
         2           Si  tau(   2) = (   0.2500000   0.2500000   0.2500000  )

     number of k points=  2600

     Number of k-points >= 100: set verbosity='high' to print them.

     Dense  grid:    17261 G-vectors     FFT dimensions: (  40,  40,  40)

     Smooth grid:     6183 G-vectors     FFT dimensions: (  25,  25,  25)

     Largest allocated arrays     est. size (Mb)     dimensions
        Kohn-Sham Wavefunctions         0.00 Mb     (      56,    4)
        NL pseudopotentials             0.03 Mb     (      56,   36)
        Each V/rho on FFT grid          0.07 Mb     (    4800)
        Each G-vector array             0.01 Mb     (    1079)
        G-vector shells                 0.00 Mb     (     211)
     Largest temporary arrays     est. size (Mb)     dimensions
        Auxiliary wavefunctions         0.01 Mb     (      56,   16)
        Each subspace H/S matrix        0.00 Mb     (       8,    8)
        Each <psi_i|beta_j> matrix      0.00 Mb     (      36,    4)

     The potential is recalculated from file :
     ./silicon/_ph0/silicon.10.340.save/charge-density.dat

     Starting wfc are    8 atomic wfcs

     Band Structure Calculation
     Davidson diagonalization with overlap

     ethr =  1.25E-10,  avg # of iterations = 12.4

     total cpu time spent up to now is        5.9 secs

     End of band structure calculation

     Number of k-points >= 100: set verbosity='high' to print the bands.

     highest occupied level (ev):     5.9211

     Writing output data file silicon.10.340.save

                                                                                

     bravais-lattice index     =            2
     lattice parameter (alat)  =      10.3400  a.u.
     unit-cell volume          =     276.3768 (a.u.)^3
     number of atoms/cell      =            2
     number of atomic types    =            1
     kinetic-energy cut-off    =      30.0000  Ry
     charge density cut-off    =     240.0000  Ry
     convergence threshold     =      1.0E-16
     beta                      =       0.7000
     number of iterations used =            4
     Exchange-correlation      = SLA  PW   PBE  PBE ( 1  4  3  4 0 0)


     celldm(1)=   10.34000  celldm(2)=    0.00000  celldm(3)=    0.00000
     celldm(4)=    0.00000  celldm(5)=    0.00000  celldm(6)=    0.00000

     crystal axes: (cart. coord. in units of alat)
               a(1) = ( -0.5000  0.0000  0.5000 )  
               a(2) = (  0.0000  0.5000  0.5000 )  
               a(3) = ( -0.5000  0.5000  0.0000 )  

     reciprocal axes: (cart. coord. in units 2 pi/alat)
               b(1) = ( -1.0000 -1.0000  1.0000 )  
               b(2) = (  1.0000  1.0000  1.0000 )  
               b(3) = ( -1.0000  1.0000 -1.0000 )  


     Atoms inside the unit cell: 

     Cartesian axes

     site n.  atom      mass           positions (alat units)
        1     Si  28.0860   tau(    1) = (    0.00000    0.00000    0.00000  )
        2     Si  28.0860   tau(    2) = (    0.25000    0.25000    0.25000  )

     Computing dynamical matrix for 
                    q = (  -0.3333333   0.3333333  -0.3333333 )
 
      6 Sym.Ops. (no q -> -q+G )


     G cutoff =  649.9689  (   1079 G-vectors)     FFT grid: ( 40, 40, 40)
     G cutoff =  324.9845  (    388 G-vectors)  smooth grid: ( 25, 25, 25)
     number of k points=  2600

     PseudoPot. # 1 for Si read from file:
     ./si_pbe_v1.uspp.F.UPF.txt
     MD5 check sum: a056efeee980c13900f22a371efd63c1
     Pseudo is Ultrasoft + core correction, Zval =  4.0
     Generated by new atomic code, or converted to UPF format
     Using radial grid of  899 points,  6 beta functions with: 
                l(1) =   0
                l(2) =   0
                l(3) =   1
                l(4) =   1
                l(5) =   2
                l(6) =   2
     Q(r) pseudized with  8 coefficients,  rinner =    0.900   0.900   0.900
                                                       0.900   0.900

     Mode symmetry, C_3v (3m)   point group:


     Atomic displacements:
     There are   4 irreducible representations

     Representation     1      1 modes -A_1  L_1  To be done

     Representation     2      1 modes -A_1  L_1  To be done

     Representation     3      2 modes -E    L_3  To be done

     Representation     4      2 modes -E    L_3  To be done



     Alpha used in Ewald sum =   2.5000
     PHONON       :  1m36.01s CPU     1m48.46s WALL



     Representation #  1 mode #   1

     Self-consistent Calculation

      iter #   1 total cpu time :   109.1 secs   av.it.:   6.0
      thresh= 1.000E-02 alpha_mix =  0.700 |ddv_scf|^2 =  6.241E-05

      iter #   2 total cpu time :   109.9 secs   av.it.:  10.2
      thresh= 7.900E-04 alpha_mix =  0.700 |ddv_scf|^2 =  4.795E-04

      iter #   3 total cpu time :   111.3 secs   av.it.:   8.4
      thresh= 2.190E-03 alpha_mix =  0.700 |ddv_scf|^2 =  9.669E-08

      iter #   4 total cpu time :   112.0 secs   av.it.:  10.5
      thresh= 3.110E-05 alpha_mix =  0.700 |ddv_scf|^2 =  2.259E-09

      iter #   5 total cpu time :   113.2 secs   av.it.:  10.7
      thresh= 4.753E-06 alpha_mix =  0.700 |ddv_scf|^2 =  6.126E-11

      iter #   6 total cpu time :   113.9 secs   av.it.:  10.9
      thresh= 7.827E-07 alpha_mix =  0.700 |ddv_scf|^2 =  3.685E-12

      iter #   7 total cpu time :   114.5 secs   av.it.:  11.0
      thresh= 1.920E-07 alpha_mix =  0.700 |ddv_scf|^2 =  4.393E-12

      iter #   8 total cpu time :   115.6 secs   av.it.:   8.7
      thresh= 2.096E-07 alpha_mix =  0.700 |ddv_scf|^2 =  1.545E-13

      iter #   9 total cpu time :   116.9 secs   av.it.:  10.1
      thresh= 3.931E-08 alpha_mix =  0.700 |ddv_scf|^2 =  2.764E-13

      iter #  10 total cpu time :   117.6 secs   av.it.:   9.2
      thresh= 5.257E-08 alpha_mix =  0.700 |ddv_scf|^2 =  1.787E-15

      iter #  11 total cpu time :   123.0 secs   av.it.:  10.4
      thresh= 4.227E-09 alpha_mix =  0.700 |ddv_scf|^2 =  3.766E-16

      iter #  12 total cpu time :   124.0 secs   av.it.:  10.0
      thresh= 1.941E-09 alpha_mix =  0.700 |ddv_scf|^2 =  9.897E-18

     End of self-consistent calculation

     Convergence has been achieved 


     Representation #  2 mode #   2

     Self-consistent Calculation

      iter #   1 total cpu time :   127.1 secs   av.it.:   6.0
      thresh= 1.000E-02 alpha_mix =  0.700 |ddv_scf|^2 =  6.241E-05

      iter #   2 total cpu time :   128.9 secs   av.it.:  10.2
      thresh= 7.900E-04 alpha_mix =  0.700 |ddv_scf|^2 =  4.795E-04

      iter #   3 total cpu time :   129.7 secs   av.it.:   8.4
      thresh= 2.190E-03 alpha_mix =  0.700 |ddv_scf|^2 =  9.669E-08

      iter #   4 total cpu time :   130.3 secs   av.it.:  10.5
      thresh= 3.110E-05 alpha_mix =  0.700 |ddv_scf|^2 =  2.259E-09

      iter #   5 total cpu time :   131.2 secs   av.it.:  10.7
      thresh= 4.753E-06 alpha_mix =  0.700 |ddv_scf|^2 =  6.126E-11

      iter #   6 total cpu time :   131.8 secs   av.it.:  10.9
      thresh= 7.827E-07 alpha_mix =  0.700 |ddv_scf|^2 =  3.685E-12

      iter #   7 total cpu time :   133.4 secs   av.it.:  11.0
      thresh= 1.920E-07 alpha_mix =  0.700 |ddv_scf|^2 =  4.393E-12

      iter #   8 total cpu time :   135.9 secs   av.it.:   8.7
      thresh= 2.096E-07 alpha_mix =  0.700 |ddv_scf|^2 =  1.545E-13

      iter #   9 total cpu time :   136.5 secs   av.it.:  10.1
      thresh= 3.931E-08 alpha_mix =  0.700 |ddv_scf|^2 =  2.764E-13

      iter #  10 total cpu time :   137.1 secs   av.it.:   9.2
      thresh= 5.257E-08 alpha_mix =  0.700 |ddv_scf|^2 =  1.787E-15

      iter #  11 total cpu time :   137.7 secs   av.it.:  10.4
      thresh= 4.227E-09 alpha_mix =  0.700 |ddv_scf|^2 =  3.766E-16

      iter #  12 total cpu time :   139.1 secs   av.it.:  10.0
      thresh= 1.941E-09 alpha_mix =  0.700 |ddv_scf|^2 =  9.897E-18

     End of self-consistent calculation

     Convergence has been achieved 


     Representation #  3 modes #   3  4

     Self-consistent Calculation

      iter #   1 total cpu time :   140.7 secs   av.it.:   5.3
      thresh= 1.000E-02 alpha_mix =  0.700 |ddv_scf|^2 =  3.766E-08

      iter #   2 total cpu time :   142.3 secs   av.it.:  11.8
      thresh= 1.941E-05 alpha_mix =  0.700 |ddv_scf|^2 =  2.677E-09

      iter #   3 total cpu time :   143.9 secs   av.it.:  11.6
      thresh= 5.174E-06 alpha_mix =  0.700 |ddv_scf|^2 =  1.233E-10

      iter #   4 total cpu time :   145.2 secs   av.it.:  11.3
      thresh= 1.110E-06 alpha_mix =  0.700 |ddv_scf|^2 =  4.411E-13

      iter #   5 total cpu time :   146.5 secs   av.it.:  11.6
      thresh= 6.642E-08 alpha_mix =  0.700 |ddv_scf|^2 =  2.854E-14

      iter #   6 total cpu time :   147.7 secs   av.it.:  11.4
      thresh= 1.689E-08 alpha_mix =  0.700 |ddv_scf|^2 =  2.026E-16

      iter #   7 total cpu time :   149.0 secs   av.it.:  11.0
      thresh= 1.423E-09 alpha_mix =  0.700 |ddv_scf|^2 =  1.411E-17

     End of self-consistent calculation

     Convergence has been achieved 


     Representation #  4 modes #   5  6

     Self-consistent Calculation

      iter #   1 total cpu time :   150.3 secs   av.it.:   5.3
      thresh= 1.000E-02 alpha_mix =  0.700 |ddv_scf|^2 =  3.767E-08

      iter #   2 total cpu time :   152.2 secs   av.it.:  12.1
      thresh= 1.941E-05 alpha_mix =  0.700 |ddv_scf|^2 =  2.676E-09

      iter #   3 total cpu time :   153.4 secs   av.it.:  11.9
      thresh= 5.173E-06 alpha_mix =  0.700 |ddv_scf|^2 =  1.233E-10

      iter #   4 total cpu time :   155.0 secs   av.it.:  11.5
      thresh= 1.110E-06 alpha_mix =  0.700 |ddv_scf|^2 =  4.413E-13

      iter #   5 total cpu time :   156.2 secs   av.it.:  11.8
      thresh= 6.643E-08 alpha_mix =  0.700 |ddv_scf|^2 =  2.855E-14

      iter #   6 total cpu time :   157.5 secs   av.it.:  11.6
      thresh= 1.690E-08 alpha_mix =  0.700 |ddv_scf|^2 =  2.020E-16

      iter #   7 total cpu time :   159.1 secs   av.it.:  11.3
      thresh= 1.421E-09 alpha_mix =  0.700 |ddv_scf|^2 =  1.408E-17

     End of self-consistent calculation

     Convergence has been achieved 
 
     Number of q in the star =    8
     List of q in the star:
          1  -0.333333333   0.333333333  -0.333333333
          2   0.333333333   0.333333333   0.333333333
          3  -0.333333333  -0.333333333  -0.333333333
          4   0.333333333  -0.333333333   0.333333333
          5   0.333333333  -0.333333333  -0.333333333
          6   0.333333333   0.333333333  -0.333333333
          7  -0.333333333  -0.333333333   0.333333333
          8  -0.333333333   0.333333333   0.333333333

     Diagonalizing the dynamical matrix

     q = (   -0.333333333   0.333333333  -0.333333333 ) 

 **************************************************************************
     freq (    1) =       3.173310 [THz] =     105.850221 [cm-1]
     freq (    2) =       3.173310 [THz] =     105.850221 [cm-1]
     freq (    3) =       8.576007 [THz] =     286.064816 [cm-1]
     freq (    4) =      13.510564 [THz] =     450.663890 [cm-1]
     freq (    5) =      14.343861 [THz] =     478.459697 [cm-1]
     freq (    6) =      14.343861 [THz] =     478.459697 [cm-1]
 **************************************************************************

     Mode symmetry, C_3v (3m)   point group:

     freq (  1 -  2) =        105.9  [cm-1]   --> E    L_3           
     freq (  3 -  3) =        286.1  [cm-1]   --> A_1  L_1           
     freq (  4 -  4) =        450.7  [cm-1]   --> A_1  L_1           
     freq (  5 -  6) =        478.5  [cm-1]   --> E    L_3           

     Calculation of q =    0.5000000  -0.5000000   0.5000000
 
     Parallelization info
     --------------------
     sticks:   dense  smooth     PW     G-vecs:    dense   smooth      PW
     Min          54      27     10                 1078      380      91
     Max          55      28     11                 1080      394      94
     Sum         877     439    169                17261     6183    1471
 


     bravais-lattice index     =            2
     lattice parameter (alat)  =      10.3400  a.u.
     unit-cell volume          =     276.3768 (a.u.)^3
     number of atoms/cell      =            2
     number of atomic types    =            1
     number of electrons       =         8.00
     number of Kohn-Sham states=            4
     kinetic-energy cutoff     =      30.0000  Ry
     charge density cutoff     =     240.0000  Ry
     Exchange-correlation      = SLA  PW   PBE  PBE ( 1  4  3  4 0 0)

     celldm(1)=  10.340000  celldm(2)=   0.000000  celldm(3)=   0.000000
     celldm(4)=   0.000000  celldm(5)=   0.000000  celldm(6)=   0.000000

     crystal axes: (cart. coord. in units of alat)
               a(1) = (  -0.500000   0.000000   0.500000 )  
               a(2) = (   0.000000   0.500000   0.500000 )  
               a(3) = (  -0.500000   0.500000   0.000000 )  

     reciprocal axes: (cart. coord. in units 2 pi/alat)
               b(1) = ( -1.000000 -1.000000  1.000000 )  
               b(2) = (  1.000000  1.000000  1.000000 )  
               b(3) = ( -1.000000  1.000000 -1.000000 )  


     PseudoPot. # 1 for Si read from file:
     ./si_pbe_v1.uspp.F.UPF.txt
     MD5 check sum: a056efeee980c13900f22a371efd63c1
     Pseudo is Ultrasoft + core correction, Zval =  4.0
     Generated by new atomic code, or converted to UPF format
     Using radial grid of  899 points,  6 beta functions with: 
                l(1) =   0
                l(2) =   0
                l(3) =   1
                l(4) =   1
                l(5) =   2
                l(6) =   2
     Q(r) pseudized with  8 coefficients,  rinner =    0.900   0.900   0.900
                                                       0.900   0.900

     atomic species   valence    mass     pseudopotential
        Si             4.00    28.08600     Si( 1.00)

     48 Sym. Ops., with inversion, found



   Cartesian axes

     site n.     atom                  positions (alat units)
         1           Si  tau(   1) = (   0.0000000   0.0000000   0.0000000  )
         2           Si  tau(   2) = (   0.2500000   0.2500000   0.2500000  )

     number of k points=  1300

     Number of k-points >= 100: set verbosity='high' to print them.

     Dense  grid:    17261 G-vectors     FFT dimensions: (  40,  40,  40)

     Smooth grid:     6183 G-vectors     FFT dimensions: (  25,  25,  25)

     Largest allocated arrays     est. size (Mb)     dimensions
        Kohn-Sham Wavefunctions         0.00 Mb     (      58,    4)
        NL pseudopotentials             0.03 Mb     (      58,   36)
        Each V/rho on FFT grid          0.07 Mb     (    4800)
        Each G-vector array             0.01 Mb     (    1079)
        G-vector shells                 0.00 Mb     (     207)
     Largest temporary arrays     est. size (Mb)     dimensions
        Auxiliary wavefunctions         0.01 Mb     (      58,   16)
        Each subspace H/S matrix        0.00 Mb     (       8,    8)
        Each <psi_i|beta_j> matrix      0.00 Mb     (      36,    4)

     The potential is recalculated from file :
     ./silicon/_ph0/silicon.10.340.save/charge-density.dat

     Starting wfc are    8 atomic wfcs

     Band Structure Calculation
     Davidson diagonalization with overlap

     ethr =  1.25E-10,  avg # of iterations = 12.4

     total cpu time spent up to now is       10.5 secs

     End of band structure calculation

     Number of k-points >= 100: set verbosity='high' to print the bands.

     highest occupied level (ev):     5.9211

     Writing output data file silicon.10.340.save

                                                                                

     bravais-lattice index     =            2
     lattice parameter (alat)  =      10.3400  a.u.
     unit-cell volume          =     276.3768 (a.u.)^3
     number of atoms/cell      =            2
     number of atomic types    =            1
     kinetic-energy cut-off    =      30.0000  Ry
     charge density cut-off    =     240.0000  Ry
     convergence threshold     =      1.0E-16
     beta                      =       0.7000
     number of iterations used =            4
     Exchange-correlation      = SLA  PW   PBE  PBE ( 1  4  3  4 0 0)


     celldm(1)=   10.34000  celldm(2)=    0.00000  celldm(3)=    0.00000
     celldm(4)=    0.00000  celldm(5)=    0.00000  celldm(6)=    0.00000

     crystal axes: (cart. coord. in units of alat)
               a(1) = ( -0.5000  0.0000  0.5000 )  
               a(2) = (  0.0000  0.5000  0.5000 )  
               a(3) = ( -0.5000  0.5000  0.0000 )  

     reciprocal axes: (cart. coord. in units 2 pi/alat)
               b(1) = ( -1.0000 -1.0000  1.0000 )  
               b(2) = (  1.0000  1.0000  1.0000 )  
               b(3) = ( -1.0000  1.0000 -1.0000 )  


     Atoms inside the unit cell: 

     Cartesian axes

     site n.  atom      mass           positions (alat units)
        1     Si  28.0860   tau(    1) = (    0.00000    0.00000    0.00000  )
        2     Si  28.0860   tau(    2) = (    0.25000    0.25000    0.25000  )

     Computing dynamical matrix for 
                    q = (   0.5000000  -0.5000000   0.5000000 )
 
     13 Sym.Ops. (with q -> -q+G )


     G cutoff =  649.9689  (   1079 G-vectors)     FFT grid: ( 40, 40, 40)
     G cutoff =  324.9845  (    390 G-vectors)  smooth grid: ( 25, 25, 25)
     number of k points=  1300

     PseudoPot. # 1 for Si read from file:
     ./si_pbe_v1.uspp.F.UPF.txt
     MD5 check sum: a056efeee980c13900f22a371efd63c1
     Pseudo is Ultrasoft + core correction, Zval =  4.0
     Generated by new atomic code, or converted to UPF format
     Using radial grid of  899 points,  6 beta functions with: 
                l(1) =   0
                l(2) =   0
                l(3) =   1
                l(4) =   1
                l(5) =   2
                l(6) =   2
     Q(r) pseudized with  8 coefficients,  rinner =    0.900   0.900   0.900
                                                       0.900   0.900


     Atomic displacements:
     There are   4 irreducible representations

     Representation     1      1 modes -  To be done

     Representation     2      1 modes -  To be done

     Representation     3      2 modes -  To be done

     Representation     4      2 modes -  To be done



     Alpha used in Ewald sum =   2.5000
     PHONON       :  2m25.95s CPU     2m44.32s WALL



     Representation #  1 mode #   1

     Self-consistent Calculation

      iter #   1 total cpu time :   164.9 secs   av.it.:   5.1
      thresh= 1.000E-02 alpha_mix =  0.700 |ddv_scf|^2 =  2.114E-06

      iter #   2 total cpu time :   166.3 secs   av.it.:  10.7
      thresh= 1.454E-04 alpha_mix =  0.700 |ddv_scf|^2 =  1.946E-06

      iter #   3 total cpu time :   166.7 secs   av.it.:   9.8
      thresh= 1.395E-04 alpha_mix =  0.700 |ddv_scf|^2 =  1.172E-09

      iter #   4 total cpu time :   168.0 secs   av.it.:  10.1
      thresh= 3.423E-06 alpha_mix =  0.700 |ddv_scf|^2 =  1.186E-11

      iter #   5 total cpu time :   168.8 secs   av.it.:   9.9
      thresh= 3.444E-07 alpha_mix =  0.700 |ddv_scf|^2 =  1.525E-13

      iter #   6 total cpu time :   169.8 secs   av.it.:  10.0
      thresh= 3.906E-08 alpha_mix =  0.700 |ddv_scf|^2 =  2.206E-15

      iter #   7 total cpu time :   177.7 secs   av.it.:  10.1
      thresh= 4.696E-09 alpha_mix =  0.700 |ddv_scf|^2 =  4.091E-17

     End of self-consistent calculation

     Convergence has been achieved 


     Representation #  2 mode #   2

     Self-consistent Calculation

      iter #   1 total cpu time :   179.0 secs   av.it.:   6.0
      thresh= 1.000E-02 alpha_mix =  0.700 |ddv_scf|^2 =  3.002E-05

      iter #   2 total cpu time :   180.4 secs   av.it.:  10.6
      thresh= 5.479E-04 alpha_mix =  0.700 |ddv_scf|^2 =  9.344E-05

      iter #   3 total cpu time :   180.8 secs   av.it.:   9.3
      thresh= 9.667E-04 alpha_mix =  0.700 |ddv_scf|^2 =  6.881E-09

      iter #   4 total cpu time :   181.1 secs   av.it.:  10.7
      thresh= 8.295E-06 alpha_mix =  0.700 |ddv_scf|^2 =  3.478E-10

      iter #   5 total cpu time :   181.5 secs   av.it.:  10.8
      thresh= 1.865E-06 alpha_mix =  0.700 |ddv_scf|^2 =  1.039E-11

      iter #   6 total cpu time :   181.9 secs   av.it.:  10.6
      thresh= 3.224E-07 alpha_mix =  0.700 |ddv_scf|^2 =  7.761E-14

      iter #   7 total cpu time :   182.3 secs   av.it.:  10.0
      thresh= 2.786E-08 alpha_mix =  0.700 |ddv_scf|^2 =  8.650E-16

      iter #   8 total cpu time :   182.7 secs   av.it.:   9.8
      thresh= 2.941E-09 alpha_mix =  0.700 |ddv_scf|^2 =  3.602E-17

     End of self-consistent calculation

     Convergence has been achieved 


     Representation #  3 modes #   3  4

     Self-consistent Calculation

      iter #   1 total cpu time :   184.6 secs   av.it.:   5.1
      thresh= 1.000E-02 alpha_mix =  0.700 |ddv_scf|^2 =  1.360E-08

      iter #   2 total cpu time :   185.3 secs   av.it.:  11.7
      thresh= 1.166E-05 alpha_mix =  0.700 |ddv_scf|^2 =  8.016E-10

      iter #   3 total cpu time :   186.5 secs   av.it.:  11.2
      thresh= 2.831E-06 alpha_mix =  0.700 |ddv_scf|^2 =  2.715E-11

      iter #   4 total cpu time :   187.6 secs   av.it.:  11.3
      thresh= 5.211E-07 alpha_mix =  0.700 |ddv_scf|^2 =  2.200E-13

      iter #   5 total cpu time :   189.2 secs   av.it.:  11.2
      thresh= 4.690E-08 alpha_mix =  0.700 |ddv_scf|^2 =  2.449E-15

      iter #   6 total cpu time :   190.3 secs   av.it.:  11.2
      thresh= 4.949E-09 alpha_mix =  0.700 |ddv_scf|^2 =  2.546E-17

     End of self-consistent calculation

     Convergence has been achieved 


     Representation #  4 modes #   5  6

     Self-consistent Calculation

      iter #   1 total cpu time :   191.3 secs   av.it.:   5.2
      thresh= 1.000E-02 alpha_mix =  0.700 |ddv_scf|^2 =  6.963E-08

      iter #   2 total cpu time :   192.1 secs   av.it.:  11.8
      thresh= 2.639E-05 alpha_mix =  0.700 |ddv_scf|^2 =  5.586E-09

      iter #   3 total cpu time :   193.7 secs   av.it.:  11.6
      thresh= 7.474E-06 alpha_mix =  0.700 |ddv_scf|^2 =  1.470E-10

      iter #   4 total cpu time :   194.9 secs   av.it.:  10.5
      thresh= 1.212E-06 alpha_mix =  0.700 |ddv_scf|^2 =  2.688E-13

      iter #   5 total cpu time :   206.1 secs   av.it.:  11.2
      thresh= 5.184E-08 alpha_mix =  0.700 |ddv_scf|^2 =  2.444E-15

      iter #   6 total cpu time :   206.9 secs   av.it.:  11.3
      thresh= 4.943E-09 alpha_mix =  0.700 |ddv_scf|^2 =  6.640E-17

     End of self-consistent calculation

     Convergence has been achieved 
 
     Number of q in the star =    4
     List of q in the star:
          1   0.500000000  -0.500000000   0.500000000
          2   0.500000000   0.500000000   0.500000000
          3  -0.500000000   0.500000000   0.500000000
          4   0.500000000   0.500000000  -0.500000000

     Diagonalizing the dynamical matrix

     q = (    0.500000000  -0.500000000   0.500000000 ) 

 **************************************************************************
     freq (    1) =       3.348751 [THz] =     111.702316 [cm-1]
     freq (    2) =       3.348751 [THz] =     111.702316 [cm-1]
     freq (    3) =      11.089696 [THz] =     369.912428 [cm-1]
     freq (    4) =      11.932828 [THz] =     398.036298 [cm-1]
     freq (    5) =      14.267538 [THz] =     475.913854 [cm-1]
     freq (    6) =      14.267538 [THz] =     475.913854 [cm-1]
 **************************************************************************

     Calculation of q =    0.0000000   0.3333333   0.0000000
 
     Parallelization info
     --------------------
     sticks:   dense  smooth     PW     G-vecs:    dense   smooth      PW
     Min          54      27     10                 1078      378      84
     Max          55      28     11                 1080      393      86
     Sum         877     439    163                17261     6183    1363
 


     bravais-lattice index     =            2
     lattice parameter (alat)  =      10.3400  a.u.
     unit-cell volume          =     276.3768 (a.u.)^3
     number of atoms/cell      =            2
     number of atomic types    =            1
     number of electrons       =         8.00
     number of Kohn-Sham states=            4
     kinetic-energy cutoff     =      30.0000  Ry
     charge density cutoff     =     240.0000  Ry
     Exchange-correlation      = SLA  PW   PBE  PBE ( 1  4  3  4 0 0)

     celldm(1)=  10.340000  celldm(2)=   0.000000  celldm(3)=   0.000000
     celldm(4)=   0.000000  celldm(5)=   0.000000  celldm(6)=   0.000000

     crystal axes: (cart. coord. in units of alat)
               a(1) = (  -0.500000   0.000000   0.500000 )  
               a(2) = (   0.000000   0.500000   0.500000 )  
               a(3) = (  -0.500000   0.500000   0.000000 )  

     reciprocal axes: (cart. coord. in units 2 pi/alat)
               b(1) = ( -1.000000 -1.000000  1.000000 )  
               b(2) = (  1.000000  1.000000  1.000000 )  
               b(3) = ( -1.000000  1.000000 -1.000000 )  


     PseudoPot. # 1 for Si read from file:
     ./si_pbe_v1.uspp.F.UPF.txt
     MD5 check sum: a056efeee980c13900f22a371efd63c1
     Pseudo is Ultrasoft + core correction, Zval =  4.0
     Generated by new atomic code, or converted to UPF format
     Using radial grid of  899 points,  6 beta functions with: 
                l(1) =   0
                l(2) =   0
                l(3) =   1
                l(4) =   1
                l(5) =   2
                l(6) =   2
     Q(r) pseudized with  8 coefficients,  rinner =    0.900   0.900   0.900
                                                       0.900   0.900

     atomic species   valence    mass     pseudopotential
        Si             4.00    28.08600     Si( 1.00)

     48 Sym. Ops., with inversion, found



   Cartesian axes

     site n.     atom                  positions (alat units)
         1           Si  tau(   1) = (   0.0000000   0.0000000   0.0000000  )
         2           Si  tau(   2) = (   0.2500000   0.2500000   0.2500000  )

     number of k points=  1872

     Number of k-points >= 100: set verbosity='high' to print them.

     Dense  grid:    17261 G-vectors     FFT dimensions: (  40,  40,  40)

     Smooth grid:     6183 G-vectors     FFT dimensions: (  25,  25,  25)

     Largest allocated arrays     est. size (Mb)     dimensions
        Kohn-Sham Wavefunctions         0.00 Mb     (      55,    4)
        NL pseudopotentials             0.03 Mb     (      55,   36)
        Each V/rho on FFT grid          0.07 Mb     (    4800)
        Each G-vector array             0.01 Mb     (    1079)
        G-vector shells                 0.00 Mb     (     206)
     Largest temporary arrays     est. size (Mb)     dimensions
        Auxiliary wavefunctions         0.01 Mb     (      55,   16)
        Each subspace H/S matrix        0.00 Mb     (       8,    8)
        Each <psi_i|beta_j> matrix      0.00 Mb     (      36,    4)

     The potential is recalculated from file :
     ./silicon/_ph0/silicon.10.340.save/charge-density.dat

     Starting wfc are    8 atomic wfcs

     Band Structure Calculation
     Davidson diagonalization with overlap

     ethr =  1.25E-10,  avg # of iterations = 12.4

     total cpu time spent up to now is       13.2 secs

     End of band structure calculation

     Number of k-points >= 100: set verbosity='high' to print the bands.

     highest occupied level (ev):     5.9211

     Writing output data file silicon.10.340.save

                                                                                

     bravais-lattice index     =            2
     lattice parameter (alat)  =      10.3400  a.u.
     unit-cell volume          =     276.3768 (a.u.)^3
     number of atoms/cell      =            2
     number of atomic types    =            1
     kinetic-energy cut-off    =      30.0000  Ry
     charge density cut-off    =     240.0000  Ry
     convergence threshold     =      1.0E-16
     beta                      =       0.7000
     number of iterations used =            4
     Exchange-correlation      = SLA  PW   PBE  PBE ( 1  4  3  4 0 0)


     celldm(1)=   10.34000  celldm(2)=    0.00000  celldm(3)=    0.00000
     celldm(4)=    0.00000  celldm(5)=    0.00000  celldm(6)=    0.00000

     crystal axes: (cart. coord. in units of alat)
               a(1) = ( -0.5000  0.0000  0.5000 )  
               a(2) = (  0.0000  0.5000  0.5000 )  
               a(3) = ( -0.5000  0.5000  0.0000 )  

     reciprocal axes: (cart. coord. in units 2 pi/alat)
               b(1) = ( -1.0000 -1.0000  1.0000 )  
               b(2) = (  1.0000  1.0000  1.0000 )  
               b(3) = ( -1.0000  1.0000 -1.0000 )  


     Atoms inside the unit cell: 

     Cartesian axes

     site n.  atom      mass           positions (alat units)
        1     Si  28.0860   tau(    1) = (    0.00000    0.00000    0.00000  )
        2     Si  28.0860   tau(    2) = (    0.25000    0.25000    0.25000  )

     Computing dynamical matrix for 
                    q = (   0.0000000   0.3333333   0.0000000 )
 
      8 Sym.Ops. (no q -> -q+G )


     G cutoff =  649.9689  (   1079 G-vectors)     FFT grid: ( 40, 40, 40)
     G cutoff =  324.9845  (    383 G-vectors)  smooth grid: ( 25, 25, 25)
     number of k points=  1872

     PseudoPot. # 1 for Si read from file:
     ./si_pbe_v1.uspp.F.UPF.txt
     MD5 check sum: a056efeee980c13900f22a371efd63c1
     Pseudo is Ultrasoft + core correction, Zval =  4.0
     Generated by new atomic code, or converted to UPF format
     Using radial grid of  899 points,  6 beta functions with: 
                l(1) =   0
                l(2) =   0
                l(3) =   1
                l(4) =   1
                l(5) =   2
                l(6) =   2
     Q(r) pseudized with  8 coefficients,  rinner =    0.900   0.900   0.900
                                                       0.900   0.900

     Mode symmetry, C_4v (4mm)  point group:


     Atomic displacements:
     There are   4 irreducible representations

     Representation     1      1 modes -A_1  G_1 D_1  To be done

     Representation     2      1 modes -B_2  G_4 D_2'  To be done

     Representation     3      2 modes -E    G_5 D_5  To be done

     Representation     4      2 modes -E    G_5 D_5  To be done



     Alpha used in Ewald sum =   2.5000
     PHONON       :  3m 9.72s CPU     3m32.23s WALL



     Representation #  1 mode #   1

     Self-consistent Calculation

      iter #   1 total cpu time :   213.0 secs   av.it.:   6.3
      thresh= 1.000E-02 alpha_mix =  0.700 |ddv_scf|^2 =  1.315E-03

      iter #   2 total cpu time :   213.7 secs   av.it.:   9.4
      thresh= 3.626E-03 alpha_mix =  0.700 |ddv_scf|^2 =  3.822E-02

      iter #   3 total cpu time :   214.1 secs   av.it.:   7.7
      thresh= 1.000E-02 alpha_mix =  0.700 |ddv_scf|^2 =  7.389E-08

      iter #   4 total cpu time :   215.6 secs   av.it.:   9.7
      thresh= 2.718E-05 alpha_mix =  0.700 |ddv_scf|^2 =  2.464E-09

      iter #   5 total cpu time :   216.3 secs   av.it.:   8.8
      thresh= 4.964E-06 alpha_mix =  0.700 |ddv_scf|^2 =  5.679E-10

      iter #   6 total cpu time :   216.8 secs   av.it.:   8.3
      thresh= 2.383E-06 alpha_mix =  0.700 |ddv_scf|^2 =  1.030E-13

      iter #   7 total cpu time :   217.3 secs   av.it.:  10.0
      thresh= 3.209E-08 alpha_mix =  0.700 |ddv_scf|^2 =  8.267E-14

      iter #   8 total cpu time :   217.7 secs   av.it.:   7.4
      thresh= 2.875E-08 alpha_mix =  0.700 |ddv_scf|^2 =  5.364E-17

     End of self-consistent calculation

     Convergence has been achieved 


     Representation #  2 mode #   2

     Self-consistent Calculation

      iter #   1 total cpu time :   218.3 secs   av.it.:   5.1
      thresh= 1.000E-02 alpha_mix =  0.700 |ddv_scf|^2 =  2.179E-07

      iter #   2 total cpu time :   219.3 secs   av.it.:  10.9
      thresh= 4.668E-05 alpha_mix =  0.700 |ddv_scf|^2 =  3.769E-08

      iter #   3 total cpu time :   219.8 secs   av.it.:  10.8
      thresh= 1.941E-05 alpha_mix =  0.700 |ddv_scf|^2 =  1.098E-09

      iter #   4 total cpu time :   220.3 secs   av.it.:  10.8
      thresh= 3.313E-06 alpha_mix =  0.700 |ddv_scf|^2 =  3.957E-11

      iter #   5 total cpu time :   221.5 secs   av.it.:  10.8
      thresh= 6.290E-07 alpha_mix =  0.700 |ddv_scf|^2 =  2.068E-13

      iter #   6 total cpu time :   222.0 secs   av.it.:  10.3
      thresh= 4.548E-08 alpha_mix =  0.700 |ddv_scf|^2 =  3.547E-15

      iter #   7 total cpu time :   222.8 secs   av.it.:   9.9
      thresh= 5.956E-09 alpha_mix =  0.700 |ddv_scf|^2 =  9.142E-17

     End of self-consistent calculation

     Convergence has been achieved 


     Representation #  3 modes #   3  4

     Self-consistent Calculation

      iter #   1 total cpu time :   225.4 secs   av.it.:   5.2
      thresh= 1.000E-02 alpha_mix =  0.700 |ddv_scf|^2 =  4.107E-08

      iter #   2 total cpu time :   226.9 secs   av.it.:  12.0
      thresh= 2.027E-05 alpha_mix =  0.700 |ddv_scf|^2 =  3.561E-09

      iter #   3 total cpu time :   228.8 secs   av.it.:  11.8
      thresh= 5.967E-06 alpha_mix =  0.700 |ddv_scf|^2 =  1.372E-10

      iter #   4 total cpu time :   230.4 secs   av.it.:  11.3
      thresh= 1.171E-06 alpha_mix =  0.700 |ddv_scf|^2 =  5.341E-13

      iter #   5 total cpu time :   231.4 secs   av.it.:  11.5
      thresh= 7.308E-08 alpha_mix =  0.700 |ddv_scf|^2 =  2.593E-14

      iter #   6 total cpu time :   232.8 secs   av.it.:  11.7
      thresh= 1.610E-08 alpha_mix =  0.700 |ddv_scf|^2 =  1.928E-16

      iter #   7 total cpu time :   233.8 secs   av.it.:  11.1
      thresh= 1.388E-09 alpha_mix =  0.700 |ddv_scf|^2 =  1.220E-17

     End of self-consistent calculation

     Convergence has been achieved 


     Representation #  4 modes #   5  6

     Self-consistent Calculation

      iter #   1 total cpu time :   234.8 secs   av.it.:   5.3
      thresh= 1.000E-02 alpha_mix =  0.700 |ddv_scf|^2 =  4.844E-08

      iter #   2 total cpu time :   235.8 secs   av.it.:  12.0
      thresh= 2.201E-05 alpha_mix =  0.700 |ddv_scf|^2 =  4.361E-09

      iter #   3 total cpu time :   236.9 secs   av.it.:  11.7
      thresh= 6.604E-06 alpha_mix =  0.700 |ddv_scf|^2 =  1.453E-10

      iter #   4 total cpu time :   238.6 secs   av.it.:  11.5
      thresh= 1.206E-06 alpha_mix =  0.700 |ddv_scf|^2 =  3.809E-13

      iter #   5 total cpu time :   240.3 secs   av.it.:  11.5
      thresh= 6.171E-08 alpha_mix =  0.700 |ddv_scf|^2 =  1.230E-14

      iter #   6 total cpu time :   241.6 secs   av.it.:  11.6
      thresh= 1.109E-08 alpha_mix =  0.700 |ddv_scf|^2 =  1.651E-16

      iter #   7 total cpu time :   247.3 secs   av.it.:  11.2
      thresh= 1.285E-09 alpha_mix =  0.700 |ddv_scf|^2 =  1.013E-17

     End of self-consistent calculation

     Convergence has been achieved 
 
     Number of q in the star =    6
     List of q in the star:
          1   0.000000000   0.333333333   0.000000000
          2   0.333333333   0.000000000   0.000000000
          3   0.000000000   0.000000000   0.333333333
          4   0.000000000  -0.333333333   0.000000000
          5  -0.333333333   0.000000000   0.000000000
          6   0.000000000   0.000000000  -0.333333333

     Diagonalizing the dynamical matrix

     q = (    0.000000000   0.333333333   0.000000000 ) 

 **************************************************************************
     freq (    1) =       2.970246 [THz] =      99.076748 [cm-1]
     freq (    2) =       2.970246 [THz] =      99.076748 [cm-1]
     freq (    3) =       4.843508 [THz] =     161.562024 [cm-1]
     freq (    4) =      14.276128 [THz] =     476.200362 [cm-1]
     freq (    5) =      14.276128 [THz] =     476.200362 [cm-1]
     freq (    6) =      14.790214 [THz] =     493.348425 [cm-1]
 **************************************************************************

     Mode symmetry, C_4v (4mm)  point group:

     freq (  1 -  2) =         99.1  [cm-1]   --> E    G_5 D_5       
     freq (  3 -  3) =        161.6  [cm-1]   --> A_1  G_1 D_1       
     freq (  4 -  5) =        476.2  [cm-1]   --> E    G_5 D_5       
     freq (  6 -  6) =        493.3  [cm-1]   --> B_2  G_4 D_2'      

     Calculation of q =   -0.1666667   0.5000000  -0.1666667
 
     Parallelization info
     --------------------
     sticks:   dense  smooth     PW     G-vecs:    dense   smooth      PW
     Min          54      27     10                 1078      382      87
     Max          55      28     11                 1080      390      90
     Sum         877     439    163                17261     6183    1411
 


     bravais-lattice index     =            2
     lattice parameter (alat)  =      10.3400  a.u.
     unit-cell volume          =     276.3768 (a.u.)^3
     number of atoms/cell      =            2
     number of atomic types    =            1
     number of electrons       =         8.00
     number of Kohn-Sham states=            4
     kinetic-energy cutoff     =      30.0000  Ry
     charge density cutoff     =     240.0000  Ry
     Exchange-correlation      = SLA  PW   PBE  PBE ( 1  4  3  4 0 0)

     celldm(1)=  10.340000  celldm(2)=   0.000000  celldm(3)=   0.000000
     celldm(4)=   0.000000  celldm(5)=   0.000000  celldm(6)=   0.000000

     crystal axes: (cart. coord. in units of alat)
               a(1) = (  -0.500000   0.000000   0.500000 )  
               a(2) = (   0.000000   0.500000   0.500000 )  
               a(3) = (  -0.500000   0.500000   0.000000 )  

     reciprocal axes: (cart. coord. in units 2 pi/alat)
               b(1) = ( -1.000000 -1.000000  1.000000 )  
               b(2) = (  1.000000  1.000000  1.000000 )  
               b(3) = ( -1.000000  1.000000 -1.000000 )  


     PseudoPot. # 1 for Si read from file:
     ./si_pbe_v1.uspp.F.UPF.txt
     MD5 check sum: a056efeee980c13900f22a371efd63c1
     Pseudo is Ultrasoft + core correction, Zval =  4.0
     Generated by new atomic code, or converted to UPF format
     Using radial grid of  899 points,  6 beta functions with: 
                l(1) =   0
                l(2) =   0
                l(3) =   1
                l(4) =   1
                l(5) =   2
                l(6) =   2
     Q(r) pseudized with  8 coefficients,  rinner =    0.900   0.900   0.900
                                                       0.900   0.900

     atomic species   valence    mass     pseudopotential
        Si             4.00    28.08600     Si( 1.00)

     48 Sym. Ops., with inversion, found



   Cartesian axes

     site n.     atom                  positions (alat units)
         1           Si  tau(   1) = (   0.0000000   0.0000000   0.0000000  )
         2           Si  tau(   2) = (   0.2500000   0.2500000   0.2500000  )

     number of k points=  7200

     Number of k-points >= 100: set verbosity='high' to print them.

     Dense  grid:    17261 G-vectors     FFT dimensions: (  40,  40,  40)

     Smooth grid:     6183 G-vectors     FFT dimensions: (  25,  25,  25)

     Largest allocated arrays     est. size (Mb)     dimensions
        Kohn-Sham Wavefunctions         0.00 Mb     (      56,    4)
        NL pseudopotentials             0.03 Mb     (      56,   36)
        Each V/rho on FFT grid          0.07 Mb     (    4800)
        Each G-vector array             0.01 Mb     (    1079)
        G-vector shells                 0.00 Mb     (     211)
     Largest temporary arrays     est. size (Mb)     dimensions
        Auxiliary wavefunctions         0.01 Mb     (      56,   16)
        Each subspace H/S matrix        0.00 Mb     (       8,    8)
        Each <psi_i|beta_j> matrix      0.00 Mb     (      36,    4)

     The potential is recalculated from file :
     ./silicon/_ph0/silicon.10.340.save/charge-density.dat

     Starting wfc are    8 atomic wfcs

     Band Structure Calculation
     Davidson diagonalization with overlap

     ethr =  1.25E-10,  avg # of iterations = 12.3

     total cpu time spent up to now is       21.0 secs

     End of band structure calculation

     Number of k-points >= 100: set verbosity='high' to print the bands.

     highest occupied level (ev):     5.9211

     Writing output data file silicon.10.340.save

                                                                                

     bravais-lattice index     =            2
     lattice parameter (alat)  =      10.3400  a.u.
     unit-cell volume          =     276.3768 (a.u.)^3
     number of atoms/cell      =            2
     number of atomic types    =            1
     kinetic-energy cut-off    =      30.0000  Ry
     charge density cut-off    =     240.0000  Ry
     convergence threshold     =      1.0E-16
     beta                      =       0.7000
     number of iterations used =            4
     Exchange-correlation      = SLA  PW   PBE  PBE ( 1  4  3  4 0 0)


     celldm(1)=   10.34000  celldm(2)=    0.00000  celldm(3)=    0.00000
     celldm(4)=    0.00000  celldm(5)=    0.00000  celldm(6)=    0.00000

     crystal axes: (cart. coord. in units of alat)
               a(1) = ( -0.5000  0.0000  0.5000 )  
               a(2) = (  0.0000  0.5000  0.5000 )  
               a(3) = ( -0.5000  0.5000  0.0000 )  

     reciprocal axes: (cart. coord. in units 2 pi/alat)
               b(1) = ( -1.0000 -1.0000  1.0000 )  
               b(2) = (  1.0000  1.0000  1.0000 )  
               b(3) = ( -1.0000  1.0000 -1.0000 )  


     Atoms inside the unit cell: 

     Cartesian axes

     site n.  atom      mass           positions (alat units)
        1     Si  28.0860   tau(    1) = (    0.00000    0.00000    0.00000  )
        2     Si  28.0860   tau(    2) = (    0.25000    0.25000    0.25000  )

     Computing dynamical matrix for 
                    q = (  -0.1666667   0.5000000  -0.1666667 )
 
      2 Sym.Ops. (no q -> -q+G )


     G cutoff =  649.9689  (   1079 G-vectors)     FFT grid: ( 40, 40, 40)
     G cutoff =  324.9845  (    388 G-vectors)  smooth grid: ( 25, 25, 25)
     number of k points=  7200

     PseudoPot. # 1 for Si read from file:
     ./si_pbe_v1.uspp.F.UPF.txt
     MD5 check sum: a056efeee980c13900f22a371efd63c1
     Pseudo is Ultrasoft + core correction, Zval =  4.0
     Generated by new atomic code, or converted to UPF format
     Using radial grid of  899 points,  6 beta functions with: 
                l(1) =   0
                l(2) =   0
                l(3) =   1
                l(4) =   1
                l(5) =   2
                l(6) =   2
     Q(r) pseudized with  8 coefficients,  rinner =    0.900   0.900   0.900
                                                       0.900   0.900

     Mode symmetry, C_s (m)     point group:


     Atomic displacements:
     There are   6 irreducible representations

     Representation     1      1 modes -A'  To be done

     Representation     2      1 modes -A'  To be done

     Representation     3      1 modes -A'  To be done

     Representation     4      1 modes -A'  To be done

     Representation     5      1 modes -A''  To be done

     Representation     6      1 modes -A''  To be done



     Alpha used in Ewald sum =   2.5000
     PHONON       :  3m52.85s CPU     4m26.46s WALL



     Representation #  1 mode #   1

     Self-consistent Calculation

      iter #   1 total cpu time :   268.9 secs   av.it.:   5.8
      thresh= 1.000E-02 alpha_mix =  0.700 |ddv_scf|^2 =  3.147E-05

      iter #   2 total cpu time :   271.9 secs   av.it.:  10.4
      thresh= 5.610E-04 alpha_mix =  0.700 |ddv_scf|^2 =  3.218E-04

      iter #   3 total cpu time :   273.9 secs   av.it.:   8.3
      thresh= 1.794E-03 alpha_mix =  0.700 |ddv_scf|^2 =  5.512E-08

      iter #   4 total cpu time :   275.9 secs   av.it.:  10.9
      thresh= 2.348E-05 alpha_mix =  0.700 |ddv_scf|^2 =  2.418E-09

      iter #   5 total cpu time :   277.6 secs   av.it.:  10.9
      thresh= 4.917E-06 alpha_mix =  0.700 |ddv_scf|^2 =  1.147E-10

      iter #   6 total cpu time :   280.0 secs   av.it.:  10.9
      thresh= 1.071E-06 alpha_mix =  0.700 |ddv_scf|^2 =  4.282E-12

      iter #   7 total cpu time :   281.7 secs   av.it.:  11.0
      thresh= 2.069E-07 alpha_mix =  0.700 |ddv_scf|^2 =  9.451E-13

      iter #   8 total cpu time :   283.2 secs   av.it.:  10.2
      thresh= 9.722E-08 alpha_mix =  0.700 |ddv_scf|^2 =  2.573E-12

      iter #   9 total cpu time :   284.6 secs   av.it.:   9.1
      thresh= 1.604E-07 alpha_mix =  0.700 |ddv_scf|^2 =  1.681E-13

      iter #  10 total cpu time :   286.2 secs   av.it.:   9.4
      thresh= 4.100E-08 alpha_mix =  0.700 |ddv_scf|^2 =  1.508E-14

      iter #  11 total cpu time :   287.8 secs   av.it.:  10.4
      thresh= 1.228E-08 alpha_mix =  0.700 |ddv_scf|^2 =  7.107E-16

      iter #  12 total cpu time :   289.5 secs   av.it.:  10.9
      thresh= 2.666E-09 alpha_mix =  0.700 |ddv_scf|^2 =  8.751E-17

     End of self-consistent calculation

     Convergence has been achieved 


     Representation #  2 mode #   2

     Self-consistent Calculation

      iter #   1 total cpu time :   291.2 secs   av.it.:   6.0
      thresh= 1.000E-02 alpha_mix =  0.700 |ddv_scf|^2 =  7.410E-05

      iter #   2 total cpu time :   293.2 secs   av.it.:  10.3
      thresh= 8.608E-04 alpha_mix =  0.700 |ddv_scf|^2 =  7.752E-04

      iter #   3 total cpu time :   294.6 secs   av.it.:   8.3
      thresh= 2.784E-03 alpha_mix =  0.700 |ddv_scf|^2 =  3.698E-08

      iter #   4 total cpu time :   296.4 secs   av.it.:  11.1
      thresh= 1.923E-05 alpha_mix =  0.700 |ddv_scf|^2 =  3.551E-09

      iter #   5 total cpu time :   298.5 secs   av.it.:  10.9
      thresh= 5.959E-06 alpha_mix =  0.700 |ddv_scf|^2 =  1.147E-10

      iter #   6 total cpu time :   300.3 secs   av.it.:  11.0
      thresh= 1.071E-06 alpha_mix =  0.700 |ddv_scf|^2 =  9.298E-12

      iter #   7 total cpu time :   302.5 secs   av.it.:  11.0
      thresh= 3.049E-07 alpha_mix =  0.700 |ddv_scf|^2 =  4.695E-14

      iter #   8 total cpu time :   304.3 secs   av.it.:  11.0
      thresh= 2.167E-08 alpha_mix =  0.700 |ddv_scf|^2 =  3.851E-14

      iter #   9 total cpu time :   305.8 secs   av.it.:   9.8
      thresh= 1.962E-08 alpha_mix =  0.700 |ddv_scf|^2 =  4.678E-14

      iter #  10 total cpu time :   307.2 secs   av.it.:   9.2
      thresh= 2.163E-08 alpha_mix =  0.700 |ddv_scf|^2 =  6.680E-16

      iter #  11 total cpu time :   308.8 secs   av.it.:  10.4
      thresh= 2.585E-09 alpha_mix =  0.700 |ddv_scf|^2 =  1.438E-15

      iter #  12 total cpu time :   310.4 secs   av.it.:   8.9
      thresh= 3.792E-09 alpha_mix =  0.700 |ddv_scf|^2 =  5.505E-18

     End of self-consistent calculation

     Convergence has been achieved 


     Representation #  3 mode #   3

     Self-consistent Calculation

      iter #   1 total cpu time :   312.1 secs   av.it.:   5.9
      thresh= 1.000E-02 alpha_mix =  0.700 |ddv_scf|^2 =  5.387E-05

      iter #   2 total cpu time :   313.7 secs   av.it.:  10.4
      thresh= 7.340E-04 alpha_mix =  0.700 |ddv_scf|^2 =  5.668E-04

      iter #   3 total cpu time :   315.0 secs   av.it.:   8.3
      thresh= 2.381E-03 alpha_mix =  0.700 |ddv_scf|^2 =  5.215E-08

      iter #   4 total cpu time :   316.7 secs   av.it.:  11.0
      thresh= 2.284E-05 alpha_mix =  0.700 |ddv_scf|^2 =  2.857E-09

      iter #   5 total cpu time :   318.3 secs   av.it.:  10.9
      thresh= 5.345E-06 alpha_mix =  0.700 |ddv_scf|^2 =  1.240E-10

      iter #   6 total cpu time :   319.9 secs   av.it.:  11.1
      thresh= 1.114E-06 alpha_mix =  0.700 |ddv_scf|^2 =  7.767E-12

      iter #   7 total cpu time :   321.5 secs   av.it.:  11.0
      thresh= 2.787E-07 alpha_mix =  0.700 |ddv_scf|^2 =  7.123E-13

      iter #   8 total cpu time :   323.0 secs   av.it.:   9.7
      thresh= 8.440E-08 alpha_mix =  0.700 |ddv_scf|^2 =  8.207E-13

      iter #   9 total cpu time :   324.8 secs   av.it.:   9.3
      thresh= 9.059E-08 alpha_mix =  0.700 |ddv_scf|^2 =  1.062E-13

      iter #  10 total cpu time :   326.2 secs   av.it.:   9.1
      thresh= 3.259E-08 alpha_mix =  0.700 |ddv_scf|^2 =  7.371E-15

      iter #  11 total cpu time :   327.7 secs   av.it.:  10.0
      thresh= 8.585E-09 alpha_mix =  0.700 |ddv_scf|^2 =  6.136E-17

     End of self-consistent calculation

     Convergence has been achieved 


     Representation #  4 mode #   4

     Self-consistent Calculation

      iter #   1 total cpu time :   329.2 secs   av.it.:   5.6
      thresh= 1.000E-02 alpha_mix =  0.700 |ddv_scf|^2 =  1.124E-05

      iter #   2 total cpu time :   331.0 secs   av.it.:  10.7
      thresh= 3.352E-04 alpha_mix =  0.700 |ddv_scf|^2 =  1.132E-04

      iter #   3 total cpu time :   332.3 secs   av.it.:   8.4
      thresh= 1.064E-03 alpha_mix =  0.700 |ddv_scf|^2 =  6.393E-08

      iter #   4 total cpu time :   334.4 secs   av.it.:  10.9
      thresh= 2.528E-05 alpha_mix =  0.700 |ddv_scf|^2 =  1.331E-09

      iter #   5 total cpu time :   336.5 secs   av.it.:  11.0
      thresh= 3.648E-06 alpha_mix =  0.700 |ddv_scf|^2 =  1.194E-10

      iter #   6 total cpu time :   338.6 secs   av.it.:  11.0
      thresh= 1.093E-06 alpha_mix =  0.700 |ddv_scf|^2 =  3.731E-12

      iter #   7 total cpu time :   340.5 secs   av.it.:  11.0
      thresh= 1.931E-07 alpha_mix =  0.700 |ddv_scf|^2 =  5.441E-12

      iter #   8 total cpu time :   342.4 secs   av.it.:   9.1
      thresh= 2.332E-07 alpha_mix =  0.700 |ddv_scf|^2 =  1.591E-12

      iter #   9 total cpu time :   343.9 secs   av.it.:   9.6
      thresh= 1.261E-07 alpha_mix =  0.700 |ddv_scf|^2 =  1.418E-12

      iter #  10 total cpu time :   345.8 secs   av.it.:   9.2
      thresh= 1.191E-07 alpha_mix =  0.700 |ddv_scf|^2 =  4.580E-15

      iter #  11 total cpu time :   347.6 secs   av.it.:  11.1
      thresh= 6.768E-09 alpha_mix =  0.700 |ddv_scf|^2 =  1.491E-15

      iter #  12 total cpu time :   349.5 secs   av.it.:  10.8
      thresh= 3.862E-09 alpha_mix =  0.700 |ddv_scf|^2 =  8.905E-17

     End of self-consistent calculation

     Convergence has been achieved 


     Representation #  5 mode #   5

     Self-consistent Calculation

      iter #   1 total cpu time :   351.0 secs   av.it.:   5.3
      thresh= 1.000E-02 alpha_mix =  0.700 |ddv_scf|^2 =  2.494E-07

      iter #   2 total cpu time :   352.8 secs   av.it.:  11.0
      thresh= 4.994E-05 alpha_mix =  0.700 |ddv_scf|^2 =  3.049E-08

      iter #   3 total cpu time :   354.9 secs   av.it.:  10.8
      thresh= 1.746E-05 alpha_mix =  0.700 |ddv_scf|^2 =  6.546E-10

      iter #   4 total cpu time :   356.5 secs   av.it.:  10.6
      thresh= 2.559E-06 alpha_mix =  0.700 |ddv_scf|^2 =  1.653E-12

      iter #   5 total cpu time :   358.1 secs   av.it.:  10.7
      thresh= 1.286E-07 alpha_mix =  0.700 |ddv_scf|^2 =  8.324E-14

      iter #   6 total cpu time :   360.4 secs   av.it.:  10.7
      thresh= 2.885E-08 alpha_mix =  0.700 |ddv_scf|^2 =  7.830E-16

      iter #   7 total cpu time :   362.5 secs   av.it.:  10.4
      thresh= 2.798E-09 alpha_mix =  0.700 |ddv_scf|^2 =  3.091E-17

     End of self-consistent calculation

     Convergence has been achieved 


     Representation #  6 mode #   6

     Self-consistent Calculation

      iter #   1 total cpu time :   364.4 secs   av.it.:   5.3
      thresh= 1.000E-02 alpha_mix =  0.700 |ddv_scf|^2 =  2.494E-07

      iter #   2 total cpu time :   366.3 secs   av.it.:  11.0
      thresh= 4.994E-05 alpha_mix =  0.700 |ddv_scf|^2 =  3.049E-08

      iter #   3 total cpu time :   367.9 secs   av.it.:  10.8
      thresh= 1.746E-05 alpha_mix =  0.700 |ddv_scf|^2 =  6.546E-10

      iter #   4 total cpu time :   369.5 secs   av.it.:  10.6
      thresh= 2.559E-06 alpha_mix =  0.700 |ddv_scf|^2 =  1.653E-12

      iter #   5 total cpu time :   372.0 secs   av.it.:  10.7
      thresh= 1.286E-07 alpha_mix =  0.700 |ddv_scf|^2 =  8.324E-14

      iter #   6 total cpu time :   374.0 secs   av.it.:  10.7
      thresh= 2.885E-08 alpha_mix =  0.700 |ddv_scf|^2 =  7.830E-16

      iter #   7 total cpu time :   376.7 secs   av.it.:  10.4
      thresh= 2.798E-09 alpha_mix =  0.700 |ddv_scf|^2 =  3.090E-17

     End of self-consistent calculation

     Convergence has been achieved 
 
     Number of q in the star =   24
     List of q in the star:
          1  -0.166666667   0.500000000  -0.166666667
          2   0.166666667   0.500000000   0.166666667
          3  -0.166666667   0.500000000   0.166666667
          4   0.166666667   0.500000000  -0.166666667
          5   0.500000000  -0.166666667   0.166666667
[...]

     End of self-consistent calculation

     Convergence has been achieved 
 
     Number of q in the star =   24
     List of q in the star:
          1   0.500000000  -0.166666667   0.833333333
          2   0.833333333   0.166666667   0.500000000
          3   0.500000000   0.166666667   0.833333333
          4  -0.833333333  -0.166666667   0.500000000
          5  -0.833333333  -0.166666667  -0.500000000
          6  -0.500000000  -0.166666667  -0.833333333
          7   0.833333333  -0.166666667   0.500000000
          8  -0.500000000  -0.166666667   0.833333333
          9  -0.833333333   0.166666667   0.500000000
         10   0.833333333   0.166666667  -0.500000000
         11   0.833333333  -0.166666667  -0.500000000
         12   0.500000000   0.166666667  -0.833333333
         13  -0.500000000   0.166666667   0.833333333
         14  -0.500000000   0.166666667  -0.833333333
         15  -0.833333333   0.166666667  -0.500000000
         16   0.833333333  -0.500000000   0.166666667
         17   0.833333333   0.500000000  -0.166666667
         18  -0.833333333  -0.500000000  -0.166666667
         19  -0.833333333   0.500000000   0.166666667
         20   0.166666667  -0.500000000   0.833333333
         21  -0.166666667   0.500000000   0.833333333
         22   0.166666667   0.500000000  -0.833333333
         23  -0.166666667  -0.500000000  -0.833333333
         24  -0.500000000   0.833333333   0.166666667

     Diagonalizing the dynamical matrix

     q = (    0.500000000  -0.166666667   0.833333333 ) 

 **************************************************************************
     freq (    1) =       5.149197 [THz] =     171.758734 [cm-1]
     freq (    2) =       6.147056 [THz] =     205.043707 [cm-1]
     freq (    3) =       9.647584 [THz] =     321.808764 [cm-1]
     freq (    4) =      11.114228 [THz] =     370.730733 [cm-1]
     freq (    5) =      13.571393 [THz] =     452.692954 [cm-1]
     freq (    6) =      13.790746 [THz] =     460.009780 [cm-1]
 **************************************************************************

     Calculation of q =   -0.3333333  -1.0000000   0.0000000
 
     Parallelization info
     --------------------
     sticks:   dense  smooth     PW     G-vecs:    dense   smooth      PW
     Min          54      27     11                 1078      381     101
     Max          55      28     12                 1080      391     103
     Sum         877     439    187                17261     6183    1639
 


     bravais-lattice index     =            2
     lattice parameter (alat)  =      10.3400  a.u.
     unit-cell volume          =     276.3768 (a.u.)^3
     number of atoms/cell      =            2
     number of atomic types    =            1
     number of electrons       =         8.00
     number of Kohn-Sham states=            4
     kinetic-energy cutoff     =      30.0000  Ry
     charge density cutoff     =     240.0000  Ry
     Exchange-correlation      = SLA  PW   PBE  PBE ( 1  4  3  4 0 0)

     celldm(1)=  10.340000  celldm(2)=   0.000000  celldm(3)=   0.000000
     celldm(4)=   0.000000  celldm(5)=   0.000000  celldm(6)=   0.000000

     crystal axes: (cart. coord. in units of alat)
               a(1) = (  -0.500000   0.000000   0.500000 )  
               a(2) = (   0.000000   0.500000   0.500000 )  
               a(3) = (  -0.500000   0.500000   0.000000 )  

     reciprocal axes: (cart. coord. in units 2 pi/alat)
               b(1) = ( -1.000000 -1.000000  1.000000 )  
               b(2) = (  1.000000  1.000000  1.000000 )  
               b(3) = ( -1.000000  1.000000 -1.000000 )  


     PseudoPot. # 1 for Si read from file:
     ./si_pbe_v1.uspp.F.UPF.txt
     MD5 check sum: a056efeee980c13900f22a371efd63c1
     Pseudo is Ultrasoft + core correction, Zval =  4.0
     Generated by new atomic code, or converted to UPF format
     Using radial grid of  899 points,  6 beta functions with: 
                l(1) =   0
                l(2) =   0
                l(3) =   1
                l(4) =   1
                l(5) =   2
                l(6) =   2
     Q(r) pseudized with  8 coefficients,  rinner =    0.900   0.900   0.900
                                                       0.900   0.900

     atomic species   valence    mass     pseudopotential
        Si             4.00    28.08600     Si( 1.00)

     48 Sym. Ops., with inversion, found



   Cartesian axes

     site n.     atom                  positions (alat units)
         1           Si  tau(   1) = (   0.0000000   0.0000000   0.0000000  )
         2           Si  tau(   2) = (   0.2500000   0.2500000   0.2500000  )

     number of k points=  3456

     Number of k-points >= 100: set verbosity='high' to print them.

     Dense  grid:    17261 G-vectors     FFT dimensions: (  40,  40,  40)

     Smooth grid:     6183 G-vectors     FFT dimensions: (  25,  25,  25)

     Largest allocated arrays     est. size (Mb)     dimensions
        Kohn-Sham Wavefunctions         0.00 Mb     (      57,    4)
        NL pseudopotentials             0.03 Mb     (      57,   36)
        Each V/rho on FFT grid          0.07 Mb     (    4800)
        Each G-vector array             0.01 Mb     (    1079)
        G-vector shells                 0.00 Mb     (     204)
     Largest temporary arrays     est. size (Mb)     dimensions
        Auxiliary wavefunctions         0.01 Mb     (      57,   16)
        Each subspace H/S matrix        0.00 Mb     (       8,    8)
        Each <psi_i|beta_j> matrix      0.00 Mb     (      36,    4)

     The potential is recalculated from file :
     ./silicon/_ph0/silicon.10.340.save/charge-density.dat

     Starting wfc are    8 atomic wfcs

     Band Structure Calculation
     Davidson diagonalization with overlap

     ethr =  1.25E-10,  avg # of iterations = 12.3

     total cpu time spent up to now is      124.6 secs

     End of band structure calculation

     Number of k-points >= 100: set verbosity='high' to print the bands.

     highest occupied level (ev):     5.9211

     Writing output data file silicon.10.340.save

                                                                                

     bravais-lattice index     =            2
     lattice parameter (alat)  =      10.3400  a.u.
     unit-cell volume          =     276.3768 (a.u.)^3
     number of atoms/cell      =            2
     number of atomic types    =            1
     kinetic-energy cut-off    =      30.0000  Ry
     charge density cut-off    =     240.0000  Ry
     convergence threshold     =      1.0E-16
     beta                      =       0.7000
     number of iterations used =            4
     Exchange-correlation      = SLA  PW   PBE  PBE ( 1  4  3  4 0 0)


     celldm(1)=   10.34000  celldm(2)=    0.00000  celldm(3)=    0.00000
     celldm(4)=    0.00000  celldm(5)=    0.00000  celldm(6)=    0.00000

     crystal axes: (cart. coord. in units of alat)
               a(1) = ( -0.5000  0.0000  0.5000 )  
               a(2) = (  0.0000  0.5000  0.5000 )  
               a(3) = ( -0.5000  0.5000  0.0000 )  

     reciprocal axes: (cart. coord. in units 2 pi/alat)
               b(1) = ( -1.0000 -1.0000  1.0000 )  
               b(2) = (  1.0000  1.0000  1.0000 )  
               b(3) = ( -1.0000  1.0000 -1.0000 )  


     Atoms inside the unit cell: 

     Cartesian axes

     site n.  atom      mass           positions (alat units)
        1     Si  28.0860   tau(    1) = (    0.00000    0.00000    0.00000  )
        2     Si  28.0860   tau(    2) = (    0.25000    0.25000    0.25000  )

     Computing dynamical matrix for 
                    q = (  -0.3333333  -1.0000000   0.0000000 )
 
      4 Sym.Ops. (no q -> -q+G )


     G cutoff =  649.9689  (   1079 G-vectors)     FFT grid: ( 40, 40, 40)
     G cutoff =  324.9845  (    385 G-vectors)  smooth grid: ( 25, 25, 25)
     number of k points=  3456

     PseudoPot. # 1 for Si read from file:
     ./si_pbe_v1.uspp.F.UPF.txt
     MD5 check sum: a056efeee980c13900f22a371efd63c1
     Pseudo is Ultrasoft + core correction, Zval =  4.0
     Generated by new atomic code, or converted to UPF format
     Using radial grid of  899 points,  6 beta functions with: 
                l(1) =   0
                l(2) =   0
                l(3) =   1
                l(4) =   1
                l(5) =   2
                l(6) =   2
     Q(r) pseudized with  8 coefficients,  rinner =    0.900   0.900   0.900
                                                       0.900   0.900


     Atomic displacements:
     There are   3 irreducible representations

     Representation     1      2 modes -  To be done

     Representation     2      2 modes -  To be done

     Representation     3      2 modes -  To be done



     Alpha used in Ewald sum =   2.5000
     PHONON       : 20m 2.31s CPU    22m20.35s WALL



     Representation #  1 modes #   1  2

     Self-consistent Calculation

      iter #   1 total cpu time :  1341.6 secs   av.it.:   5.6
      thresh= 1.000E-02 alpha_mix =  0.700 |ddv_scf|^2 =  3.748E-07

      iter #   2 total cpu time :  1343.3 secs   av.it.:  12.0
      thresh= 6.122E-05 alpha_mix =  0.700 |ddv_scf|^2 =  2.005E-07

      iter #   3 total cpu time :  1345.0 secs   av.it.:  11.7
      thresh= 4.478E-05 alpha_mix =  0.700 |ddv_scf|^2 =  3.074E-09

      iter #   4 total cpu time :  1346.7 secs   av.it.:  11.6
      thresh= 5.544E-06 alpha_mix =  0.700 |ddv_scf|^2 =  3.727E-10

      iter #   5 total cpu time :  1348.5 secs   av.it.:  11.5
      thresh= 1.931E-06 alpha_mix =  0.700 |ddv_scf|^2 =  9.543E-13

      iter #   6 total cpu time :  1350.8 secs   av.it.:  11.9
      thresh= 9.769E-08 alpha_mix =  0.700 |ddv_scf|^2 =  3.328E-14

      iter #   7 total cpu time :  1352.4 secs   av.it.:  11.5
      thresh= 1.824E-08 alpha_mix =  0.700 |ddv_scf|^2 =  2.681E-15

      iter #   8 total cpu time :  1354.1 secs   av.it.:  11.5
      thresh= 5.178E-09 alpha_mix =  0.700 |ddv_scf|^2 =  2.542E-17

     End of self-consistent calculation

     Convergence has been achieved 


     Representation #  2 modes #   3  4

     Self-consistent Calculation

      iter #   1 total cpu time :  1355.7 secs   av.it.:   5.8
      thresh= 1.000E-02 alpha_mix =  0.700 |ddv_scf|^2 =  9.504E-07

      iter #   2 total cpu time :  1357.8 secs   av.it.:  12.0
      thresh= 9.749E-05 alpha_mix =  0.700 |ddv_scf|^2 =  1.178E-06

      iter #   3 total cpu time :  1359.7 secs   av.it.:  11.2
      thresh= 1.085E-04 alpha_mix =  0.700 |ddv_scf|^2 =  4.459E-09

      iter #   4 total cpu time :  1361.3 secs   av.it.:  11.7
      thresh= 6.678E-06 alpha_mix =  0.700 |ddv_scf|^2 =  1.848E-10

      iter #   5 total cpu time :  1363.2 secs   av.it.:  11.6
      thresh= 1.359E-06 alpha_mix =  0.700 |ddv_scf|^2 =  3.621E-13

      iter #   6 total cpu time :  1364.8 secs   av.it.:  11.4
      thresh= 6.017E-08 alpha_mix =  0.700 |ddv_scf|^2 =  1.995E-14

      iter #   7 total cpu time :  1377.0 secs   av.it.:  11.3
      thresh= 1.413E-08 alpha_mix =  0.700 |ddv_scf|^2 =  3.568E-16

      iter #   8 total cpu time :  1379.0 secs   av.it.:  11.9
      thresh= 1.889E-09 alpha_mix =  0.700 |ddv_scf|^2 =  1.152E-16

      iter #   9 total cpu time :  1380.9 secs   av.it.:  11.6
      thresh= 1.073E-09 alpha_mix =  0.700 |ddv_scf|^2 =  7.732E-18

     End of self-consistent calculation

     Convergence has been achieved 


     Representation #  3 modes #   5  6

     Self-consistent Calculation

      iter #   1 total cpu time :  1382.1 secs   av.it.:   5.3
      thresh= 1.000E-02 alpha_mix =  0.700 |ddv_scf|^2 =  3.402E-07

      iter #   2 total cpu time :  1383.7 secs   av.it.:  12.0
      thresh= 5.833E-05 alpha_mix =  0.700 |ddv_scf|^2 =  4.204E-07

      iter #   3 total cpu time :  1385.5 secs   av.it.:  11.3
      thresh= 6.484E-05 alpha_mix =  0.700 |ddv_scf|^2 =  2.066E-09

      iter #   4 total cpu time :  1387.1 secs   av.it.:  11.7
      thresh= 4.545E-06 alpha_mix =  0.700 |ddv_scf|^2 =  2.153E-10

      iter #   5 total cpu time :  1388.8 secs   av.it.:  11.6
      thresh= 1.467E-06 alpha_mix =  0.700 |ddv_scf|^2 =  1.702E-12

      iter #   6 total cpu time :  1392.4 secs   av.it.:  11.9
      thresh= 1.304E-07 alpha_mix =  0.700 |ddv_scf|^2 =  4.478E-14

      iter #   7 total cpu time :  1396.4 secs   av.it.:  11.6
      thresh= 2.116E-08 alpha_mix =  0.700 |ddv_scf|^2 =  2.610E-15

      iter #   8 total cpu time :  1398.0 secs   av.it.:  11.6
      thresh= 5.109E-09 alpha_mix =  0.700 |ddv_scf|^2 =  2.037E-17

     End of self-consistent calculation

     Convergence has been achieved 
 
     Number of q in the star =   12
     List of q in the star:
          1  -0.333333333  -1.000000000   0.000000000
          2   0.000000000  -1.000000000  -0.333333333
          3   0.000000000  -1.000000000   0.333333333
          4   0.333333333  -1.000000000   0.000000000
          5  -1.000000000   0.000000000  -0.333333333
          6   1.000000000   0.000000000   0.333333333
          7   0.000000000   0.333333333   1.000000000
          8   0.000000000  -0.333333333  -1.000000000
          9  -1.000000000  -0.333333333   0.000000000
         10   1.000000000   0.333333333   0.000000000
         11  -0.333333333   0.000000000   1.000000000
         12   0.333333333   0.000000000   1.000000000

     Diagonalizing the dynamical matrix

     q = (   -0.333333333  -1.000000000   0.000000000 ) 

 **************************************************************************
     freq (    1) =       5.622681 [THz] =     187.552438 [cm-1]
     freq (    2) =       5.622681 [THz] =     187.552438 [cm-1]
     freq (    3) =      10.710454 [THz] =     357.262273 [cm-1]
     freq (    4) =      10.710454 [THz] =     357.262273 [cm-1]
     freq (    5) =      13.509189 [THz] =     450.618044 [cm-1]
     freq (    6) =      13.509189 [THz] =     450.618044 [cm-1]
 **************************************************************************
 
     init_run     :      0.78s CPU      1.06s WALL (      15 calls)
     electrons    :     61.00s CPU     63.32s WALL (      15 calls)

     Called by init_run:
     wfcinit      :      0.00s CPU      0.15s WALL (      15 calls)
     potinit      :      0.15s CPU      0.25s WALL (      15 calls)

     Called by electrons:
     c_bands      :     60.99s CPU     63.31s WALL (      15 calls)
     v_of_rho     :      0.05s CPU      0.04s WALL (      16 calls)
     newd         :      0.06s CPU      0.07s WALL (      16 calls)

     Called by c_bands:
     init_us_2    :      1.92s CPU      2.02s WALL (   84982 calls)
     cegterg      :     17.81s CPU     18.29s WALL (    2692 calls)

     Called by sum_band:

     Called by *egterg:
     h_psi        :     13.60s CPU     14.15s WALL (   38976 calls)
     s_psi        :     22.16s CPU     23.74s WALL ( 1795882 calls)
     g_psi        :      0.08s CPU      0.08s WALL (   33592 calls)
     cdiaghg      :      3.02s CPU      2.98s WALL (   36284 calls)

     Called by h_psi:
     add_vuspsi   :     12.90s CPU     13.88s WALL (  879948 calls)

     General routines
     calbec       :     59.03s CPU     64.20s WALL ( 1932692 calls)
     fft          :      1.67s CPU      1.67s WALL (   15523 calls)
     ffts         :      1.77s CPU      1.83s WALL (   10514 calls)
     fftw         :    234.09s CPU    255.70s WALL ( 7870502 calls)
     interpolate  :      0.38s CPU      0.37s WALL (    1790 calls)
     davcio       :     14.21s CPU     21.75s WALL (  382275 calls)
 
     Parallel routines
     fft_scatter  :    134.07s CPU    146.53s WALL ( 7896539 calls)
 
     PHONON       : 20m56.68s CPU    23m18.37s WALL

     INITIALIZATION: 
     phq_setup    :      0.22s CPU      1.11s WALL (      16 calls)
     phq_init     :     29.99s CPU     30.90s WALL (      16 calls)
 
     phq_init     :     29.99s CPU     30.90s WALL (      16 calls)
     set_drhoc    :      0.58s CPU      0.60s WALL (      48 calls)
     init_vloc    :      0.01s CPU      0.02s WALL (      16 calls)
     init_us_1    :      0.44s CPU      0.44s WALL (      16 calls)
     newd         :      0.06s CPU      0.07s WALL (      16 calls)
     dvanqq       :      0.50s CPU      0.52s WALL (      16 calls)
     drho         :     17.67s CPU     18.00s WALL (      16 calls)
 
     DYNAMICAL MATRIX:
     dynmat0      :      2.23s CPU      2.47s WALL (      16 calls)
     phqscf       :   1118.97s CPU   1218.61s WALL (      16 calls)
     dynmatrix    :      2.82s CPU      3.40s WALL (      16 calls)
 
     phqscf       :   1118.97s CPU   1218.61s WALL (      16 calls)
     solve_linter :   1116.52s CPU   1210.81s WALL (      76 calls)
     drhodv       :      2.22s CPU      2.59s WALL (      76 calls)
 
     dynmat0      :      2.23s CPU      2.47s WALL (      16 calls)
     dynmat_us    :      1.74s CPU      1.81s WALL (      16 calls)
     d2ionq       :      0.00s CPU      0.01s WALL (      16 calls)
     dynmatcc     :      0.44s CPU      0.44s WALL (      16 calls)
 
     dynmat_us    :      1.74s CPU      1.81s WALL (      16 calls)
     addusdynmat  :      0.00s CPU      0.00s WALL (      16 calls)
 
     phqscf       :   1118.97s CPU   1218.61s WALL (      16 calls)
     solve_linter :   1116.52s CPU   1210.81s WALL (      76 calls)
 
     solve_linter :   1116.52s CPU   1210.81s WALL (      76 calls)
     dvqpsi_us    :      6.74s CPU      6.90s WALL (    8172 calls)
     ortho        :      5.43s CPU      5.98s WALL (   74938 calls)
     cgsolve      :    347.23s CPU    378.45s WALL (   74938 calls)
     incdrhoscf   :     24.92s CPU     26.71s WALL (   74938 calls)
     addusddens   :      3.54s CPU      3.62s WALL (     748 calls)
     vpsifft      :     16.65s CPU     18.73s WALL (   66622 calls)
     dv_of_drho   :      1.16s CPU      1.20s WALL (     833 calls)
     mix_pot      :      1.93s CPU     13.67s WALL (     679 calls)
     psymdvscf    :     14.79s CPU     14.83s WALL (     672 calls)
     newdq        :      3.61s CPU      3.64s WALL (     679 calls)
     adddvscf     :      1.38s CPU      1.49s WALL (   66766 calls)
     drhodvus     :      0.04s CPU      0.04s WALL (      76 calls)
 
     dvqpsi_us    :      6.74s CPU      6.90s WALL (    8172 calls)
     dvqpsi_us_on :      2.98s CPU      2.94s WALL (    8172 calls)
 
     cgsolve      :    347.23s CPU    378.45s WALL (   74938 calls)
     ch_psi       :    320.40s CPU    348.89s WALL (  840972 calls)
 
     ch_psi       :    320.40s CPU    348.89s WALL (  840972 calls)
     h_psiq       :    264.16s CPU    288.34s WALL (  840972 calls)
     last         :     53.38s CPU     57.56s WALL (  840972 calls)
 
     h_psiq       :    264.16s CPU    288.34s WALL (  840972 calls)
     firstfft     :    112.03s CPU    122.54s WALL ( 3159910 calls)
     secondfft    :     93.31s CPU    102.15s WALL ( 3159910 calls)
     add_vuspsi   :     12.90s CPU     13.88s WALL (  879948 calls)
 
     incdrhoscf   :     24.92s CPU     26.71s WALL (   74938 calls)
     addusdbec    :      3.08s CPU      3.47s WALL (   83062 calls)
 
     drhodvus     :      0.04s CPU      0.04s WALL (      76 calls)
 
      General routines
     calbec       :     59.03s CPU     64.20s WALL ( 1932692 calls)
     fft          :      1.67s CPU      1.67s WALL (   15523 calls)
     ffts         :      1.77s CPU      1.83s WALL (   10514 calls)
     fftw         :    234.09s CPU    255.70s WALL ( 7870502 calls)
     davcio       :     14.21s CPU     21.75s WALL (  382275 calls)
     write_rec    :      1.65s CPU     42.46s WALL (     755 calls)
 
 
     PHONON       : 20m56.68s CPU    23m18.37s WALL

 
   This run was terminated on:  14:44:40   7Apr2018            

=------------------------------------------------------------------------------=
   JOB DONE.
=------------------------------------------------------------------------------=
Application 30446101 resources: utime ~505394s, stime ~14887s, Rss ~33304, inblocks ~1102989997, outblocks ~521351200
