
     Program PHONON v.5.4.0 starts on  7Apr2018 at 15:53:55 

     This program is part of the open-source Quantum ESPRESSO suite
     for quantum simulation of materials; please cite
         "P. Giannozzi et al., J. Phys.:Condens. Matter 21 395502 (2009);
          URL http://www.quantum-espresso.org", 
     in publications or presentations arising from this work. More details at
     http://www.quantum-espresso.org/quote

     Parallel version (MPI & OpenMP), running on     384 processor cores
     Number of MPI processes:               384
     Threads/MPI process:                     1
     K-points division:     npool     =      24
     R & G space division:  proc/nbgrp/npool/nimage =      16

     Reading data from directory:
     ./silicon/silicon.10.388.save

   Info: using nr1, nr2, nr3 values from input

   Info: using nr1, nr2, nr3 values from input

     IMPORTANT: XC functional enforced from input :
     Exchange-correlation      = SLA  PW   PBE  PBE ( 1  4  3  4 0 0)
     Any further DFT definition will be discarded
     Please, verify this is what you really want

 
     Parallelization info
     --------------------
     sticks:   dense  smooth     PW     G-vecs:    dense   smooth      PW
     Min          55      27      9                 1097      380      76
     Max          56      28     10                 1100      398      79
     Sum         889     439    151                17573     6231    1243
 


     Dynamical matrices for ( 6, 6, 6)  uniform grid of q-points
     (  16q-points):
       N         xq(1)         xq(2)         xq(3) 
       1   0.000000000   0.000000000   0.000000000
       2  -0.166666667   0.166666667  -0.166666667
       3  -0.333333333   0.333333333  -0.333333333
       4   0.500000000  -0.500000000   0.500000000
       5   0.000000000   0.333333333   0.000000000
       6  -0.166666667   0.500000000  -0.166666667
       7   0.666666667  -0.333333333   0.666666667
       8   0.500000000  -0.166666667   0.500000000
       9   0.333333333   0.000000000   0.333333333
      10   0.000000000   0.666666667   0.000000000
      11   0.833333333  -0.166666667   0.833333333
      12   0.666666667  -0.000000000   0.666666667
      13   0.000000000  -1.000000000   0.000000000
      14   0.666666667  -0.333333333   1.000000000
      15   0.500000000  -0.166666667   0.833333333
      16  -0.333333333  -1.000000000   0.000000000

     Calculation of q =    0.0000000   0.0000000   0.0000000

                                                                                

     bravais-lattice index     =            2
     lattice parameter (alat)  =      10.3880  a.u.
     unit-cell volume          =     280.2437 (a.u.)^3
     number of atoms/cell      =            2
     number of atomic types    =            1
     kinetic-energy cut-off    =      30.0000  Ry
     charge density cut-off    =     240.0000  Ry
     convergence threshold     =      1.0E-16
     beta                      =       0.7000
     number of iterations used =            4
     Exchange-correlation      = SLA  PW   PBE  PBE ( 1  4  3  4 0 0)


     celldm(1)=   10.38800  celldm(2)=    0.00000  celldm(3)=    0.00000
     celldm(4)=    0.00000  celldm(5)=    0.00000  celldm(6)=    0.00000

     crystal axes: (cart. coord. in units of alat)
               a(1) = ( -0.5000  0.0000  0.5000 )  
               a(2) = (  0.0000  0.5000  0.5000 )  
               a(3) = ( -0.5000  0.5000  0.0000 )  

     reciprocal axes: (cart. coord. in units 2 pi/alat)
               b(1) = ( -1.0000 -1.0000  1.0000 )  
               b(2) = (  1.0000  1.0000  1.0000 )  
               b(3) = ( -1.0000  1.0000 -1.0000 )  


     Atoms inside the unit cell: 

     Cartesian axes

     site n.  atom      mass           positions (alat units)
        1     Si  28.0860   tau(    1) = (    0.00000    0.00000    0.00000  )
        2     Si  28.0860   tau(    2) = (    0.25000    0.25000    0.25000  )

     Computing dynamical matrix for 
                    q = (   0.0000000   0.0000000   0.0000000 )
 
     49 Sym.Ops. (with q -> -q+G )


     G cutoff =  656.0174  (   1100 G-vectors)     FFT grid: ( 40, 40, 40)
     G cutoff =  328.0087  (    396 G-vectors)  smooth grid: ( 25, 25, 25)
     number of k points=   182

     PseudoPot. # 1 for Si read from file:
     ./si_pbe_v1.uspp.F.UPF.txt
     MD5 check sum: a056efeee980c13900f22a371efd63c1
     Pseudo is Ultrasoft + core correction, Zval =  4.0
     Generated by new atomic code, or converted to UPF format
     Using radial grid of  899 points,  6 beta functions with: 
                l(1) =   0
                l(2) =   0
                l(3) =   1
                l(4) =   1
                l(5) =   2
                l(6) =   2
     Q(r) pseudized with  8 coefficients,  rinner =    0.900   0.900   0.900
                                                       0.900   0.900

     Mode symmetry, O_h (m-3m)  point group:


     Electric field:
     Dielectric constant
     Born effective charges in two ways 


     Atomic displacements:
     There are   2 irreducible representations

     Representation     1      3 modes -T_2g G_25' G_5+  To be done

     Representation     2      3 modes -T_1u G_15  G_4-  To be done



     Alpha used in Ewald sum =   2.5000
     PHONON       :     2.16s CPU         3.85s WALL


     Electric Fields Calculation

      iter #   1 total cpu time :     4.8 secs   av.it.:   6.5
      thresh= 1.000E-02 alpha_mix =  0.700 |ddv_scf|^2 =  6.782E-08

      iter #   2 total cpu time :     5.6 secs   av.it.:  12.2
      thresh= 2.604E-05 alpha_mix =  0.700 |ddv_scf|^2 =  3.983E-09

      iter #   3 total cpu time :     6.8 secs   av.it.:  12.1
      thresh= 6.311E-06 alpha_mix =  0.700 |ddv_scf|^2 =  2.613E-10

      iter #   4 total cpu time :     7.5 secs   av.it.:  11.4
      thresh= 1.616E-06 alpha_mix =  0.700 |ddv_scf|^2 =  1.765E-12

      iter #   5 total cpu time :     8.6 secs   av.it.:  11.6
      thresh= 1.328E-07 alpha_mix =  0.700 |ddv_scf|^2 =  1.681E-15

      iter #   6 total cpu time :    10.0 secs   av.it.:  11.3
      thresh= 4.100E-09 alpha_mix =  0.700 |ddv_scf|^2 =  1.104E-16

      iter #   7 total cpu time :    10.5 secs   av.it.:  11.8
      thresh= 1.051E-09 alpha_mix =  0.700 |ddv_scf|^2 =  1.793E-19

     End of electric fields calculation

          Dielectric constant in cartesian axis 

          (      13.055056519       0.000000000       0.000000000 )
          (       0.000000000      13.055056519      -0.000000000 )
          (       0.000000000      -0.000000000      13.055056519 )

          Effective charges (d Force / dE) in cartesian axis

           atom      1   Si 
      Ex  (        0.02052       -0.00000       -0.00000 )
      Ey  (       -0.00000        0.02052        0.00000 )
      Ez  (       -0.00000        0.00000        0.02052 )
           atom      2   Si 
      Ex  (        0.02052        0.00000        0.00000 )
      Ey  (        0.00000        0.02052       -0.00000 )
      Ez  (        0.00000       -0.00000        0.02052 )


     Representation #  1 modes #   1  2  3

     Self-consistent Calculation

      iter #   1 total cpu time :    12.7 secs   av.it.:   5.1
      thresh= 1.000E-02 alpha_mix =  0.700 |ddv_scf|^2 =  1.186E-08

      iter #   2 total cpu time :    14.0 secs   av.it.:  12.0
      thresh= 1.089E-05 alpha_mix =  0.700 |ddv_scf|^2 =  4.844E-10

      iter #   3 total cpu time :    14.6 secs   av.it.:  11.8
      thresh= 2.201E-06 alpha_mix =  0.700 |ddv_scf|^2 =  3.291E-11

      iter #   4 total cpu time :    15.4 secs   av.it.:  11.0
      thresh= 5.736E-07 alpha_mix =  0.700 |ddv_scf|^2 =  8.308E-14

      iter #   5 total cpu time :    16.6 secs   av.it.:  11.9
      thresh= 2.882E-08 alpha_mix =  0.700 |ddv_scf|^2 =  7.091E-16

      iter #   6 total cpu time :    17.8 secs   av.it.:  11.8
      thresh= 2.663E-09 alpha_mix =  0.700 |ddv_scf|^2 =  1.241E-17

     End of self-consistent calculation

     Convergence has been achieved 


     Representation #  2 modes #   4  5  6

     Self-consistent Calculation

      iter #   1 total cpu time :    19.9 secs   av.it.:   5.1
      thresh= 1.000E-02 alpha_mix =  0.700 |ddv_scf|^2 =  9.353E-09

      iter #   2 total cpu time :    21.0 secs   av.it.:  12.0
      thresh= 9.671E-06 alpha_mix =  0.700 |ddv_scf|^2 =  5.492E-10

      iter #   3 total cpu time :    21.6 secs   av.it.:  11.8
      thresh= 2.344E-06 alpha_mix =  0.700 |ddv_scf|^2 =  3.417E-11

      iter #   4 total cpu time :    22.2 secs   av.it.:  11.8
      thresh= 5.845E-07 alpha_mix =  0.700 |ddv_scf|^2 =  1.354E-13

      iter #   5 total cpu time :    23.1 secs   av.it.:  11.7
      thresh= 3.680E-08 alpha_mix =  0.700 |ddv_scf|^2 =  3.593E-16

      iter #   6 total cpu time :    23.8 secs   av.it.:  12.0
      thresh= 1.896E-09 alpha_mix =  0.700 |ddv_scf|^2 =  3.017E-17

     End of self-consistent calculation

     Convergence has been achieved 
 
     Number of q in the star =    1
     List of q in the star:
          1   0.000000000   0.000000000   0.000000000

          Dielectric constant in cartesian axis 

          (      13.055056519       0.000000000       0.000000000 )
          (       0.000000000      13.055056519      -0.000000000 )
          (       0.000000000      -0.000000000      13.055056519 )

          Effective charges (d Force / dE) in cartesian axis

           atom      1   Si 
      Ex  (        0.02052       -0.00000       -0.00000 )
      Ey  (       -0.00000        0.02052        0.00000 )
      Ez  (       -0.00000        0.00000        0.02052 )
           atom      2   Si 
      Ex  (        0.02052        0.00000        0.00000 )
      Ey  (        0.00000        0.02052       -0.00000 )
      Ez  (        0.00000       -0.00000        0.02052 )

          Effective charges (d P / du) in cartesian axis 

           atom      1   Si 
      Px  (       -0.00050        0.00000        0.00000 )
      Py  (        0.00000       -0.00050        0.00000 )
      Pz  (        0.00000        0.00000       -0.00050 )
           atom      2   Si 
      Px  (       -0.00050       -0.00000       -0.00000 )
      Py  (       -0.00000       -0.00050        0.00000 )
      Pz  (       -0.00000        0.00000       -0.00050 )

     Diagonalizing the dynamical matrix

     q = (    0.000000000   0.000000000   0.000000000 ) 

 **************************************************************************
     freq (    1) =      -0.123307 [THz] =      -4.113086 [cm-1]
     freq (    2) =      -0.123307 [THz] =      -4.113086 [cm-1]
     freq (    3) =      -0.123307 [THz] =      -4.113086 [cm-1]
     freq (    4) =      14.847129 [THz] =     495.246931 [cm-1]
     freq (    5) =      14.847129 [THz] =     495.246931 [cm-1]
     freq (    6) =      14.847129 [THz] =     495.246931 [cm-1]
 **************************************************************************

     Mode symmetry, O_h (m-3m)  point group:

     freq (  1 -  3) =         -4.1  [cm-1]   --> T_1u G_15  G_4- I  
     freq (  4 -  6) =        495.2  [cm-1]   --> T_2g G_25' G_5+ R  

     Calculation of q =   -0.1666667   0.1666667  -0.1666667
 
     Parallelization info
     --------------------
     sticks:   dense  smooth     PW     G-vecs:    dense   smooth      PW
     Min          55      27     10                 1097      378      84
     Max          56      28     11                 1100      396      86
     Sum         889     439    163                17573     6231    1363
 


     bravais-lattice index     =            2
     lattice parameter (alat)  =      10.3880  a.u.
     unit-cell volume          =     280.2437 (a.u.)^3
     number of atoms/cell      =            2
     number of atomic types    =            1
     number of electrons       =         8.00
     number of Kohn-Sham states=            4
     kinetic-energy cutoff     =      30.0000  Ry
     charge density cutoff     =     240.0000  Ry
     Exchange-correlation      = SLA  PW   PBE  PBE ( 1  4  3  4 0 0)

     celldm(1)=  10.388000  celldm(2)=   0.000000  celldm(3)=   0.000000
     celldm(4)=   0.000000  celldm(5)=   0.000000  celldm(6)=   0.000000

     crystal axes: (cart. coord. in units of alat)
               a(1) = (  -0.500000   0.000000   0.500000 )  
               a(2) = (   0.000000   0.500000   0.500000 )  
               a(3) = (  -0.500000   0.500000   0.000000 )  

     reciprocal axes: (cart. coord. in units 2 pi/alat)
               b(1) = ( -1.000000 -1.000000  1.000000 )  
               b(2) = (  1.000000  1.000000  1.000000 )  
               b(3) = ( -1.000000  1.000000 -1.000000 )  


     PseudoPot. # 1 for Si read from file:
     ./si_pbe_v1.uspp.F.UPF.txt
     MD5 check sum: a056efeee980c13900f22a371efd63c1
     Pseudo is Ultrasoft + core correction, Zval =  4.0
     Generated by new atomic code, or converted to UPF format
     Using radial grid of  899 points,  6 beta functions with: 
                l(1) =   0
                l(2) =   0
                l(3) =   1
                l(4) =   1
                l(5) =   2
                l(6) =   2
     Q(r) pseudized with  8 coefficients,  rinner =    0.900   0.900   0.900
                                                       0.900   0.900

     atomic species   valence    mass     pseudopotential
        Si             4.00    28.08600     Si( 1.00)

     48 Sym. Ops., with inversion, found



   Cartesian axes

     site n.     atom                  positions (alat units)
         1           Si  tau(   1) = (   0.0000000   0.0000000   0.0000000  )
         2           Si  tau(   2) = (   0.2500000   0.2500000   0.2500000  )

     number of k points=  2600

     Number of k-points >= 100: set verbosity='high' to print them.

     Dense  grid:    17573 G-vectors     FFT dimensions: (  40,  40,  40)

     Smooth grid:     6231 G-vectors     FFT dimensions: (  25,  25,  25)

     Largest allocated arrays     est. size (Mb)     dimensions
        Kohn-Sham Wavefunctions         0.00 Mb     (      55,    4)
        NL pseudopotentials             0.03 Mb     (      55,   36)
        Each V/rho on FFT grid          0.07 Mb     (    4800)
        Each G-vector array             0.01 Mb     (    1100)
        G-vector shells                 0.00 Mb     (     210)
     Largest temporary arrays     est. size (Mb)     dimensions
        Auxiliary wavefunctions         0.01 Mb     (      55,   16)
        Each subspace H/S matrix        0.00 Mb     (       8,    8)
        Each <psi_i|beta_j> matrix      0.00 Mb     (      36,    4)

     The potential is recalculated from file :
     ./silicon/_ph0/silicon.10.388.save/charge-density.dat

     Starting wfc are    8 atomic wfcs

     Band Structure Calculation
     Davidson diagonalization with overlap

     ethr =  1.25E-10,  avg # of iterations = 12.4

     total cpu time spent up to now is        1.9 secs

     End of band structure calculation

     Number of k-points >= 100: set verbosity='high' to print the bands.

     highest occupied level (ev):     5.7805

     Writing output data file silicon.10.388.save

                                                                                

     bravais-lattice index     =            2
     lattice parameter (alat)  =      10.3880  a.u.
     unit-cell volume          =     280.2437 (a.u.)^3
     number of atoms/cell      =            2
     number of atomic types    =            1
     kinetic-energy cut-off    =      30.0000  Ry
     charge density cut-off    =     240.0000  Ry
     convergence threshold     =      1.0E-16
     beta                      =       0.7000
     number of iterations used =            4
     Exchange-correlation      = SLA  PW   PBE  PBE ( 1  4  3  4 0 0)


     celldm(1)=   10.38800  celldm(2)=    0.00000  celldm(3)=    0.00000
     celldm(4)=    0.00000  celldm(5)=    0.00000  celldm(6)=    0.00000

     crystal axes: (cart. coord. in units of alat)
               a(1) = ( -0.5000  0.0000  0.5000 )  
               a(2) = (  0.0000  0.5000  0.5000 )  
               a(3) = ( -0.5000  0.5000  0.0000 )  

     reciprocal axes: (cart. coord. in units 2 pi/alat)
               b(1) = ( -1.0000 -1.0000  1.0000 )  
               b(2) = (  1.0000  1.0000  1.0000 )  
               b(3) = ( -1.0000  1.0000 -1.0000 )  


     Atoms inside the unit cell: 

     Cartesian axes

     site n.  atom      mass           positions (alat units)
        1     Si  28.0860   tau(    1) = (    0.00000    0.00000    0.00000  )
        2     Si  28.0860   tau(    2) = (    0.25000    0.25000    0.25000  )

     Computing dynamical matrix for 
                    q = (  -0.1666667   0.1666667  -0.1666667 )
 
      6 Sym.Ops. (no q -> -q+G )


     G cutoff =  656.0174  (   1100 G-vectors)     FFT grid: ( 40, 40, 40)
     G cutoff =  328.0087  (    395 G-vectors)  smooth grid: ( 25, 25, 25)
     number of k points=  2600

     PseudoPot. # 1 for Si read from file:
     ./si_pbe_v1.uspp.F.UPF.txt
     MD5 check sum: a056efeee980c13900f22a371efd63c1
     Pseudo is Ultrasoft + core correction, Zval =  4.0
     Generated by new atomic code, or converted to UPF format
     Using radial grid of  899 points,  6 beta functions with: 
                l(1) =   0
                l(2) =   0
                l(3) =   1
                l(4) =   1
                l(5) =   2
                l(6) =   2
     Q(r) pseudized with  8 coefficients,  rinner =    0.900   0.900   0.900
                                                       0.900   0.900

     Mode symmetry, C_3v (3m)   point group:


     Atomic displacements:
     There are   4 irreducible representations

     Representation     1      1 modes -A_1  L_1  To be done

     Representation     2      1 modes -A_1  L_1  To be done

     Representation     3      2 modes -E    L_3  To be done

     Representation     4      2 modes -E    L_3  To be done



     Alpha used in Ewald sum =   2.5000
     PHONON       :    29.61s CPU        35.28s WALL



     Representation #  1 mode #   1

     Self-consistent Calculation

      iter #   1 total cpu time :    36.4 secs   av.it.:   6.1
      thresh= 1.000E-02 alpha_mix =  0.700 |ddv_scf|^2 =  9.642E-04

      iter #   2 total cpu time :    37.2 secs   av.it.:   9.2
      thresh= 3.105E-03 alpha_mix =  0.700 |ddv_scf|^2 =  3.020E-02

      iter #   3 total cpu time :    38.2 secs   av.it.:   7.2
      thresh= 1.000E-02 alpha_mix =  0.700 |ddv_scf|^2 =  3.076E-07

      iter #   4 total cpu time :    39.0 secs   av.it.:   9.8
      thresh= 5.546E-05 alpha_mix =  0.700 |ddv_scf|^2 =  5.843E-09

      iter #   5 total cpu time :    40.6 secs   av.it.:  10.6
      thresh= 7.644E-06 alpha_mix =  0.700 |ddv_scf|^2 =  8.283E-10

      iter #   6 total cpu time :    41.8 secs   av.it.:   9.6
      thresh= 2.878E-06 alpha_mix =  0.700 |ddv_scf|^2 =  4.582E-10

      iter #   7 total cpu time :    42.3 secs   av.it.:   7.1
      thresh= 2.141E-06 alpha_mix =  0.700 |ddv_scf|^2 =  5.968E-11

      iter #   8 total cpu time :    43.8 secs   av.it.:   9.2
      thresh= 7.726E-07 alpha_mix =  0.700 |ddv_scf|^2 =  1.083E-12

      iter #   9 total cpu time :    44.2 secs   av.it.:   8.3
      thresh= 1.041E-07 alpha_mix =  0.700 |ddv_scf|^2 =  4.112E-14

      iter #  10 total cpu time :    45.2 secs   av.it.:   9.0
      thresh= 2.028E-08 alpha_mix =  0.700 |ddv_scf|^2 =  9.478E-15

      iter #  11 total cpu time :    45.8 secs   av.it.:   9.3
      thresh= 9.736E-09 alpha_mix =  0.700 |ddv_scf|^2 =  4.414E-16

      iter #  12 total cpu time :    47.0 secs   av.it.:   9.8
      thresh= 2.101E-09 alpha_mix =  0.700 |ddv_scf|^2 =  2.270E-17

     End of self-consistent calculation

     Convergence has been achieved 


     Representation #  2 mode #   2

     Self-consistent Calculation

      iter #   1 total cpu time :    49.9 secs   av.it.:   6.1
      thresh= 1.000E-02 alpha_mix =  0.700 |ddv_scf|^2 =  9.642E-04

      iter #   2 total cpu time :    50.5 secs   av.it.:   9.2
      thresh= 3.105E-03 alpha_mix =  0.700 |ddv_scf|^2 =  3.020E-02

      iter #   3 total cpu time :    51.1 secs   av.it.:   7.2
      thresh= 1.000E-02 alpha_mix =  0.700 |ddv_scf|^2 =  3.076E-07

      iter #   4 total cpu time :    51.6 secs   av.it.:   9.8
      thresh= 5.546E-05 alpha_mix =  0.700 |ddv_scf|^2 =  5.843E-09

      iter #   5 total cpu time :    52.9 secs   av.it.:  10.6
      thresh= 7.644E-06 alpha_mix =  0.700 |ddv_scf|^2 =  8.283E-10

      iter #   6 total cpu time :    53.9 secs   av.it.:   9.6
      thresh= 2.878E-06 alpha_mix =  0.700 |ddv_scf|^2 =  4.582E-10

      iter #   7 total cpu time :    55.3 secs   av.it.:   7.1
      thresh= 2.141E-06 alpha_mix =  0.700 |ddv_scf|^2 =  5.968E-11

      iter #   8 total cpu time :    56.2 secs   av.it.:   9.2
      thresh= 7.726E-07 alpha_mix =  0.700 |ddv_scf|^2 =  1.083E-12

      iter #   9 total cpu time :    56.7 secs   av.it.:   8.3
      thresh= 1.041E-07 alpha_mix =  0.700 |ddv_scf|^2 =  4.112E-14

      iter #  10 total cpu time :    58.1 secs   av.it.:   9.0
      thresh= 2.028E-08 alpha_mix =  0.700 |ddv_scf|^2 =  9.478E-15

      iter #  11 total cpu time :    58.7 secs   av.it.:   9.3
      thresh= 9.736E-09 alpha_mix =  0.700 |ddv_scf|^2 =  4.414E-16

      iter #  12 total cpu time :    59.7 secs   av.it.:   9.8
      thresh= 2.101E-09 alpha_mix =  0.700 |ddv_scf|^2 =  2.270E-17

     End of self-consistent calculation

     Convergence has been achieved 


     Representation #  3 modes #   3  4

     Self-consistent Calculation

      iter #   1 total cpu time :    61.5 secs   av.it.:   5.3
      thresh= 1.000E-02 alpha_mix =  0.700 |ddv_scf|^2 =  2.879E-08

      iter #   2 total cpu time :    71.1 secs   av.it.:  11.8
      thresh= 1.697E-05 alpha_mix =  0.700 |ddv_scf|^2 =  1.625E-09

      iter #   3 total cpu time :    72.6 secs   av.it.:  11.6
      thresh= 4.031E-06 alpha_mix =  0.700 |ddv_scf|^2 =  9.844E-11

      iter #   4 total cpu time :    74.0 secs   av.it.:  11.3
      thresh= 9.922E-07 alpha_mix =  0.700 |ddv_scf|^2 =  4.329E-13

      iter #   5 total cpu time :    78.0 secs   av.it.:  11.7
      thresh= 6.579E-08 alpha_mix =  0.700 |ddv_scf|^2 =  2.835E-14

      iter #   6 total cpu time :    79.5 secs   av.it.:  11.6
      thresh= 1.684E-08 alpha_mix =  0.700 |ddv_scf|^2 =  1.689E-16

      iter #   7 total cpu time :    81.0 secs   av.it.:  11.0
      thresh= 1.300E-09 alpha_mix =  0.700 |ddv_scf|^2 =  1.441E-17

     End of self-consistent calculation

     Convergence has been achieved 


     Representation #  4 modes #   5  6

     Self-consistent Calculation

      iter #   1 total cpu time :    84.7 secs   av.it.:   5.3
      thresh= 1.000E-02 alpha_mix =  0.700 |ddv_scf|^2 =  2.879E-08

      iter #   2 total cpu time :    86.1 secs   av.it.:  12.0
      thresh= 1.697E-05 alpha_mix =  0.700 |ddv_scf|^2 =  1.625E-09

      iter #   3 total cpu time :    87.3 secs   av.it.:  11.9
      thresh= 4.032E-06 alpha_mix =  0.700 |ddv_scf|^2 =  9.844E-11

      iter #   4 total cpu time :    88.5 secs   av.it.:  11.6
      thresh= 9.921E-07 alpha_mix =  0.700 |ddv_scf|^2 =  4.327E-13

      iter #   5 total cpu time :    90.3 secs   av.it.:  11.9
      thresh= 6.578E-08 alpha_mix =  0.700 |ddv_scf|^2 =  2.832E-14

      iter #   6 total cpu time :    92.1 secs   av.it.:  11.8
      thresh= 1.683E-08 alpha_mix =  0.700 |ddv_scf|^2 =  1.686E-16

      iter #   7 total cpu time :    93.8 secs   av.it.:  11.1
      thresh= 1.298E-09 alpha_mix =  0.700 |ddv_scf|^2 =  1.438E-17

     End of self-consistent calculation

     Convergence has been achieved 
 
     Number of q in the star =    8
     List of q in the star:
          1  -0.166666667   0.166666667  -0.166666667
          2   0.166666667   0.166666667   0.166666667
          3  -0.166666667  -0.166666667  -0.166666667
          4   0.166666667  -0.166666667   0.166666667
          5   0.166666667  -0.166666667  -0.166666667
          6   0.166666667   0.166666667  -0.166666667
          7  -0.166666667  -0.166666667   0.166666667
          8  -0.166666667   0.166666667   0.166666667

     Diagonalizing the dynamical matrix

     q = (   -0.166666667   0.166666667  -0.166666667 ) 

 **************************************************************************
     freq (    1) =       2.235229 [THz] =      74.559216 [cm-1]
     freq (    2) =       2.235229 [THz] =      74.559216 [cm-1]
     freq (    3) =       4.571597 [THz] =     152.492069 [cm-1]
     freq (    4) =      14.467363 [THz] =     482.579298 [cm-1]
     freq (    5) =      14.470583 [THz] =     482.686689 [cm-1]
     freq (    6) =      14.470583 [THz] =     482.686689 [cm-1]
 **************************************************************************

     Mode symmetry, C_3v (3m)   point group:

     freq (  1 -  2) =         74.6  [cm-1]   --> E    L_3           
     freq (  3 -  3) =        152.5  [cm-1]   --> A_1  L_1           
     freq (  4 -  4) =        482.6  [cm-1]   --> A_1  L_1           
     freq (  5 -  6) =        482.7  [cm-1]   --> E    L_3           

     Calculation of q =   -0.3333333   0.3333333  -0.3333333
 
     Parallelization info
     --------------------
     sticks:   dense  smooth     PW     G-vecs:    dense   smooth      PW
     Min          55      27     10                 1097      381      90
     Max          56      28     11                 1100      397      94
     Sum         889     439    163                17573     6231    1459
 


     bravais-lattice index     =            2
     lattice parameter (alat)  =      10.3880  a.u.
     unit-cell volume          =     280.2437 (a.u.)^3
     number of atoms/cell      =            2
     number of atomic types    =            1
     number of electrons       =         8.00
     number of Kohn-Sham states=            4
     kinetic-energy cutoff     =      30.0000  Ry
     charge density cutoff     =     240.0000  Ry
     Exchange-correlation      = SLA  PW   PBE  PBE ( 1  4  3  4 0 0)

     celldm(1)=  10.388000  celldm(2)=   0.000000  celldm(3)=   0.000000
     celldm(4)=   0.000000  celldm(5)=   0.000000  celldm(6)=   0.000000

     crystal axes: (cart. coord. in units of alat)
               a(1) = (  -0.500000   0.000000   0.500000 )  
               a(2) = (   0.000000   0.500000   0.500000 )  
               a(3) = (  -0.500000   0.500000   0.000000 )  

     reciprocal axes: (cart. coord. in units 2 pi/alat)
               b(1) = ( -1.000000 -1.000000  1.000000 )  
               b(2) = (  1.000000  1.000000  1.000000 )  
               b(3) = ( -1.000000  1.000000 -1.000000 )  


     PseudoPot. # 1 for Si read from file:
     ./si_pbe_v1.uspp.F.UPF.txt
     MD5 check sum: a056efeee980c13900f22a371efd63c1
     Pseudo is Ultrasoft + core correction, Zval =  4.0
     Generated by new atomic code, or converted to UPF format
     Using radial grid of  899 points,  6 beta functions with: 
                l(1) =   0
                l(2) =   0
                l(3) =   1
                l(4) =   1
                l(5) =   2
                l(6) =   2
     Q(r) pseudized with  8 coefficients,  rinner =    0.900   0.900   0.900
                                                       0.900   0.900

     atomic species   valence    mass     pseudopotential
        Si             4.00    28.08600     Si( 1.00)

     48 Sym. Ops., with inversion, found



   Cartesian axes

     site n.     atom                  positions (alat units)
         1           Si  tau(   1) = (   0.0000000   0.0000000   0.0000000  )
         2           Si  tau(   2) = (   0.2500000   0.2500000   0.2500000  )

     number of k points=  2600

     Number of k-points >= 100: set verbosity='high' to print them.

     Dense  grid:    17573 G-vectors     FFT dimensions: (  40,  40,  40)

     Smooth grid:     6231 G-vectors     FFT dimensions: (  25,  25,  25)

     Largest allocated arrays     est. size (Mb)     dimensions
        Kohn-Sham Wavefunctions         0.00 Mb     (      61,    4)
        NL pseudopotentials             0.03 Mb     (      61,   36)
        Each V/rho on FFT grid          0.07 Mb     (    4800)
        Each G-vector array             0.01 Mb     (    1100)
        G-vector shells                 0.00 Mb     (     213)
     Largest temporary arrays     est. size (Mb)     dimensions
        Auxiliary wavefunctions         0.01 Mb     (      61,   16)
        Each subspace H/S matrix        0.00 Mb     (       8,    8)
        Each <psi_i|beta_j> matrix      0.00 Mb     (      36,    4)

     The potential is recalculated from file :
     ./silicon/_ph0/silicon.10.388.save/charge-density.dat

     Starting wfc are    8 atomic wfcs

     Band Structure Calculation
     Davidson diagonalization with overlap

     ethr =  1.25E-10,  avg # of iterations = 12.4

     total cpu time spent up to now is        6.6 secs

     End of band structure calculation

     Number of k-points >= 100: set verbosity='high' to print the bands.

     highest occupied level (ev):     5.7805

     Writing output data file silicon.10.388.save

                                                                                

     bravais-lattice index     =            2
     lattice parameter (alat)  =      10.3880  a.u.
     unit-cell volume          =     280.2437 (a.u.)^3
     number of atoms/cell      =            2
     number of atomic types    =            1
     kinetic-energy cut-off    =      30.0000  Ry
     charge density cut-off    =     240.0000  Ry
     convergence threshold     =      1.0E-16
     beta                      =       0.7000
     number of iterations used =            4
     Exchange-correlation      = SLA  PW   PBE  PBE ( 1  4  3  4 0 0)


     celldm(1)=   10.38800  celldm(2)=    0.00000  celldm(3)=    0.00000
     celldm(4)=    0.00000  celldm(5)=    0.00000  celldm(6)=    0.00000

     crystal axes: (cart. coord. in units of alat)
               a(1) = ( -0.5000  0.0000  0.5000 )  
               a(2) = (  0.0000  0.5000  0.5000 )  
               a(3) = ( -0.5000  0.5000  0.0000 )  

     reciprocal axes: (cart. coord. in units 2 pi/alat)
               b(1) = ( -1.0000 -1.0000  1.0000 )  
               b(2) = (  1.0000  1.0000  1.0000 )  
               b(3) = ( -1.0000  1.0000 -1.0000 )  


     Atoms inside the unit cell: 

     Cartesian axes

     site n.  atom      mass           positions (alat units)
        1     Si  28.0860   tau(    1) = (    0.00000    0.00000    0.00000  )
        2     Si  28.0860   tau(    2) = (    0.25000    0.25000    0.25000  )

     Computing dynamical matrix for 
                    q = (  -0.3333333   0.3333333  -0.3333333 )
 
      6 Sym.Ops. (no q -> -q+G )


     G cutoff =  656.0174  (   1100 G-vectors)     FFT grid: ( 40, 40, 40)
     G cutoff =  328.0087  (    385 G-vectors)  smooth grid: ( 25, 25, 25)
     number of k points=  2600

     PseudoPot. # 1 for Si read from file:
     ./si_pbe_v1.uspp.F.UPF.txt
     MD5 check sum: a056efeee980c13900f22a371efd63c1
     Pseudo is Ultrasoft + core correction, Zval =  4.0
     Generated by new atomic code, or converted to UPF format
     Using radial grid of  899 points,  6 beta functions with: 
                l(1) =   0
                l(2) =   0
                l(3) =   1
                l(4) =   1
                l(5) =   2
                l(6) =   2
     Q(r) pseudized with  8 coefficients,  rinner =    0.900   0.900   0.900
                                                       0.900   0.900

     Mode symmetry, C_3v (3m)   point group:


     Atomic displacements:
     There are   4 irreducible representations

     Representation     1      1 modes -A_1  L_1  To be done

     Representation     2      1 modes -A_1  L_1  To be done

     Representation     3      2 modes -E    L_3  To be done

     Representation     4      2 modes -E    L_3  To be done



     Alpha used in Ewald sum =   2.5000
     PHONON       :  1m39.11s CPU     1m51.82s WALL



     Representation #  1 mode #   1

     Self-consistent Calculation

      iter #   1 total cpu time :   112.9 secs   av.it.:   6.0
      thresh= 1.000E-02 alpha_mix =  0.700 |ddv_scf|^2 =  6.156E-05

      iter #   2 total cpu time :   113.9 secs   av.it.:  10.2
      thresh= 7.846E-04 alpha_mix =  0.700 |ddv_scf|^2 =  4.755E-04

      iter #   3 total cpu time :   115.3 secs   av.it.:   8.4
      thresh= 2.180E-03 alpha_mix =  0.700 |ddv_scf|^2 =  9.648E-08

      iter #   4 total cpu time :   115.9 secs   av.it.:  10.6
      thresh= 3.106E-05 alpha_mix =  0.700 |ddv_scf|^2 =  2.324E-09

      iter #   5 total cpu time :   117.3 secs   av.it.:  10.7
      thresh= 4.821E-06 alpha_mix =  0.700 |ddv_scf|^2 =  6.307E-11

      iter #   6 total cpu time :   118.2 secs   av.it.:  10.9
      thresh= 7.941E-07 alpha_mix =  0.700 |ddv_scf|^2 =  3.898E-12

      iter #   7 total cpu time :   119.9 secs   av.it.:  11.0
      thresh= 1.974E-07 alpha_mix =  0.700 |ddv_scf|^2 =  4.330E-12

      iter #   8 total cpu time :   120.4 secs   av.it.:   8.7
      thresh= 2.081E-07 alpha_mix =  0.700 |ddv_scf|^2 =  1.448E-13

      iter #   9 total cpu time :   121.0 secs   av.it.:  10.1
      thresh= 3.806E-08 alpha_mix =  0.700 |ddv_scf|^2 =  2.687E-13

      iter #  10 total cpu time :   121.5 secs   av.it.:   9.2
      thresh= 5.184E-08 alpha_mix =  0.700 |ddv_scf|^2 =  1.877E-15

      iter #  11 total cpu time :   123.0 secs   av.it.:  10.4
      thresh= 4.332E-09 alpha_mix =  0.700 |ddv_scf|^2 =  3.577E-16

      iter #  12 total cpu time :   124.6 secs   av.it.:  10.0
      thresh= 1.891E-09 alpha_mix =  0.700 |ddv_scf|^2 =  9.438E-18

     End of self-consistent calculation

     Convergence has been achieved 


     Representation #  2 mode #   2

     Self-consistent Calculation

      iter #   1 total cpu time :   126.9 secs   av.it.:   6.0
      thresh= 1.000E-02 alpha_mix =  0.700 |ddv_scf|^2 =  6.156E-05

      iter #   2 total cpu time :   128.6 secs   av.it.:  10.2
      thresh= 7.846E-04 alpha_mix =  0.700 |ddv_scf|^2 =  4.755E-04

      iter #   3 total cpu time :   130.1 secs   av.it.:   8.4
      thresh= 2.180E-03 alpha_mix =  0.700 |ddv_scf|^2 =  9.648E-08

      iter #   4 total cpu time :   131.8 secs   av.it.:  10.6
      thresh= 3.106E-05 alpha_mix =  0.700 |ddv_scf|^2 =  2.324E-09

      iter #   5 total cpu time :   133.0 secs   av.it.:  10.7
      thresh= 4.821E-06 alpha_mix =  0.700 |ddv_scf|^2 =  6.307E-11

      iter #   6 total cpu time :   133.8 secs   av.it.:  10.9
      thresh= 7.941E-07 alpha_mix =  0.700 |ddv_scf|^2 =  3.898E-12

      iter #   7 total cpu time :   135.2 secs   av.it.:  11.0
      thresh= 1.974E-07 alpha_mix =  0.700 |ddv_scf|^2 =  4.330E-12

      iter #   8 total cpu time :   138.3 secs   av.it.:   8.7
      thresh= 2.081E-07 alpha_mix =  0.700 |ddv_scf|^2 =  1.448E-13

      iter #   9 total cpu time :   139.2 secs   av.it.:  10.1
      thresh= 3.806E-08 alpha_mix =  0.700 |ddv_scf|^2 =  2.687E-13

      iter #  10 total cpu time :   140.2 secs   av.it.:   9.2
      thresh= 5.184E-08 alpha_mix =  0.700 |ddv_scf|^2 =  1.877E-15

      iter #  11 total cpu time :   140.8 secs   av.it.:  10.4
      thresh= 4.332E-09 alpha_mix =  0.700 |ddv_scf|^2 =  3.577E-16

      iter #  12 total cpu time :   146.1 secs   av.it.:  10.0
      thresh= 1.891E-09 alpha_mix =  0.700 |ddv_scf|^2 =  9.438E-18

     End of self-consistent calculation

     Convergence has been achieved 


     Representation #  3 modes #   3  4

     Self-consistent Calculation

      iter #   1 total cpu time :   159.6 secs   av.it.:   5.2
      thresh= 1.000E-02 alpha_mix =  0.700 |ddv_scf|^2 =  3.750E-08

      iter #   2 total cpu time :   173.9 secs   av.it.:  11.8
      thresh= 1.936E-05 alpha_mix =  0.700 |ddv_scf|^2 =  2.668E-09

      iter #   3 total cpu time :   175.1 secs   av.it.:  11.6
      thresh= 5.165E-06 alpha_mix =  0.700 |ddv_scf|^2 =  1.225E-10

      iter #   4 total cpu time :   176.3 secs   av.it.:  11.3
      thresh= 1.107E-06 alpha_mix =  0.700 |ddv_scf|^2 =  4.466E-13

      iter #   5 total cpu time :   178.0 secs   av.it.:  11.6
      thresh= 6.683E-08 alpha_mix =  0.700 |ddv_scf|^2 =  2.883E-14

      iter #   6 total cpu time :   179.8 secs   av.it.:  11.4
      thresh= 1.698E-08 alpha_mix =  0.700 |ddv_scf|^2 =  2.092E-16

      iter #   7 total cpu time :   181.2 secs   av.it.:  11.1
      thresh= 1.446E-09 alpha_mix =  0.700 |ddv_scf|^2 =  1.465E-17

     End of self-consistent calculation

     Convergence has been achieved 


     Representation #  4 modes #   5  6

     Self-consistent Calculation

      iter #   1 total cpu time :   183.0 secs   av.it.:   5.3
      thresh= 1.000E-02 alpha_mix =  0.700 |ddv_scf|^2 =  3.750E-08

      iter #   2 total cpu time :   184.2 secs   av.it.:  12.1
      thresh= 1.936E-05 alpha_mix =  0.700 |ddv_scf|^2 =  2.667E-09

      iter #   3 total cpu time :   185.8 secs   av.it.:  11.9
      thresh= 5.164E-06 alpha_mix =  0.700 |ddv_scf|^2 =  1.225E-10

      iter #   4 total cpu time :   187.0 secs   av.it.:  11.5
      thresh= 1.107E-06 alpha_mix =  0.700 |ddv_scf|^2 =  4.467E-13

      iter #   5 total cpu time :   189.4 secs   av.it.:  11.8
      thresh= 6.684E-08 alpha_mix =  0.700 |ddv_scf|^2 =  2.884E-14

      iter #   6 total cpu time :   194.4 secs   av.it.:  11.7
      thresh= 1.698E-08 alpha_mix =  0.700 |ddv_scf|^2 =  2.086E-16

      iter #   7 total cpu time :   196.5 secs   av.it.:  11.3
      thresh= 1.444E-09 alpha_mix =  0.700 |ddv_scf|^2 =  1.462E-17

     End of self-consistent calculation

     Convergence has been achieved 
 
     Number of q in the star =    8
     List of q in the star:
          1  -0.333333333   0.333333333  -0.333333333
          2   0.333333333   0.333333333   0.333333333
          3  -0.333333333  -0.333333333  -0.333333333
          4   0.333333333  -0.333333333   0.333333333
          5   0.333333333  -0.333333333  -0.333333333
          6   0.333333333   0.333333333  -0.333333333
          7  -0.333333333  -0.333333333   0.333333333
          8  -0.333333333   0.333333333   0.333333333

     Diagonalizing the dynamical matrix

     q = (   -0.333333333   0.333333333  -0.333333333 ) 

 **************************************************************************
     freq (    1) =       3.216778 [THz] =     107.300173 [cm-1]
     freq (    2) =       3.216778 [THz] =     107.300173 [cm-1]
     freq (    3) =       8.460428 [THz] =     282.209493 [cm-1]
     freq (    4) =      13.313179 [THz] =     444.079846 [cm-1]
     freq (    5) =      14.110057 [THz] =     470.660838 [cm-1]
     freq (    6) =      14.110057 [THz] =     470.660838 [cm-1]
 **************************************************************************

     Mode symmetry, C_3v (3m)   point group:

     freq (  1 -  2) =        107.3  [cm-1]   --> E    L_3           
     freq (  3 -  3) =        282.2  [cm-1]   --> A_1  L_1           
     freq (  4 -  4) =        444.1  [cm-1]   --> A_1  L_1           
     freq (  5 -  6) =        470.7  [cm-1]   --> E    L_3           

     Calculation of q =    0.5000000  -0.5000000   0.5000000
 
     Parallelization info
     --------------------
     sticks:   dense  smooth     PW     G-vecs:    dense   smooth      PW
     Min          55      27     10                 1097      382      91
     Max          56      28     11                 1100      396      94
     Sum         889     439    169                17573     6231    1471
 


     bravais-lattice index     =            2
     lattice parameter (alat)  =      10.3880  a.u.
     unit-cell volume          =     280.2437 (a.u.)^3
     number of atoms/cell      =            2
     number of atomic types    =            1
     number of electrons       =         8.00
     number of Kohn-Sham states=            4
     kinetic-energy cutoff     =      30.0000  Ry
     charge density cutoff     =     240.0000  Ry
     Exchange-correlation      = SLA  PW   PBE  PBE ( 1  4  3  4 0 0)

     celldm(1)=  10.388000  celldm(2)=   0.000000  celldm(3)=   0.000000
     celldm(4)=   0.000000  celldm(5)=   0.000000  celldm(6)=   0.000000

     crystal axes: (cart. coord. in units of alat)
               a(1) = (  -0.500000   0.000000   0.500000 )  
               a(2) = (   0.000000   0.500000   0.500000 )  
               a(3) = (  -0.500000   0.500000   0.000000 )  

     reciprocal axes: (cart. coord. in units 2 pi/alat)
               b(1) = ( -1.000000 -1.000000  1.000000 )  
               b(2) = (  1.000000  1.000000  1.000000 )  
               b(3) = ( -1.000000  1.000000 -1.000000 )  


     PseudoPot. # 1 for Si read from file:
     ./si_pbe_v1.uspp.F.UPF.txt
     MD5 check sum: a056efeee980c13900f22a371efd63c1
     Pseudo is Ultrasoft + core correction, Zval =  4.0
     Generated by new atomic code, or converted to UPF format
     Using radial grid of  899 points,  6 beta functions with: 
                l(1) =   0
                l(2) =   0
                l(3) =   1
                l(4) =   1
                l(5) =   2
                l(6) =   2
     Q(r) pseudized with  8 coefficients,  rinner =    0.900   0.900   0.900
                                                       0.900   0.900

     atomic species   valence    mass     pseudopotential
        Si             4.00    28.08600     Si( 1.00)

     48 Sym. Ops., with inversion, found



   Cartesian axes

     site n.     atom                  positions (alat units)
         1           Si  tau(   1) = (   0.0000000   0.0000000   0.0000000  )
         2           Si  tau(   2) = (   0.2500000   0.2500000   0.2500000  )

     number of k points=  1300

     Number of k-points >= 100: set verbosity='high' to print them.

     Dense  grid:    17573 G-vectors     FFT dimensions: (  40,  40,  40)

     Smooth grid:     6231 G-vectors     FFT dimensions: (  25,  25,  25)

     Largest allocated arrays     est. size (Mb)     dimensions
        Kohn-Sham Wavefunctions         0.00 Mb     (      61,    4)
        NL pseudopotentials             0.03 Mb     (      61,   36)
        Each V/rho on FFT grid          0.07 Mb     (    4800)
        Each G-vector array             0.01 Mb     (    1100)
        G-vector shells                 0.00 Mb     (     211)
     Largest temporary arrays     est. size (Mb)     dimensions
        Auxiliary wavefunctions         0.01 Mb     (      61,   16)
        Each subspace H/S matrix        0.00 Mb     (       8,    8)
        Each <psi_i|beta_j> matrix      0.00 Mb     (      36,    4)

     The potential is recalculated from file :
     ./silicon/_ph0/silicon.10.388.save/charge-density.dat

     Starting wfc are    8 atomic wfcs

     Band Structure Calculation
     Davidson diagonalization with overlap

     ethr =  1.25E-10,  avg # of iterations = 12.4

     total cpu time spent up to now is        9.9 secs

     End of band structure calculation

     Number of k-points >= 100: set verbosity='high' to print the bands.

     highest occupied level (ev):     5.7805

     Writing output data file silicon.10.388.save

                                                                                

     bravais-lattice index     =            2
     lattice parameter (alat)  =      10.3880  a.u.
     unit-cell volume          =     280.2437 (a.u.)^3
     number of atoms/cell      =            2
     number of atomic types    =            1
     kinetic-energy cut-off    =      30.0000  Ry
     charge density cut-off    =     240.0000  Ry
     convergence threshold     =      1.0E-16
     beta                      =       0.7000
     number of iterations used =            4
     Exchange-correlation      = SLA  PW   PBE  PBE ( 1  4  3  4 0 0)


     celldm(1)=   10.38800  celldm(2)=    0.00000  celldm(3)=    0.00000
     celldm(4)=    0.00000  celldm(5)=    0.00000  celldm(6)=    0.00000

     crystal axes: (cart. coord. in units of alat)
               a(1) = ( -0.5000  0.0000  0.5000 )  
               a(2) = (  0.0000  0.5000  0.5000 )  
               a(3) = ( -0.5000  0.5000  0.0000 )  

     reciprocal axes: (cart. coord. in units 2 pi/alat)
               b(1) = ( -1.0000 -1.0000  1.0000 )  
               b(2) = (  1.0000  1.0000  1.0000 )  
               b(3) = ( -1.0000  1.0000 -1.0000 )  


     Atoms inside the unit cell: 

     Cartesian axes

     site n.  atom      mass           positions (alat units)
        1     Si  28.0860   tau(    1) = (    0.00000    0.00000    0.00000  )
        2     Si  28.0860   tau(    2) = (    0.25000    0.25000    0.25000  )

     Computing dynamical matrix for 
                    q = (   0.5000000  -0.5000000   0.5000000 )
 
     13 Sym.Ops. (with q -> -q+G )


     G cutoff =  656.0174  (   1100 G-vectors)     FFT grid: ( 40, 40, 40)
     G cutoff =  328.0087  (    395 G-vectors)  smooth grid: ( 25, 25, 25)
     number of k points=  1300

     PseudoPot. # 1 for Si read from file:
     ./si_pbe_v1.uspp.F.UPF.txt
     MD5 check sum: a056efeee980c13900f22a371efd63c1
     Pseudo is Ultrasoft + core correction, Zval =  4.0
     Generated by new atomic code, or converted to UPF format
     Using radial grid of  899 points,  6 beta functions with: 
                l(1) =   0
                l(2) =   0
                l(3) =   1
                l(4) =   1
                l(5) =   2
                l(6) =   2
     Q(r) pseudized with  8 coefficients,  rinner =    0.900   0.900   0.900
                                                       0.900   0.900


     Atomic displacements:
     There are   4 irreducible representations

     Representation     1      1 modes -  To be done

     Representation     2      1 modes -  To be done

     Representation     3      2 modes -  To be done

     Representation     4      2 modes -  To be done



     Alpha used in Ewald sum =   2.5000
     PHONON       :  3m 1.80s CPU     3m20.95s WALL



     Representation #  1 mode #   1

     Self-consistent Calculation

      iter #   1 total cpu time :   201.4 secs   av.it.:   5.1
      thresh= 1.000E-02 alpha_mix =  0.700 |ddv_scf|^2 =  2.088E-06

      iter #   2 total cpu time :   201.9 secs   av.it.:  10.7
      thresh= 1.445E-04 alpha_mix =  0.700 |ddv_scf|^2 =  1.949E-06

      iter #   3 total cpu time :   202.3 secs   av.it.:   9.9
      thresh= 1.396E-04 alpha_mix =  0.700 |ddv_scf|^2 =  1.157E-09

      iter #   4 total cpu time :   202.6 secs   av.it.:  10.1
      thresh= 3.401E-06 alpha_mix =  0.700 |ddv_scf|^2 =  1.191E-11

      iter #   5 total cpu time :   203.9 secs   av.it.:   9.9
      thresh= 3.452E-07 alpha_mix =  0.700 |ddv_scf|^2 =  1.520E-13

      iter #   6 total cpu time :   205.3 secs   av.it.:  10.0
      thresh= 3.898E-08 alpha_mix =  0.700 |ddv_scf|^2 =  2.226E-15

      iter #   7 total cpu time :   205.6 secs   av.it.:  10.1
      thresh= 4.718E-09 alpha_mix =  0.700 |ddv_scf|^2 =  4.159E-17

     End of self-consistent calculation

     Convergence has been achieved 


     Representation #  2 mode #   2

     Self-consistent Calculation

      iter #   1 total cpu time :   209.5 secs   av.it.:   6.0
      thresh= 1.000E-02 alpha_mix =  0.700 |ddv_scf|^2 =  2.959E-05

      iter #   2 total cpu time :   209.9 secs   av.it.:  10.6
      thresh= 5.440E-04 alpha_mix =  0.700 |ddv_scf|^2 =  9.245E-05

      iter #   3 total cpu time :   210.3 secs   av.it.:   9.3
      thresh= 9.615E-04 alpha_mix =  0.700 |ddv_scf|^2 =  7.327E-09

      iter #   4 total cpu time :   210.7 secs   av.it.:  10.7
      thresh= 8.560E-06 alpha_mix =  0.700 |ddv_scf|^2 =  3.684E-10

      iter #   5 total cpu time :   212.1 secs   av.it.:  10.8
      thresh= 1.919E-06 alpha_mix =  0.700 |ddv_scf|^2 =  1.071E-11

      iter #   6 total cpu time :   212.6 secs   av.it.:  10.6
      thresh= 3.273E-07 alpha_mix =  0.700 |ddv_scf|^2 =  7.929E-14

      iter #   7 total cpu time :   219.9 secs   av.it.:  10.0
      thresh= 2.816E-08 alpha_mix =  0.700 |ddv_scf|^2 =  8.913E-16

      iter #   8 total cpu time :   221.9 secs   av.it.:   9.7
      thresh= 2.986E-09 alpha_mix =  0.700 |ddv_scf|^2 =  3.780E-17

     End of self-consistent calculation

     Convergence has been achieved 


     Representation #  3 modes #   3  4

     Self-consistent Calculation

      iter #   1 total cpu time :   224.3 secs   av.it.:   5.1
      thresh= 1.000E-02 alpha_mix =  0.700 |ddv_scf|^2 =  1.350E-08

      iter #   2 total cpu time :   225.2 secs   av.it.:  11.7
      thresh= 1.162E-05 alpha_mix =  0.700 |ddv_scf|^2 =  7.933E-10

      iter #   3 total cpu time :   226.7 secs   av.it.:  11.2
      thresh= 2.817E-06 alpha_mix =  0.700 |ddv_scf|^2 =  2.735E-11

      iter #   4 total cpu time :   228.6 secs   av.it.:  11.3
      thresh= 5.229E-07 alpha_mix =  0.700 |ddv_scf|^2 =  2.227E-13

      iter #   5 total cpu time :   230.1 secs   av.it.:  11.2
      thresh= 4.719E-08 alpha_mix =  0.700 |ddv_scf|^2 =  2.484E-15

      iter #   6 total cpu time :   231.7 secs   av.it.:  11.2
      thresh= 4.984E-09 alpha_mix =  0.700 |ddv_scf|^2 =  2.661E-17

     End of self-consistent calculation

     Convergence has been achieved 


     Representation #  4 modes #   5  6

     Self-consistent Calculation

      iter #   1 total cpu time :   232.9 secs   av.it.:   5.2
      thresh= 1.000E-02 alpha_mix =  0.700 |ddv_scf|^2 =  6.933E-08

      iter #   2 total cpu time :   234.4 secs   av.it.:  11.8
      thresh= 2.633E-05 alpha_mix =  0.700 |ddv_scf|^2 =  5.573E-09

      iter #   3 total cpu time :   235.6 secs   av.it.:  11.6
      thresh= 7.465E-06 alpha_mix =  0.700 |ddv_scf|^2 =  1.461E-10

      iter #   4 total cpu time :   236.8 secs   av.it.:  10.5
      thresh= 1.209E-06 alpha_mix =  0.700 |ddv_scf|^2 =  2.713E-13

      iter #   5 total cpu time :   237.5 secs   av.it.:  11.2
      thresh= 5.209E-08 alpha_mix =  0.700 |ddv_scf|^2 =  2.501E-15

      iter #   6 total cpu time :   238.7 secs   av.it.:  11.3
      thresh= 5.001E-09 alpha_mix =  0.700 |ddv_scf|^2 =  6.926E-17

     End of self-consistent calculation

     Convergence has been achieved 
 
     Number of q in the star =    4
     List of q in the star:
          1   0.500000000  -0.500000000   0.500000000
          2   0.500000000   0.500000000   0.500000000
          3  -0.500000000   0.500000000   0.500000000
          4   0.500000000   0.500000000  -0.500000000

     Diagonalizing the dynamical matrix

     q = (    0.500000000  -0.500000000   0.500000000 ) 

 **************************************************************************
     freq (    1) =       3.414284 [THz] =     113.888254 [cm-1]
     freq (    2) =       3.414284 [THz] =     113.888254 [cm-1]
     freq (    3) =      11.032334 [THz] =     367.999040 [cm-1]
     freq (    4) =      11.664001 [THz] =     389.069184 [cm-1]
     freq (    5) =      14.025017 [THz] =     467.824218 [cm-1]
     freq (    6) =      14.025017 [THz] =     467.824218 [cm-1]
 **************************************************************************

     Calculation of q =    0.0000000   0.3333333   0.0000000
 
     Parallelization info
     --------------------
     sticks:   dense  smooth     PW     G-vecs:    dense   smooth      PW
     Min          55      27     10                 1097      378      84
     Max          56      28     11                 1100      396      86
     Sum         889     439    163                17573     6231    1363
 


     bravais-lattice index     =            2
     lattice parameter (alat)  =      10.3880  a.u.
     unit-cell volume          =     280.2437 (a.u.)^3
     number of atoms/cell      =            2
     number of atomic types    =            1
     number of electrons       =         8.00
     number of Kohn-Sham states=            4
     kinetic-energy cutoff     =      30.0000  Ry
     charge density cutoff     =     240.0000  Ry
     Exchange-correlation      = SLA  PW   PBE  PBE ( 1  4  3  4 0 0)

     celldm(1)=  10.388000  celldm(2)=   0.000000  celldm(3)=   0.000000
     celldm(4)=   0.000000  celldm(5)=   0.000000  celldm(6)=   0.000000

     crystal axes: (cart. coord. in units of alat)
               a(1) = (  -0.500000   0.000000   0.500000 )  
               a(2) = (   0.000000   0.500000   0.500000 )  
               a(3) = (  -0.500000   0.500000   0.000000 )  

     reciprocal axes: (cart. coord. in units 2 pi/alat)
               b(1) = ( -1.000000 -1.000000  1.000000 )  
               b(2) = (  1.000000  1.000000  1.000000 )  
               b(3) = ( -1.000000  1.000000 -1.000000 )  


     PseudoPot. # 1 for Si read from file:
     ./si_pbe_v1.uspp.F.UPF.txt
     MD5 check sum: a056efeee980c13900f22a371efd63c1
     Pseudo is Ultrasoft + core correction, Zval =  4.0
     Generated by new atomic code, or converted to UPF format
     Using radial grid of  899 points,  6 beta functions with: 
                l(1) =   0
                l(2) =   0
                l(3) =   1
                l(4) =   1
                l(5) =   2
                l(6) =   2
     Q(r) pseudized with  8 coefficients,  rinner =    0.900   0.900   0.900
                                                       0.900   0.900

     atomic species   valence    mass     pseudopotential
        Si             4.00    28.08600     Si( 1.00)

     48 Sym. Ops., with inversion, found



   Cartesian axes

     site n.     atom                  positions (alat units)
         1           Si  tau(   1) = (   0.0000000   0.0000000   0.0000000  )
         2           Si  tau(   2) = (   0.2500000   0.2500000   0.2500000  )

     number of k points=  1872

     Number of k-points >= 100: set verbosity='high' to print them.

     Dense  grid:    17573 G-vectors     FFT dimensions: (  40,  40,  40)

     Smooth grid:     6231 G-vectors     FFT dimensions: (  25,  25,  25)

     Largest allocated arrays     est. size (Mb)     dimensions
        Kohn-Sham Wavefunctions         0.00 Mb     (      55,    4)
        NL pseudopotentials             0.03 Mb     (      55,   36)
        Each V/rho on FFT grid          0.07 Mb     (    4800)
        Each G-vector array             0.01 Mb     (    1100)
        G-vector shells                 0.00 Mb     (     210)
     Largest temporary arrays     est. size (Mb)     dimensions
        Auxiliary wavefunctions         0.01 Mb     (      55,   16)
        Each subspace H/S matrix        0.00 Mb     (       8,    8)
        Each <psi_i|beta_j> matrix      0.00 Mb     (      36,    4)

     The potential is recalculated from file :
     ./silicon/_ph0/silicon.10.388.save/charge-density.dat

     Starting wfc are    8 atomic wfcs

     Band Structure Calculation
     Davidson diagonalization with overlap

     ethr =  1.25E-10,  avg # of iterations = 12.3

     total cpu time spent up to now is       12.2 secs

     End of band structure calculation

     Number of k-points >= 100: set verbosity='high' to print the bands.

     highest occupied level (ev):     5.7805

     Writing output data file silicon.10.388.save

                                                                                

     bravais-lattice index     =            2
     lattice parameter (alat)  =      10.3880  a.u.
     unit-cell volume          =     280.2437 (a.u.)^3
     number of atoms/cell      =            2
     number of atomic types    =            1
     kinetic-energy cut-off    =      30.0000  Ry
     charge density cut-off    =     240.0000  Ry
     convergence threshold     =      1.0E-16
     beta                      =       0.7000
     number of iterations used =            4
     Exchange-correlation      = SLA  PW   PBE  PBE ( 1  4  3  4 0 0)


     celldm(1)=   10.38800  celldm(2)=    0.00000  celldm(3)=    0.00000
     celldm(4)=    0.00000  celldm(5)=    0.00000  celldm(6)=    0.00000

     crystal axes: (cart. coord. in units of alat)
               a(1) = ( -0.5000  0.0000  0.5000 )  
               a(2) = (  0.0000  0.5000  0.5000 )  
               a(3) = ( -0.5000  0.5000  0.0000 )  

     reciprocal axes: (cart. coord. in units 2 pi/alat)
               b(1) = ( -1.0000 -1.0000  1.0000 )  
               b(2) = (  1.0000  1.0000  1.0000 )  
               b(3) = ( -1.0000  1.0000 -1.0000 )  


     Atoms inside the unit cell: 

     Cartesian axes

     site n.  atom      mass           positions (alat units)
        1     Si  28.0860   tau(    1) = (    0.00000    0.00000    0.00000  )
        2     Si  28.0860   tau(    2) = (    0.25000    0.25000    0.25000  )

     Computing dynamical matrix for 
                    q = (   0.0000000   0.3333333   0.0000000 )
 
      8 Sym.Ops. (no q -> -q+G )


     G cutoff =  656.0174  (   1100 G-vectors)     FFT grid: ( 40, 40, 40)
     G cutoff =  328.0087  (    395 G-vectors)  smooth grid: ( 25, 25, 25)
     number of k points=  1872

     PseudoPot. # 1 for Si read from file:
     ./si_pbe_v1.uspp.F.UPF.txt
     MD5 check sum: a056efeee980c13900f22a371efd63c1
     Pseudo is Ultrasoft + core correction, Zval =  4.0
     Generated by new atomic code, or converted to UPF format
     Using radial grid of  899 points,  6 beta functions with: 
                l(1) =   0
                l(2) =   0
                l(3) =   1
                l(4) =   1
                l(5) =   2
                l(6) =   2
     Q(r) pseudized with  8 coefficients,  rinner =    0.900   0.900   0.900
                                                       0.900   0.900

     Mode symmetry, C_4v (4mm)  point group:


     Atomic displacements:
     There are   4 irreducible representations

     Representation     1      1 modes -A_1  G_1 D_1  To be done

     Representation     2      1 modes -B_2  G_4 D_2'  To be done

     Representation     3      2 modes -E    G_5 D_5  To be done

     Representation     4      2 modes -E    G_5 D_5  To be done



     Alpha used in Ewald sum =   2.5000
     PHONON       :  3m41.15s CPU     4m 3.94s WALL



     Representation #  1 mode #   1

     Self-consistent Calculation

      iter #   1 total cpu time :   245.0 secs   av.it.:   6.3
      thresh= 1.000E-02 alpha_mix =  0.700 |ddv_scf|^2 =  1.300E-03

      iter #   2 total cpu time :   245.7 secs   av.it.:   9.4
      thresh= 3.605E-03 alpha_mix =  0.700 |ddv_scf|^2 =  3.808E-02

      iter #   3 total cpu time :   247.1 secs   av.it.:   7.7
      thresh= 1.000E-02 alpha_mix =  0.700 |ddv_scf|^2 =  7.344E-08

      iter #   4 total cpu time :   247.6 secs   av.it.:   9.7
      thresh= 2.710E-05 alpha_mix =  0.700 |ddv_scf|^2 =  2.455E-09

      iter #   5 total cpu time :   248.0 secs   av.it.:   8.8
      thresh= 4.955E-06 alpha_mix =  0.700 |ddv_scf|^2 =  5.758E-10

      iter #   6 total cpu time :   249.1 secs   av.it.:   8.4
      thresh= 2.400E-06 alpha_mix =  0.700 |ddv_scf|^2 =  1.077E-13

      iter #   7 total cpu time :   250.2 secs   av.it.:  10.0
      thresh= 3.282E-08 alpha_mix =  0.700 |ddv_scf|^2 =  8.652E-14

      iter #   8 total cpu time :   250.7 secs   av.it.:   7.4
      thresh= 2.941E-08 alpha_mix =  0.700 |ddv_scf|^2 =  4.144E-17

     End of self-consistent calculation

     Convergence has been achieved 


     Representation #  2 mode #   2

     Self-consistent Calculation

      iter #   1 total cpu time :   251.2 secs   av.it.:   5.1
      thresh= 1.000E-02 alpha_mix =  0.700 |ddv_scf|^2 =  2.171E-07

      iter #   2 total cpu time :   251.7 secs   av.it.:  10.9
      thresh= 4.659E-05 alpha_mix =  0.700 |ddv_scf|^2 =  3.847E-08

      iter #   3 total cpu time :   252.2 secs   av.it.:  10.8
      thresh= 1.961E-05 alpha_mix =  0.700 |ddv_scf|^2 =  1.134E-09

      iter #   4 total cpu time :   253.7 secs   av.it.:  10.8
      thresh= 3.367E-06 alpha_mix =  0.700 |ddv_scf|^2 =  4.170E-11

      iter #   5 total cpu time :   254.4 secs   av.it.:  10.8
      thresh= 6.457E-07 alpha_mix =  0.700 |ddv_scf|^2 =  2.117E-13

      iter #   6 total cpu time :   255.5 secs   av.it.:  10.4
      thresh= 4.601E-08 alpha_mix =  0.700 |ddv_scf|^2 =  3.675E-15

      iter #   7 total cpu time :   256.0 secs   av.it.:   9.9
      thresh= 6.062E-09 alpha_mix =  0.700 |ddv_scf|^2 =  9.609E-17

     End of self-consistent calculation

     Convergence has been achieved 


     Representation #  3 modes #   3  4

     Self-consistent Calculation

      iter #   1 total cpu time :   264.7 secs   av.it.:   5.2
      thresh= 1.000E-02 alpha_mix =  0.700 |ddv_scf|^2 =  4.085E-08

      iter #   2 total cpu time :   266.3 secs   av.it.:  12.0
      thresh= 2.021E-05 alpha_mix =  0.700 |ddv_scf|^2 =  3.545E-09

      iter #   3 total cpu time :   267.3 secs   av.it.:  11.8
      thresh= 5.954E-06 alpha_mix =  0.700 |ddv_scf|^2 =  1.364E-10

      iter #   4 total cpu time :   268.8 secs   av.it.:  11.3
      thresh= 1.168E-06 alpha_mix =  0.700 |ddv_scf|^2 =  5.428E-13

      iter #   5 total cpu time :   270.2 secs   av.it.:  11.6
      thresh= 7.368E-08 alpha_mix =  0.700 |ddv_scf|^2 =  2.619E-14

      iter #   6 total cpu time :   271.2 secs   av.it.:  11.7
      thresh= 1.618E-08 alpha_mix =  0.700 |ddv_scf|^2 =  1.979E-16

      iter #   7 total cpu time :   272.3 secs   av.it.:  11.1
      thresh= 1.407E-09 alpha_mix =  0.700 |ddv_scf|^2 =  1.269E-17

     End of self-consistent calculation

     Convergence has been achieved 


     Representation #  4 modes #   5  6

     Self-consistent Calculation

      iter #   1 total cpu time :   273.9 secs   av.it.:   5.3
      thresh= 1.000E-02 alpha_mix =  0.700 |ddv_scf|^2 =  4.814E-08

      iter #   2 total cpu time :   274.9 secs   av.it.:  12.0
      thresh= 2.194E-05 alpha_mix =  0.700 |ddv_scf|^2 =  4.344E-09

      iter #   3 total cpu time :   276.9 secs   av.it.:  11.8
      thresh= 6.591E-06 alpha_mix =  0.700 |ddv_scf|^2 =  1.442E-10

      iter #   4 total cpu time :   278.8 secs   av.it.:  11.5
      thresh= 1.201E-06 alpha_mix =  0.700 |ddv_scf|^2 =  3.862E-13

      iter #   5 total cpu time :   280.9 secs   av.it.:  11.5
      thresh= 6.215E-08 alpha_mix =  0.700 |ddv_scf|^2 =  1.250E-14

      iter #   6 total cpu time :   282.2 secs   av.it.:  11.6
      thresh= 1.118E-08 alpha_mix =  0.700 |ddv_scf|^2 =  1.702E-16

      iter #   7 total cpu time :   283.1 secs   av.it.:  11.2
      thresh= 1.305E-09 alpha_mix =  0.700 |ddv_scf|^2 =  1.073E-17

     End of self-consistent calculation

     Convergence has been achieved 
 
     Number of q in the star =    6
     List of q in the star:
          1   0.000000000   0.333333333   0.000000000
          2   0.333333333   0.000000000   0.000000000
          3   0.000000000   0.000000000   0.333333333
          4   0.000000000  -0.333333333   0.000000000
          5  -0.333333333   0.000000000   0.000000000
          6   0.000000000   0.000000000  -0.333333333

     Diagonalizing the dynamical matrix

     q = (    0.000000000   0.333333333   0.000000000 ) 

 **************************************************************************
     freq (    1) =       2.972041 [THz] =      99.136607 [cm-1]
     freq (    2) =       2.972041 [THz] =      99.136607 [cm-1]
     freq (    3) =       4.770040 [THz] =     159.111403 [cm-1]
     freq (    4) =      14.052604 [THz] =     468.744412 [cm-1]
     freq (    5) =      14.052604 [THz] =     468.744412 [cm-1]
     freq (    6) =      14.589542 [THz] =     486.654744 [cm-1]
 **************************************************************************

     Mode symmetry, C_4v (4mm)  point group:

     freq (  1 -  2) =         99.1  [cm-1]   --> E    G_5 D_5       
     freq (  3 -  3) =        159.1  [cm-1]   --> A_1  G_1 D_1       
     freq (  4 -  5) =        468.7  [cm-1]   --> E    G_5 D_5       
     freq (  6 -  6) =        486.7  [cm-1]   --> B_2  G_4 D_2'      

     Calculation of q =   -0.1666667   0.5000000  -0.1666667
 
     Parallelization info
     --------------------
     sticks:   dense  smooth     PW     G-vecs:    dense   smooth      PW
     Min          55      27     10                 1097      381      90
     Max          56      28     11                 1100      397      94
     Sum         889     439    163                17573     6231    1459
 


     bravais-lattice index     =            2
     lattice parameter (alat)  =      10.3880  a.u.
     unit-cell volume          =     280.2437 (a.u.)^3
     number of atoms/cell      =            2
     number of atomic types    =            1
     number of electrons       =         8.00
     number of Kohn-Sham states=            4
     kinetic-energy cutoff     =      30.0000  Ry
     charge density cutoff     =     240.0000  Ry
     Exchange-correlation      = SLA  PW   PBE  PBE ( 1  4  3  4 0 0)

     celldm(1)=  10.388000  celldm(2)=   0.000000  celldm(3)=   0.000000
     celldm(4)=   0.000000  celldm(5)=   0.000000  celldm(6)=   0.000000

     crystal axes: (cart. coord. in units of alat)
               a(1) = (  -0.500000   0.000000   0.500000 )  
               a(2) = (   0.000000   0.500000   0.500000 )  
               a(3) = (  -0.500000   0.500000   0.000000 )  

     reciprocal axes: (cart. coord. in units 2 pi/alat)
               b(1) = ( -1.000000 -1.000000  1.000000 )  
               b(2) = (  1.000000  1.000000  1.000000 )  
               b(3) = ( -1.000000  1.000000 -1.000000 )  


     PseudoPot. # 1 for Si read from file:
     ./si_pbe_v1.uspp.F.UPF.txt
     MD5 check sum: a056efeee980c13900f22a371efd63c1
     Pseudo is Ultrasoft + core correction, Zval =  4.0
     Generated by new atomic code, or converted to UPF format
     Using radial grid of  899 points,  6 beta functions with: 
                l(1) =   0
                l(2) =   0
                l(3) =   1
                l(4) =   1
                l(5) =   2
                l(6) =   2
     Q(r) pseudized with  8 coefficients,  rinner =    0.900   0.900   0.900
                                                       0.900   0.900

     atomic species   valence    mass     pseudopotential
        Si             4.00    28.08600     Si( 1.00)

     48 Sym. Ops., with inversion, found



   Cartesian axes

     site n.     atom                  positions (alat units)
         1           Si  tau(   1) = (   0.0000000   0.0000000   0.0000000  )
         2           Si  tau(   2) = (   0.2500000   0.2500000   0.2500000  )

     number of k points=  7200

     Number of k-points >= 100: set verbosity='high' to print them.

     Dense  grid:    17573 G-vectors     FFT dimensions: (  40,  40,  40)

     Smooth grid:     6231 G-vectors     FFT dimensions: (  25,  25,  25)

     Largest allocated arrays     est. size (Mb)     dimensions
        Kohn-Sham Wavefunctions         0.00 Mb     (      61,    4)
        NL pseudopotentials             0.03 Mb     (      61,   36)
        Each V/rho on FFT grid          0.07 Mb     (    4800)
        Each G-vector array             0.01 Mb     (    1100)
        G-vector shells                 0.00 Mb     (     213)
     Largest temporary arrays     est. size (Mb)     dimensions
        Auxiliary wavefunctions         0.01 Mb     (      61,   16)
        Each subspace H/S matrix        0.00 Mb     (       8,    8)
        Each <psi_i|beta_j> matrix      0.00 Mb     (      36,    4)

     The potential is recalculated from file :
     ./silicon/_ph0/silicon.10.388.save/charge-density.dat

     Starting wfc are    8 atomic wfcs

     Band Structure Calculation
     Davidson diagonalization with overlap

     ethr =  1.25E-10,  avg # of iterations = 12.3

     total cpu time spent up to now is       20.9 secs

     End of band structure calculation

     Number of k-points >= 100: set verbosity='high' to print the bands.

     highest occupied level (ev):     5.7805

     Writing output data file silicon.10.388.save

                                                                                

     bravais-lattice index     =            2
     lattice parameter (alat)  =      10.3880  a.u.
     unit-cell volume          =     280.2437 (a.u.)^3
     number of atoms/cell      =            2
     number of atomic types    =            1
     kinetic-energy cut-off    =      30.0000  Ry
     charge density cut-off    =     240.0000  Ry
     convergence threshold     =      1.0E-16
     beta                      =       0.7000
     number of iterations used =            4
     Exchange-correlation      = SLA  PW   PBE  PBE ( 1  4  3  4 0 0)


     celldm(1)=   10.38800  celldm(2)=    0.00000  celldm(3)=    0.00000
     celldm(4)=    0.00000  celldm(5)=    0.00000  celldm(6)=    0.00000

     crystal axes: (cart. coord. in units of alat)
               a(1) = ( -0.5000  0.0000  0.5000 )  
               a(2) = (  0.0000  0.5000  0.5000 )  
               a(3) = ( -0.5000  0.5000  0.0000 )  

     reciprocal axes: (cart. coord. in units 2 pi/alat)
               b(1) = ( -1.0000 -1.0000  1.0000 )  
               b(2) = (  1.0000  1.0000  1.0000 )  
               b(3) = ( -1.0000  1.0000 -1.0000 )  


     Atoms inside the unit cell: 

     Cartesian axes

     site n.  atom      mass           positions (alat units)
        1     Si  28.0860   tau(    1) = (    0.00000    0.00000    0.00000  )
        2     Si  28.0860   tau(    2) = (    0.25000    0.25000    0.25000  )

     Computing dynamical matrix for 
                    q = (  -0.1666667   0.5000000  -0.1666667 )
 
      2 Sym.Ops. (no q -> -q+G )


     G cutoff =  656.0174  (   1100 G-vectors)     FFT grid: ( 40, 40, 40)
     G cutoff =  328.0087  (    385 G-vectors)  smooth grid: ( 25, 25, 25)
     number of k points=  7200

     PseudoPot. # 1 for Si read from file:
     ./si_pbe_v1.uspp.F.UPF.txt
     MD5 check sum: a056efeee980c13900f22a371efd63c1
     Pseudo is Ultrasoft + core correction, Zval =  4.0
     Generated by new atomic code, or converted to UPF format
     Using radial grid of  899 points,  6 beta functions with: 
                l(1) =   0
                l(2) =   0
                l(3) =   1
                l(4) =   1
                l(5) =   2
                l(6) =   2
     Q(r) pseudized with  8 coefficients,  rinner =    0.900   0.900   0.900
                                                       0.900   0.900

     Mode symmetry, C_s (m)     point group:


     Atomic displacements:
     There are   6 irreducible representations

     Representation     1      1 modes -A'  To be done

     Representation     2      1 modes -A'  To be done

     Representation     3      1 modes -A'  To be done

     Representation     4      1 modes -A'  To be done

     Representation     5      1 modes -A''  To be done

     Representation     6      1 modes -A''  To be done



     Alpha used in Ewald sum =   2.5000
     PHONON       :  4m28.02s CPU     4m58.53s WALL



     Representation #  1 mode #   1

     Self-consistent Calculation

      iter #   1 total cpu time :   300.3 secs   av.it.:   5.8
      thresh= 1.000E-02 alpha_mix =  0.700 |ddv_scf|^2 =  3.107E-05

      iter #   2 total cpu time :   302.1 secs   av.it.:  10.4
      thresh= 5.574E-04 alpha_mix =  0.700 |ddv_scf|^2 =  3.196E-04

      iter #   3 total cpu time :   303.5 secs   av.it.:   8.4
      thresh= 1.788E-03 alpha_mix =  0.700 |ddv_scf|^2 =  5.534E-08

      iter #   4 total cpu time :   306.7 secs   av.it.:  10.9
      thresh= 2.352E-05 alpha_mix =  0.700 |ddv_scf|^2 =  2.469E-09

      iter #   5 total cpu time :   308.8 secs   av.it.:  10.9
      thresh= 4.969E-06 alpha_mix =  0.700 |ddv_scf|^2 =  1.170E-10

      iter #   6 total cpu time :   310.5 secs   av.it.:  10.9
      thresh= 1.082E-06 alpha_mix =  0.700 |ddv_scf|^2 =  4.349E-12

      iter #   7 total cpu time :   312.1 secs   av.it.:  11.0
      thresh= 2.085E-07 alpha_mix =  0.700 |ddv_scf|^2 =  7.762E-13

      iter #   8 total cpu time :   315.8 secs   av.it.:  10.4
      thresh= 8.810E-08 alpha_mix =  0.700 |ddv_scf|^2 =  2.511E-12

      iter #   9 total cpu time :   321.6 secs   av.it.:   9.0
      thresh= 1.585E-07 alpha_mix =  0.700 |ddv_scf|^2 =  1.250E-13

      iter #  10 total cpu time :   323.0 secs   av.it.:   9.6
      thresh= 3.536E-08 alpha_mix =  0.700 |ddv_scf|^2 =  1.995E-14

      iter #  11 total cpu time :   324.8 secs   av.it.:  10.2
      thresh= 1.412E-08 alpha_mix =  0.700 |ddv_scf|^2 =  6.552E-16

      iter #  12 total cpu time :   326.5 secs   av.it.:  10.9
      thresh= 2.560E-09 alpha_mix =  0.700 |ddv_scf|^2 =  9.747E-17

     End of self-consistent calculation

     Convergence has been achieved 


     Representation #  2 mode #   2

     Self-consistent Calculation

      iter #   1 total cpu time :   328.7 secs   av.it.:   6.0
      thresh= 1.000E-02 alpha_mix =  0.700 |ddv_scf|^2 =  7.313E-05

      iter #   2 total cpu time :   331.0 secs   av.it.:  10.3
      thresh= 8.552E-04 alpha_mix =  0.700 |ddv_scf|^2 =  7.698E-04

      iter #   3 total cpu time :   332.5 secs   av.it.:   8.3
      thresh= 2.775E-03 alpha_mix =  0.700 |ddv_scf|^2 =  3.707E-08

      iter #   4 total cpu time :   334.8 secs   av.it.:  11.1
      thresh= 1.925E-05 alpha_mix =  0.700 |ddv_scf|^2 =  3.648E-09

      iter #   5 total cpu time :   336.8 secs   av.it.:  10.9
      thresh= 6.040E-06 alpha_mix =  0.700 |ddv_scf|^2 =  1.173E-10

      iter #   6 total cpu time :   338.6 secs   av.it.:  11.0
      thresh= 1.083E-06 alpha_mix =  0.700 |ddv_scf|^2 =  9.501E-12

      iter #   7 total cpu time :   340.1 secs   av.it.:  11.0
      thresh= 3.082E-07 alpha_mix =  0.700 |ddv_scf|^2 =  4.657E-14

      iter #   8 total cpu time :   341.7 secs   av.it.:  11.0
      thresh= 2.158E-08 alpha_mix =  0.700 |ddv_scf|^2 =  2.751E-14

      iter #   9 total cpu time :   343.2 secs   av.it.:  10.0
      thresh= 1.659E-08 alpha_mix =  0.700 |ddv_scf|^2 =  5.443E-14

      iter #  10 total cpu time :   344.7 secs   av.it.:   9.1
      thresh= 2.333E-08 alpha_mix =  0.700 |ddv_scf|^2 =  6.088E-16

      iter #  11 total cpu time :   346.4 secs   av.it.:  10.6
      thresh= 2.467E-09 alpha_mix =  0.700 |ddv_scf|^2 =  1.566E-15

      iter #  12 total cpu time :   347.9 secs   av.it.:   8.9
      thresh= 3.957E-09 alpha_mix =  0.700 |ddv_scf|^2 =  6.128E-18

     End of self-consistent calculation

     Convergence has been achieved 


     Representation #  3 mode #   3

     Self-consistent Calculation

      iter #   1 total cpu time :   350.0 secs   av.it.:   5.9
      thresh= 1.000E-02 alpha_mix =  0.700 |ddv_scf|^2 =  5.317E-05

      iter #   2 total cpu time :   351.5 secs   av.it.:  10.4
      thresh= 7.292E-04 alpha_mix =  0.700 |ddv_scf|^2 =  5.628E-04

      iter #   3 total cpu time :   352.9 secs   av.it.:   8.4
      thresh= 2.372E-03 alpha_mix =  0.700 |ddv_scf|^2 =  5.183E-08

      iter #   4 total cpu time :   354.9 secs   av.it.:  11.0
      thresh= 2.277E-05 alpha_mix =  0.700 |ddv_scf|^2 =  2.905E-09

      iter #   5 total cpu time :   356.8 secs   av.it.:  10.9
      thresh= 5.390E-06 alpha_mix =  0.700 |ddv_scf|^2 =  1.287E-10

      iter #   6 total cpu time :   358.8 secs   av.it.:  11.1
      thresh= 1.135E-06 alpha_mix =  0.700 |ddv_scf|^2 =  7.868E-12

      iter #   7 total cpu time :   360.7 secs   av.it.:  11.0
      thresh= 2.805E-07 alpha_mix =  0.700 |ddv_scf|^2 =  3.447E-13

      iter #   8 total cpu time :   362.7 secs   av.it.:  10.1
      thresh= 5.871E-08 alpha_mix =  0.700 |ddv_scf|^2 =  9.418E-13

      iter #   9 total cpu time :   364.8 secs   av.it.:   9.0
      thresh= 9.705E-08 alpha_mix =  0.700 |ddv_scf|^2 =  2.064E-14

      iter #  10 total cpu time :   366.6 secs   av.it.:   9.8
      thresh= 1.437E-08 alpha_mix =  0.700 |ddv_scf|^2 =  2.383E-14

      iter #  11 total cpu time :   368.9 secs   av.it.:   9.3
      thresh= 1.544E-08 alpha_mix =  0.700 |ddv_scf|^2 =  5.618E-17

     End of self-consistent calculation

     Convergence has been achieved 


     Representation #  4 mode #   4

     Self-consistent Calculation

      iter #   1 total cpu time :   370.6 secs   av.it.:   5.6
      thresh= 1.000E-02 alpha_mix =  0.700 |ddv_scf|^2 =  1.109E-05

      iter #   2 total cpu time :   372.3 secs   av.it.:  10.7
      thresh= 3.331E-04 alpha_mix =  0.700 |ddv_scf|^2 =  1.125E-04

      iter #   3 total cpu time :   373.7 secs   av.it.:   8.4
      thresh= 1.060E-03 alpha_mix =  0.700 |ddv_scf|^2 =  6.403E-08

      iter #   4 total cpu time :   375.4 secs   av.it.:  10.9
      thresh= 2.530E-05 alpha_mix =  0.700 |ddv_scf|^2 =  1.366E-09

      iter #   5 total cpu time :   377.2 secs   av.it.:  11.0
      thresh= 3.696E-06 alpha_mix =  0.700 |ddv_scf|^2 =  1.238E-10

      iter #   6 total cpu time :   378.8 secs   av.it.:  11.0
      thresh= 1.113E-06 alpha_mix =  0.700 |ddv_scf|^2 =  3.821E-12

      iter #   7 total cpu time :   380.4 secs   av.it.:  11.0
      thresh= 1.955E-07 alpha_mix =  0.700 |ddv_scf|^2 =  5.378E-12

      iter #   8 total cpu time :   381.9 secs   av.it.:   9.1
      thresh= 2.319E-07 alpha_mix =  0.700 |ddv_scf|^2 =  1.766E-12

      iter #   9 total cpu time :   383.4 secs   av.it.:   9.6
      thresh= 1.329E-07 alpha_mix =  0.700 |ddv_scf|^2 =  1.475E-12

      iter #  10 total cpu time :   384.9 secs   av.it.:   9.2
      thresh= 1.215E-07 alpha_mix =  0.700 |ddv_scf|^2 =  4.870E-15

      iter #  11 total cpu time :   386.6 secs   av.it.:  11.1
      thresh= 6.979E-09 alpha_mix =  0.700 |ddv_scf|^2 =  1.609E-15

      iter #  12 total cpu time :   388.3 secs   av.it.:  10.8
      thresh= 4.012E-09 alpha_mix =  0.700 |ddv_scf|^2 =  9.622E-17

     End of self-consistent calculation

     Convergence has been achieved 


     Representation #  5 mode #   5

     Self-consistent Calculation

      iter #   1 total cpu time :   390.1 secs   av.it.:   5.3
      thresh= 1.000E-02 alpha_mix =  0.700 |ddv_scf|^2 =  2.477E-07

      iter #   2 total cpu time :   392.0 secs   av.it.:  11.0
      thresh= 4.977E-05 alpha_mix =  0.700 |ddv_scf|^2 =  3.033E-08

      iter #   3 total cpu time :   393.7 secs   av.it.:  10.8
      thresh= 1.742E-05 alpha_mix =  0.700 |ddv_scf|^2 =  6.500E-10

      iter #   4 total cpu time :   395.3 secs   av.it.:  10.6
      thresh= 2.550E-06 alpha_mix =  0.700 |ddv_scf|^2 =  1.670E-12

      iter #   5 total cpu time :   396.8 secs   av.it.:  10.7
      thresh= 1.292E-07 alpha_mix =  0.700 |ddv_scf|^2 =  8.448E-14

      iter #   6 total cpu time :   398.5 secs   av.it.:  10.7
      thresh= 2.907E-08 alpha_mix =  0.700 |ddv_scf|^2 =  8.057E-16

      iter #   7 total cpu time :   400.0 secs   av.it.:  10.4
      thresh= 2.838E-09 alpha_mix =  0.700 |ddv_scf|^2 =  3.302E-17

     End of self-consistent calculation

     Convergence has been achieved 


     Representation #  6 mode #   6

     Self-consistent Calculation

      iter #   1 total cpu time :   402.4 secs   av.it.:   5.3
      thresh= 1.000E-02 alpha_mix =  0.700 |ddv_scf|^2 =  2.477E-07

      iter #   2 total cpu time :   405.2 secs   av.it.:  11.0
      thresh= 4.977E-05 alpha_mix =  0.700 |ddv_scf|^2 =  3.033E-08

      iter #   3 total cpu time :   407.1 secs   av.it.:  10.8
      thresh= 1.742E-05 alpha_mix =  0.700 |ddv_scf|^2 =  6.500E-10

      iter #   4 total cpu time :   415.6 secs   av.it.:  10.6
      thresh= 2.550E-06 alpha_mix =  0.700 |ddv_scf|^2 =  1.670E-12

      iter #   5 total cpu time :   417.6 secs   av.it.:  10.7
      thresh= 1.292E-07 alpha_mix =  0.700 |ddv_scf|^2 =  8.449E-14

      iter #   6 total cpu time :   419.5 secs   av.it.:  10.7
      thresh= 2.907E-08 alpha_mix =  0.700 |ddv_scf|^2 =  8.057E-16

      iter #   7 total cpu time :   420.9 secs   av.it.:  10.4
      thresh= 2.839E-09 alpha_mix =  0.700 |ddv_scf|^2 =  3.303E-17

     End of self-consistent calculation

     Convergence has been achieved 
 
     Number of q in the star =   24
     List of q in the star:
          1  -0.166666667   0.500000000  -0.166666667
          2   0.166666667   0.500000000   0.166666667
          3  -0.166666667   0.500000000   0.166666667
          4   0.166666667   0.500000000  -0.166666667
          5   0.500000000  -0.166666667   0.166666667
[...]

     End of self-consistent calculation

     Convergence has been achieved 
 
     Number of q in the star =   24
     List of q in the star:
          1   0.500000000  -0.166666667   0.833333333
          2   0.833333333   0.166666667   0.500000000
          3   0.500000000   0.166666667   0.833333333
          4  -0.833333333  -0.166666667   0.500000000
          5  -0.833333333  -0.166666667  -0.500000000
          6  -0.500000000  -0.166666667  -0.833333333
          7   0.833333333  -0.166666667   0.500000000
          8  -0.500000000  -0.166666667   0.833333333
          9  -0.833333333   0.166666667   0.500000000
         10   0.833333333   0.166666667  -0.500000000
         11   0.833333333  -0.166666667  -0.500000000
         12   0.500000000   0.166666667  -0.833333333
         13  -0.500000000   0.166666667   0.833333333
         14  -0.500000000   0.166666667  -0.833333333
         15  -0.833333333   0.166666667  -0.500000000
         16   0.833333333  -0.500000000   0.166666667
         17   0.833333333   0.500000000  -0.166666667
         18  -0.833333333  -0.500000000  -0.166666667
         19  -0.833333333   0.500000000   0.166666667
         20   0.166666667  -0.500000000   0.833333333
         21  -0.166666667   0.500000000   0.833333333
         22   0.166666667   0.500000000  -0.833333333
         23  -0.166666667  -0.500000000  -0.833333333
         24  -0.500000000   0.833333333   0.166666667

     Diagonalizing the dynamical matrix

     q = (    0.500000000  -0.166666667   0.833333333 ) 

 **************************************************************************
     freq (    1) =       5.184657 [THz] =     172.941550 [cm-1]
     freq (    2) =       6.167554 [THz] =     205.727458 [cm-1]
     freq (    3) =       9.527811 [THz] =     317.813559 [cm-1]
     freq (    4) =      10.906009 [THz] =     363.785298 [cm-1]
     freq (    5) =      13.307490 [THz] =     443.890095 [cm-1]
     freq (    6) =      13.517921 [THz] =     450.909321 [cm-1]
 **************************************************************************

     Calculation of q =   -0.3333333  -1.0000000   0.0000000
 
     Parallelization info
     --------------------
     sticks:   dense  smooth     PW     G-vecs:    dense   smooth      PW
     Min          55      27     11                 1097      381     101
     Max          56      28     12                 1100      396     103
     Sum         889     439    187                17573     6231    1639
 


     bravais-lattice index     =            2
     lattice parameter (alat)  =      10.3880  a.u.
     unit-cell volume          =     280.2437 (a.u.)^3
     number of atoms/cell      =            2
     number of atomic types    =            1
     number of electrons       =         8.00
     number of Kohn-Sham states=            4
     kinetic-energy cutoff     =      30.0000  Ry
     charge density cutoff     =     240.0000  Ry
     Exchange-correlation      = SLA  PW   PBE  PBE ( 1  4  3  4 0 0)

     celldm(1)=  10.388000  celldm(2)=   0.000000  celldm(3)=   0.000000
     celldm(4)=   0.000000  celldm(5)=   0.000000  celldm(6)=   0.000000

     crystal axes: (cart. coord. in units of alat)
               a(1) = (  -0.500000   0.000000   0.500000 )  
               a(2) = (   0.000000   0.500000   0.500000 )  
               a(3) = (  -0.500000   0.500000   0.000000 )  

     reciprocal axes: (cart. coord. in units 2 pi/alat)
               b(1) = ( -1.000000 -1.000000  1.000000 )  
               b(2) = (  1.000000  1.000000  1.000000 )  
               b(3) = ( -1.000000  1.000000 -1.000000 )  


     PseudoPot. # 1 for Si read from file:
     ./si_pbe_v1.uspp.F.UPF.txt
     MD5 check sum: a056efeee980c13900f22a371efd63c1
     Pseudo is Ultrasoft + core correction, Zval =  4.0
     Generated by new atomic code, or converted to UPF format
     Using radial grid of  899 points,  6 beta functions with: 
                l(1) =   0
                l(2) =   0
                l(3) =   1
                l(4) =   1
                l(5) =   2
                l(6) =   2
     Q(r) pseudized with  8 coefficients,  rinner =    0.900   0.900   0.900
                                                       0.900   0.900

     atomic species   valence    mass     pseudopotential
        Si             4.00    28.08600     Si( 1.00)

     48 Sym. Ops., with inversion, found



   Cartesian axes

     site n.     atom                  positions (alat units)
         1           Si  tau(   1) = (   0.0000000   0.0000000   0.0000000  )
         2           Si  tau(   2) = (   0.2500000   0.2500000   0.2500000  )

     number of k points=  3456

     Number of k-points >= 100: set verbosity='high' to print them.

     Dense  grid:    17573 G-vectors     FFT dimensions: (  40,  40,  40)

     Smooth grid:     6231 G-vectors     FFT dimensions: (  25,  25,  25)

     Largest allocated arrays     est. size (Mb)     dimensions
        Kohn-Sham Wavefunctions         0.00 Mb     (      55,    4)
        NL pseudopotentials             0.03 Mb     (      55,   36)
        Each V/rho on FFT grid          0.07 Mb     (    4800)
        Each G-vector array             0.01 Mb     (    1100)
        G-vector shells                 0.00 Mb     (     211)
     Largest temporary arrays     est. size (Mb)     dimensions
        Auxiliary wavefunctions         0.01 Mb     (      55,   16)
        Each subspace H/S matrix        0.00 Mb     (       8,    8)
        Each <psi_i|beta_j> matrix      0.00 Mb     (      36,    4)

     The potential is recalculated from file :
     ./silicon/_ph0/silicon.10.388.save/charge-density.dat

     Starting wfc are    8 atomic wfcs

     Band Structure Calculation
     Davidson diagonalization with overlap

     ethr =  1.25E-10,  avg # of iterations = 12.3

     total cpu time spent up to now is      110.0 secs

     End of band structure calculation

     Number of k-points >= 100: set verbosity='high' to print the bands.

     highest occupied level (ev):     5.7805

     Writing output data file silicon.10.388.save

                                                                                

     bravais-lattice index     =            2
     lattice parameter (alat)  =      10.3880  a.u.
     unit-cell volume          =     280.2437 (a.u.)^3
     number of atoms/cell      =            2
     number of atomic types    =            1
     kinetic-energy cut-off    =      30.0000  Ry
     charge density cut-off    =     240.0000  Ry
     convergence threshold     =      1.0E-16
     beta                      =       0.7000
     number of iterations used =            4
     Exchange-correlation      = SLA  PW   PBE  PBE ( 1  4  3  4 0 0)


     celldm(1)=   10.38800  celldm(2)=    0.00000  celldm(3)=    0.00000
     celldm(4)=    0.00000  celldm(5)=    0.00000  celldm(6)=    0.00000

     crystal axes: (cart. coord. in units of alat)
               a(1) = ( -0.5000  0.0000  0.5000 )  
               a(2) = (  0.0000  0.5000  0.5000 )  
               a(3) = ( -0.5000  0.5000  0.0000 )  

     reciprocal axes: (cart. coord. in units 2 pi/alat)
               b(1) = ( -1.0000 -1.0000  1.0000 )  
               b(2) = (  1.0000  1.0000  1.0000 )  
               b(3) = ( -1.0000  1.0000 -1.0000 )  


     Atoms inside the unit cell: 

     Cartesian axes

     site n.  atom      mass           positions (alat units)
        1     Si  28.0860   tau(    1) = (    0.00000    0.00000    0.00000  )
        2     Si  28.0860   tau(    2) = (    0.25000    0.25000    0.25000  )

     Computing dynamical matrix for 
                    q = (  -0.3333333  -1.0000000   0.0000000 )
 
      4 Sym.Ops. (no q -> -q+G )


     G cutoff =  656.0174  (   1100 G-vectors)     FFT grid: ( 40, 40, 40)
     G cutoff =  328.0087  (    385 G-vectors)  smooth grid: ( 25, 25, 25)
     number of k points=  3456

     PseudoPot. # 1 for Si read from file:
     ./si_pbe_v1.uspp.F.UPF.txt
     MD5 check sum: a056efeee980c13900f22a371efd63c1
     Pseudo is Ultrasoft + core correction, Zval =  4.0
     Generated by new atomic code, or converted to UPF format
     Using radial grid of  899 points,  6 beta functions with: 
                l(1) =   0
                l(2) =   0
                l(3) =   1
                l(4) =   1
                l(5) =   2
                l(6) =   2
     Q(r) pseudized with  8 coefficients,  rinner =    0.900   0.900   0.900
                                                       0.900   0.900


     Atomic displacements:
     There are   3 irreducible representations

     Representation     1      2 modes -  To be done

     Representation     2      2 modes -  To be done

     Representation     3      2 modes -  To be done



     Alpha used in Ewald sum =   2.5000
     PHONON       : 20m 0.86s CPU    22m29.78s WALL



     Representation #  1 modes #   1  2

     Self-consistent Calculation

      iter #   1 total cpu time :  1351.0 secs   av.it.:   5.6
      thresh= 1.000E-02 alpha_mix =  0.700 |ddv_scf|^2 =  3.703E-07

      iter #   2 total cpu time :  1353.0 secs   av.it.:  12.0
      thresh= 6.085E-05 alpha_mix =  0.700 |ddv_scf|^2 =  1.991E-07

      iter #   3 total cpu time :  1355.4 secs   av.it.:  11.7
      thresh= 4.462E-05 alpha_mix =  0.700 |ddv_scf|^2 =  3.245E-09

      iter #   4 total cpu time :  1357.0 secs   av.it.:  11.6
      thresh= 5.696E-06 alpha_mix =  0.700 |ddv_scf|^2 =  3.642E-10

      iter #   5 total cpu time :  1359.0 secs   av.it.:  11.5
      thresh= 1.908E-06 alpha_mix =  0.700 |ddv_scf|^2 =  9.921E-13

      iter #   6 total cpu time :  1360.6 secs   av.it.:  11.9
      thresh= 9.960E-08 alpha_mix =  0.700 |ddv_scf|^2 =  3.399E-14

      iter #   7 total cpu time :  1362.8 secs   av.it.:  11.5
      thresh= 1.844E-08 alpha_mix =  0.700 |ddv_scf|^2 =  2.770E-15

      iter #   8 total cpu time :  1364.5 secs   av.it.:  11.5
      thresh= 5.263E-09 alpha_mix =  0.700 |ddv_scf|^2 =  2.570E-17

     End of self-consistent calculation

     Convergence has been achieved 


     Representation #  2 modes #   3  4

     Self-consistent Calculation

      iter #   1 total cpu time :  1366.1 secs   av.it.:   5.8
      thresh= 1.000E-02 alpha_mix =  0.700 |ddv_scf|^2 =  9.393E-07

      iter #   2 total cpu time :  1367.8 secs   av.it.:  12.0
      thresh= 9.692E-05 alpha_mix =  0.700 |ddv_scf|^2 =  1.176E-06

      iter #   3 total cpu time :  1369.3 secs   av.it.:  11.2
      thresh= 1.084E-04 alpha_mix =  0.700 |ddv_scf|^2 =  4.607E-09

      iter #   4 total cpu time :  1370.9 secs   av.it.:  11.7
      thresh= 6.788E-06 alpha_mix =  0.700 |ddv_scf|^2 =  1.830E-10

      iter #   5 total cpu time :  1372.5 secs   av.it.:  11.6
      thresh= 1.353E-06 alpha_mix =  0.700 |ddv_scf|^2 =  3.672E-13

      iter #   6 total cpu time :  1374.4 secs   av.it.:  11.4
      thresh= 6.060E-08 alpha_mix =  0.700 |ddv_scf|^2 =  2.151E-14

      iter #   7 total cpu time :  1376.1 secs   av.it.:  11.4
      thresh= 1.467E-08 alpha_mix =  0.700 |ddv_scf|^2 =  4.535E-16

      iter #   8 total cpu time :  1380.1 secs   av.it.:  11.9
      thresh= 2.130E-09 alpha_mix =  0.700 |ddv_scf|^2 =  1.140E-16

      iter #   9 total cpu time :  1382.7 secs   av.it.:  11.6
      thresh= 1.068E-09 alpha_mix =  0.700 |ddv_scf|^2 =  7.926E-18

     End of self-consistent calculation

     Convergence has been achieved 


     Representation #  3 modes #   5  6

     Self-consistent Calculation

      iter #   1 total cpu time :  1384.9 secs   av.it.:   5.3
      thresh= 1.000E-02 alpha_mix =  0.700 |ddv_scf|^2 =  3.372E-07

      iter #   2 total cpu time :  1386.9 secs   av.it.:  12.0
      thresh= 5.807E-05 alpha_mix =  0.700 |ddv_scf|^2 =  4.225E-07

      iter #   3 total cpu time :  1388.7 secs   av.it.:  11.3
      thresh= 6.500E-05 alpha_mix =  0.700 |ddv_scf|^2 =  2.080E-09

      iter #   4 total cpu time :  1402.3 secs   av.it.:  11.7
      thresh= 4.560E-06 alpha_mix =  0.700 |ddv_scf|^2 =  2.137E-10

      iter #   5 total cpu time :  1404.2 secs   av.it.:  11.6
      thresh= 1.462E-06 alpha_mix =  0.700 |ddv_scf|^2 =  1.773E-12

      iter #   6 total cpu time :  1405.9 secs   av.it.:  11.9
      thresh= 1.332E-07 alpha_mix =  0.700 |ddv_scf|^2 =  4.584E-14

      iter #   7 total cpu time :  1407.5 secs   av.it.:  11.6
      thresh= 2.141E-08 alpha_mix =  0.700 |ddv_scf|^2 =  2.659E-15

      iter #   8 total cpu time :  1409.5 secs   av.it.:  11.6
      thresh= 5.157E-09 alpha_mix =  0.700 |ddv_scf|^2 =  2.100E-17

     End of self-consistent calculation

     Convergence has been achieved 
 
     Number of q in the star =   12
     List of q in the star:
          1  -0.333333333  -1.000000000   0.000000000
          2   0.000000000  -1.000000000  -0.333333333
          3   0.000000000  -1.000000000   0.333333333
          4   0.333333333  -1.000000000   0.000000000
          5  -1.000000000   0.000000000  -0.333333333
          6   1.000000000   0.000000000   0.333333333
          7   0.000000000   0.333333333   1.000000000
          8   0.000000000  -0.333333333  -1.000000000
          9  -1.000000000  -0.333333333   0.000000000
         10   1.000000000   0.333333333   0.000000000
         11  -0.333333333   0.000000000   1.000000000
         12   0.333333333   0.000000000   1.000000000

     Diagonalizing the dynamical matrix

     q = (   -0.333333333  -1.000000000   0.000000000 ) 

 **************************************************************************
     freq (    1) =       5.666661 [THz] =     189.019453 [cm-1]
     freq (    2) =       5.666661 [THz] =     189.019453 [cm-1]
     freq (    3) =      10.544271 [THz] =     351.719017 [cm-1]
     freq (    4) =      10.544271 [THz] =     351.719017 [cm-1]
     freq (    5) =      13.231209 [THz] =     441.345615 [cm-1]
     freq (    6) =      13.231209 [THz] =     441.345615 [cm-1]
 **************************************************************************
 
     init_run     :      0.77s CPU      1.07s WALL (      15 calls)
     electrons    :     47.34s CPU     50.45s WALL (      15 calls)

     Called by init_run:
     wfcinit      :      0.00s CPU      0.17s WALL (      15 calls)
     potinit      :      0.15s CPU      0.24s WALL (      15 calls)

     Called by electrons:
     c_bands      :     47.33s CPU     50.44s WALL (      15 calls)
     v_of_rho     :      0.03s CPU      0.04s WALL (      16 calls)
     newd         :      0.06s CPU      0.07s WALL (      16 calls)

     Called by c_bands:
     init_us_2    :      1.75s CPU      2.06s WALL (   85207 calls)
     cegterg      :     17.65s CPU     18.31s WALL (    2692 calls)

     Called by sum_band:

     Called by *egterg:
     h_psi        :     13.78s CPU     14.15s WALL (   38988 calls)
     s_psi        :     22.03s CPU     24.03s WALL ( 1802253 calls)
     g_psi        :      0.08s CPU      0.09s WALL (   33604 calls)
     cdiaghg      :      2.86s CPU      2.99s WALL (   36296 calls)

     Called by h_psi:
     add_vuspsi   :     12.38s CPU     14.06s WALL (  883027 calls)

     General routines
     calbec       :     51.45s CPU     56.87s WALL ( 1939288 calls)
     fft          :      1.70s CPU      1.67s WALL (   15555 calls)
     ffts         :      6.18s CPU      6.28s WALL (   10518 calls)
     fftw         :    236.98s CPU    257.77s WALL ( 7898648 calls)
     interpolate  :      0.32s CPU      0.32s WALL (    1794 calls)
     davcio       :     15.41s CPU     19.94s WALL (  383426 calls)
 
     Parallel routines
     fft_scatter  :    141.03s CPU    153.15s WALL ( 7924721 calls)
 
     PHONON       : 20m57.21s CPU    23m29.74s WALL

     INITIALIZATION: 
     phq_setup    :      0.22s CPU      1.14s WALL (      16 calls)
     phq_init     :     27.58s CPU     28.39s WALL (      16 calls)
 
     phq_init     :     27.58s CPU     28.39s WALL (      16 calls)
     set_drhoc    :      0.60s CPU      0.62s WALL (      48 calls)
     init_vloc    :      0.00s CPU      0.02s WALL (      16 calls)
     init_us_1    :      0.43s CPU      0.45s WALL (      16 calls)
     newd         :      0.06s CPU      0.07s WALL (      16 calls)
     dvanqq       :      0.50s CPU      0.52s WALL (      16 calls)
     drho         :     22.36s CPU     22.61s WALL (      16 calls)
 
     DYNAMICAL MATRIX:
     dynmat0      :      2.50s CPU      2.75s WALL (      16 calls)
     phqscf       :   1131.15s CPU   1241.17s WALL (      16 calls)
     dynmatrix    :     10.16s CPU     10.54s WALL (      16 calls)
 
     phqscf       :   1131.15s CPU   1241.17s WALL (      16 calls)
     solve_linter :   1128.75s CPU   1231.73s WALL (      76 calls)
     drhodv       :      2.14s CPU      2.55s WALL (      76 calls)
 
     dynmat0      :      2.50s CPU      2.75s WALL (      16 calls)
     dynmat_us    :      2.01s CPU      2.10s WALL (      16 calls)
     d2ionq       :      0.02s CPU      0.01s WALL (      16 calls)
     dynmatcc     :      0.45s CPU      0.45s WALL (      16 calls)
 
     dynmat_us    :      2.01s CPU      2.10s WALL (      16 calls)
     addusdynmat  :      0.00s CPU      0.00s WALL (      16 calls)
 
     phqscf       :   1131.15s CPU   1241.17s WALL (      16 calls)
     solve_linter :   1128.75s CPU   1231.73s WALL (      76 calls)
 
     solve_linter :   1128.75s CPU   1231.73s WALL (      76 calls)
     dvqpsi_us    :     11.01s CPU     11.39s WALL (    8172 calls)
     ortho        :      6.13s CPU      6.60s WALL (   75163 calls)
     cgsolve      :    348.18s CPU    380.23s WALL (   75163 calls)
     incdrhoscf   :     25.63s CPU     27.49s WALL (   75163 calls)
     addusddens   :      3.62s CPU      3.70s WALL (     750 calls)
     vpsifft      :     17.10s CPU     18.80s WALL (   66847 calls)
     dv_of_drho   :      1.26s CPU      1.21s WALL (     835 calls)
     mix_pot      :      1.93s CPU     13.91s WALL (     681 calls)
     psymdvscf    :     14.72s CPU     14.85s WALL (     674 calls)
     newdq        :      3.69s CPU      3.70s WALL (     681 calls)
     adddvscf     :      1.46s CPU      1.52s WALL (   66991 calls)
     drhodvus     :      0.04s CPU      0.05s WALL (      76 calls)
 
     dvqpsi_us    :     11.01s CPU     11.39s WALL (    8172 calls)
     dvqpsi_us_on :      2.92s CPU      2.95s WALL (    8172 calls)
 
     cgsolve      :    348.18s CPU    380.23s WALL (   75163 calls)
     ch_psi       :    321.02s CPU    350.64s WALL (  844039 calls)
 
     ch_psi       :    321.02s CPU    350.64s WALL (  844039 calls)
     h_psiq       :    264.28s CPU    289.45s WALL (  844039 calls)
     last         :     53.90s CPU     58.18s WALL (  844039 calls)
 
     h_psiq       :    264.28s CPU    289.45s WALL (  844039 calls)
     firstfft     :    112.17s CPU    122.95s WALL ( 3172178 calls)
     secondfft    :     94.67s CPU    102.80s WALL ( 3172178 calls)
     add_vuspsi   :     12.38s CPU     14.06s WALL (  883027 calls)
 
     incdrhoscf   :     25.63s CPU     27.49s WALL (   75163 calls)
     addusdbec    :      3.30s CPU      3.49s WALL (   83287 calls)
 
     drhodvus     :      0.04s CPU      0.05s WALL (      76 calls)
 
      General routines
     calbec       :     51.45s CPU     56.87s WALL ( 1939288 calls)
     fft          :      1.70s CPU      1.67s WALL (   15555 calls)
     ffts         :      6.18s CPU      6.28s WALL (   10518 calls)
     fftw         :    236.98s CPU    257.77s WALL ( 7898648 calls)
     davcio       :     15.41s CPU     19.94s WALL (  383426 calls)
     write_rec    :      1.44s CPU     55.19s WALL (     757 calls)
 
 
     PHONON       : 20m57.21s CPU    23m29.74s WALL

 
   This run was terminated on:  16:17:24   7Apr2018            

=------------------------------------------------------------------------------=
   JOB DONE.
=------------------------------------------------------------------------------=
Application 30446557 resources: utime ~509691s, stime ~14894s, Rss ~33048, inblocks ~1125970520, outblocks ~528235365
