
     Program PHONON v.5.4.0 starts on  7Apr2018 at 15:31:30 

     This program is part of the open-source Quantum ESPRESSO suite
     for quantum simulation of materials; please cite
         "P. Giannozzi et al., J. Phys.:Condens. Matter 21 395502 (2009);
          URL http://www.quantum-espresso.org", 
     in publications or presentations arising from this work. More details at
     http://www.quantum-espresso.org/quote

     Parallel version (MPI & OpenMP), running on     384 processor cores
     Number of MPI processes:               384
     Threads/MPI process:                     1
     K-points division:     npool     =      24
     R & G space division:  proc/nbgrp/npool/nimage =      16

     Reading data from directory:
     ./silicon/silicon.10.376.save

   Info: using nr1, nr2, nr3 values from input

   Info: using nr1, nr2, nr3 values from input

     IMPORTANT: XC functional enforced from input :
     Exchange-correlation      = SLA  PW   PBE  PBE ( 1  4  3  4 0 0)
     Any further DFT definition will be discarded
     Please, verify this is what you really want

 
     Parallelization info
     --------------------
     sticks:   dense  smooth     PW     G-vecs:    dense   smooth      PW
     Min          55      27      9                 1091      378      76
     Max          56      28     10                 1093      395      79
     Sum         889     439    151                17477     6183    1243
 


     Dynamical matrices for ( 6, 6, 6)  uniform grid of q-points
     (  16q-points):
       N         xq(1)         xq(2)         xq(3) 
       1   0.000000000   0.000000000   0.000000000
       2  -0.166666667   0.166666667  -0.166666667
       3  -0.333333333   0.333333333  -0.333333333
       4   0.500000000  -0.500000000   0.500000000
       5   0.000000000   0.333333333   0.000000000
       6  -0.166666667   0.500000000  -0.166666667
       7   0.666666667  -0.333333333   0.666666667
       8   0.500000000  -0.166666667   0.500000000
       9   0.333333333   0.000000000   0.333333333
      10   0.000000000   0.666666667   0.000000000
      11   0.833333333  -0.166666667   0.833333333
      12   0.666666667  -0.000000000   0.666666667
      13   0.000000000  -1.000000000   0.000000000
      14   0.666666667  -0.333333333   1.000000000
      15   0.500000000  -0.166666667   0.833333333
      16  -0.333333333  -1.000000000   0.000000000

     Calculation of q =    0.0000000   0.0000000   0.0000000

                                                                                

     bravais-lattice index     =            2
     lattice parameter (alat)  =      10.3760  a.u.
     unit-cell volume          =     279.2736 (a.u.)^3
     number of atoms/cell      =            2
     number of atomic types    =            1
     kinetic-energy cut-off    =      30.0000  Ry
     charge density cut-off    =     240.0000  Ry
     convergence threshold     =      1.0E-16
     beta                      =       0.7000
     number of iterations used =            4
     Exchange-correlation      = SLA  PW   PBE  PBE ( 1  4  3  4 0 0)


     celldm(1)=   10.37600  celldm(2)=    0.00000  celldm(3)=    0.00000
     celldm(4)=    0.00000  celldm(5)=    0.00000  celldm(6)=    0.00000

     crystal axes: (cart. coord. in units of alat)
               a(1) = ( -0.5000  0.0000  0.5000 )  
               a(2) = (  0.0000  0.5000  0.5000 )  
               a(3) = ( -0.5000  0.5000  0.0000 )  

     reciprocal axes: (cart. coord. in units 2 pi/alat)
               b(1) = ( -1.0000 -1.0000  1.0000 )  
               b(2) = (  1.0000  1.0000  1.0000 )  
               b(3) = ( -1.0000  1.0000 -1.0000 )  


     Atoms inside the unit cell: 

     Cartesian axes

     site n.  atom      mass           positions (alat units)
        1     Si  28.0860   tau(    1) = (    0.00000    0.00000    0.00000  )
        2     Si  28.0860   tau(    2) = (    0.25000    0.25000    0.25000  )

     Computing dynamical matrix for 
                    q = (   0.0000000   0.0000000   0.0000000 )
 
     49 Sym.Ops. (with q -> -q+G )


     G cutoff =  654.5027  (   1092 G-vectors)     FFT grid: ( 40, 40, 40)
     G cutoff =  327.2513  (    391 G-vectors)  smooth grid: ( 25, 25, 25)
     number of k points=   182

     PseudoPot. # 1 for Si read from file:
     ./si_pbe_v1.uspp.F.UPF.txt
     MD5 check sum: a056efeee980c13900f22a371efd63c1
     Pseudo is Ultrasoft + core correction, Zval =  4.0
     Generated by new atomic code, or converted to UPF format
     Using radial grid of  899 points,  6 beta functions with: 
                l(1) =   0
                l(2) =   0
                l(3) =   1
                l(4) =   1
                l(5) =   2
                l(6) =   2
     Q(r) pseudized with  8 coefficients,  rinner =    0.900   0.900   0.900
                                                       0.900   0.900

     Mode symmetry, O_h (m-3m)  point group:


     Electric field:
     Dielectric constant
     Born effective charges in two ways 


     Atomic displacements:
     There are   2 irreducible representations

     Representation     1      3 modes -T_2g G_25' G_5+  To be done

     Representation     2      3 modes -T_1u G_15  G_4-  To be done



     Alpha used in Ewald sum =   2.5000
     PHONON       :     3.01s CPU         4.85s WALL


     Electric Fields Calculation

      iter #   1 total cpu time :     5.7 secs   av.it.:   6.5
      thresh= 1.000E-02 alpha_mix =  0.700 |ddv_scf|^2 =  6.786E-08

      iter #   2 total cpu time :     7.0 secs   av.it.:  12.2
      thresh= 2.605E-05 alpha_mix =  0.700 |ddv_scf|^2 =  3.965E-09

      iter #   3 total cpu time :     7.7 secs   av.it.:  12.1
      thresh= 6.297E-06 alpha_mix =  0.700 |ddv_scf|^2 =  2.589E-10

      iter #   4 total cpu time :     9.1 secs   av.it.:  11.4
      thresh= 1.609E-06 alpha_mix =  0.700 |ddv_scf|^2 =  1.731E-12

      iter #   5 total cpu time :     9.8 secs   av.it.:  11.6
      thresh= 1.316E-07 alpha_mix =  0.700 |ddv_scf|^2 =  1.651E-15

      iter #   6 total cpu time :    10.7 secs   av.it.:  11.3
      thresh= 4.063E-09 alpha_mix =  0.700 |ddv_scf|^2 =  1.088E-16

      iter #   7 total cpu time :    11.4 secs   av.it.:  11.9
      thresh= 1.043E-09 alpha_mix =  0.700 |ddv_scf|^2 =  1.737E-19

     End of electric fields calculation

          Dielectric constant in cartesian axis 

          (      13.036807871       0.000000000       0.000000000 )
          (      -0.000000000      13.036807871       0.000000000 )
          (       0.000000000       0.000000000      13.036807871 )

          Effective charges (d Force / dE) in cartesian axis

           atom      1   Si 
      Ex  (        0.02030        0.00000       -0.00000 )
      Ey  (        0.00000        0.02030       -0.00000 )
      Ez  (        0.00000       -0.00000        0.02030 )
           atom      2   Si 
      Ex  (        0.02030       -0.00000       -0.00000 )
      Ey  (       -0.00000        0.02030        0.00000 )
      Ez  (       -0.00000        0.00000        0.02030 )


     Representation #  1 modes #   1  2  3

     Self-consistent Calculation

      iter #   1 total cpu time :    13.8 secs   av.it.:   5.1
      thresh= 1.000E-02 alpha_mix =  0.700 |ddv_scf|^2 =  1.187E-08

      iter #   2 total cpu time :    14.9 secs   av.it.:  12.0
      thresh= 1.089E-05 alpha_mix =  0.700 |ddv_scf|^2 =  4.849E-10

      iter #   3 total cpu time :    16.0 secs   av.it.:  11.8
      thresh= 2.202E-06 alpha_mix =  0.700 |ddv_scf|^2 =  3.294E-11

      iter #   4 total cpu time :    16.6 secs   av.it.:  11.0
      thresh= 5.740E-07 alpha_mix =  0.700 |ddv_scf|^2 =  8.278E-14

      iter #   5 total cpu time :    20.4 secs   av.it.:  11.9
      thresh= 2.877E-08 alpha_mix =  0.700 |ddv_scf|^2 =  7.075E-16

      iter #   6 total cpu time :    21.0 secs   av.it.:  11.8
      thresh= 2.660E-09 alpha_mix =  0.700 |ddv_scf|^2 =  1.227E-17

     End of self-consistent calculation

     Convergence has been achieved 


     Representation #  2 modes #   4  5  6

     Self-consistent Calculation

      iter #   1 total cpu time :    21.8 secs   av.it.:   5.2
      thresh= 1.000E-02 alpha_mix =  0.700 |ddv_scf|^2 =  9.360E-09

      iter #   2 total cpu time :    22.7 secs   av.it.:  12.0
      thresh= 9.675E-06 alpha_mix =  0.700 |ddv_scf|^2 =  5.499E-10

      iter #   3 total cpu time :    23.7 secs   av.it.:  11.8
      thresh= 2.345E-06 alpha_mix =  0.700 |ddv_scf|^2 =  3.419E-11

      iter #   4 total cpu time :    24.4 secs   av.it.:  11.8
      thresh= 5.847E-07 alpha_mix =  0.700 |ddv_scf|^2 =  1.347E-13

      iter #   5 total cpu time :    25.6 secs   av.it.:  11.7
      thresh= 3.671E-08 alpha_mix =  0.700 |ddv_scf|^2 =  3.559E-16

      iter #   6 total cpu time :    27.0 secs   av.it.:  12.0
      thresh= 1.887E-09 alpha_mix =  0.700 |ddv_scf|^2 =  2.978E-17

     End of self-consistent calculation

     Convergence has been achieved 
 
     Number of q in the star =    1
     List of q in the star:
          1   0.000000000   0.000000000   0.000000000

          Dielectric constant in cartesian axis 

          (      13.036807871       0.000000000       0.000000000 )
          (      -0.000000000      13.036807871       0.000000000 )
          (       0.000000000       0.000000000      13.036807871 )

          Effective charges (d Force / dE) in cartesian axis

           atom      1   Si 
      Ex  (        0.02030        0.00000       -0.00000 )
      Ey  (        0.00000        0.02030       -0.00000 )
      Ez  (        0.00000       -0.00000        0.02030 )
           atom      2   Si 
      Ex  (        0.02030       -0.00000       -0.00000 )
      Ey  (       -0.00000        0.02030        0.00000 )
      Ez  (       -0.00000        0.00000        0.02030 )

          Effective charges (d P / du) in cartesian axis 

           atom      1   Si 
      Px  (       -0.00050        0.00000        0.00000 )
      Py  (        0.00000       -0.00050       -0.00000 )
      Pz  (        0.00000       -0.00000       -0.00050 )
           atom      2   Si 
      Px  (       -0.00050       -0.00000       -0.00000 )
      Py  (       -0.00000       -0.00050       -0.00000 )
      Pz  (       -0.00000       -0.00000       -0.00050 )

     Diagonalizing the dynamical matrix

     q = (    0.000000000   0.000000000   0.000000000 ) 

 **************************************************************************
     freq (    1) =      -0.123402 [THz] =      -4.116236 [cm-1]
     freq (    2) =      -0.123402 [THz] =      -4.116236 [cm-1]
     freq (    3) =      -0.123402 [THz] =      -4.116236 [cm-1]
     freq (    4) =      14.898213 [THz] =     496.950893 [cm-1]
     freq (    5) =      14.898213 [THz] =     496.950893 [cm-1]
     freq (    6) =      14.898213 [THz] =     496.950893 [cm-1]
 **************************************************************************

     Mode symmetry, O_h (m-3m)  point group:

     freq (  1 -  3) =         -4.1  [cm-1]   --> T_1u G_15  G_4- I  
     freq (  4 -  6) =        497.0  [cm-1]   --> T_2g G_25' G_5+ R  

     Calculation of q =   -0.1666667   0.1666667  -0.1666667
 
     Parallelization info
     --------------------
     sticks:   dense  smooth     PW     G-vecs:    dense   smooth      PW
     Min          55      27     10                 1091      378      84
     Max          56      28     11                 1093      395      86
     Sum         889     439    163                17477     6183    1363
 


     bravais-lattice index     =            2
     lattice parameter (alat)  =      10.3760  a.u.
     unit-cell volume          =     279.2736 (a.u.)^3
     number of atoms/cell      =            2
     number of atomic types    =            1
     number of electrons       =         8.00
     number of Kohn-Sham states=            4
     kinetic-energy cutoff     =      30.0000  Ry
     charge density cutoff     =     240.0000  Ry
     Exchange-correlation      = SLA  PW   PBE  PBE ( 1  4  3  4 0 0)

     celldm(1)=  10.376000  celldm(2)=   0.000000  celldm(3)=   0.000000
     celldm(4)=   0.000000  celldm(5)=   0.000000  celldm(6)=   0.000000

     crystal axes: (cart. coord. in units of alat)
               a(1) = (  -0.500000   0.000000   0.500000 )  
               a(2) = (   0.000000   0.500000   0.500000 )  
               a(3) = (  -0.500000   0.500000   0.000000 )  

     reciprocal axes: (cart. coord. in units 2 pi/alat)
               b(1) = ( -1.000000 -1.000000  1.000000 )  
               b(2) = (  1.000000  1.000000  1.000000 )  
               b(3) = ( -1.000000  1.000000 -1.000000 )  


     PseudoPot. # 1 for Si read from file:
     ./si_pbe_v1.uspp.F.UPF.txt
     MD5 check sum: a056efeee980c13900f22a371efd63c1
     Pseudo is Ultrasoft + core correction, Zval =  4.0
     Generated by new atomic code, or converted to UPF format
     Using radial grid of  899 points,  6 beta functions with: 
                l(1) =   0
                l(2) =   0
                l(3) =   1
                l(4) =   1
                l(5) =   2
                l(6) =   2
     Q(r) pseudized with  8 coefficients,  rinner =    0.900   0.900   0.900
                                                       0.900   0.900

     atomic species   valence    mass     pseudopotential
        Si             4.00    28.08600     Si( 1.00)

     48 Sym. Ops., with inversion, found



   Cartesian axes

     site n.     atom                  positions (alat units)
         1           Si  tau(   1) = (   0.0000000   0.0000000   0.0000000  )
         2           Si  tau(   2) = (   0.2500000   0.2500000   0.2500000  )

     number of k points=  2600

     Number of k-points >= 100: set verbosity='high' to print them.

     Dense  grid:    17477 G-vectors     FFT dimensions: (  40,  40,  40)

     Smooth grid:     6183 G-vectors     FFT dimensions: (  25,  25,  25)

     Largest allocated arrays     est. size (Mb)     dimensions
        Kohn-Sham Wavefunctions         0.00 Mb     (      58,    4)
        NL pseudopotentials             0.03 Mb     (      58,   36)
        Each V/rho on FFT grid          0.07 Mb     (    4800)
        Each G-vector array             0.01 Mb     (    1092)
        G-vector shells                 0.00 Mb     (     207)
     Largest temporary arrays     est. size (Mb)     dimensions
        Auxiliary wavefunctions         0.01 Mb     (      58,   16)
        Each subspace H/S matrix        0.00 Mb     (       8,    8)
        Each <psi_i|beta_j> matrix      0.00 Mb     (      36,    4)

     The potential is recalculated from file :
     ./silicon/_ph0/silicon.10.376.save/charge-density.dat

     Starting wfc are    8 atomic wfcs

     Band Structure Calculation
     Davidson diagonalization with overlap

     ethr =  1.25E-10,  avg # of iterations = 12.4

     total cpu time spent up to now is        2.4 secs

     End of band structure calculation

     Number of k-points >= 100: set verbosity='high' to print the bands.

     highest occupied level (ev):     5.8154

     Writing output data file silicon.10.376.save

                                                                                

     bravais-lattice index     =            2
     lattice parameter (alat)  =      10.3760  a.u.
     unit-cell volume          =     279.2736 (a.u.)^3
     number of atoms/cell      =            2
     number of atomic types    =            1
     kinetic-energy cut-off    =      30.0000  Ry
     charge density cut-off    =     240.0000  Ry
     convergence threshold     =      1.0E-16
     beta                      =       0.7000
     number of iterations used =            4
     Exchange-correlation      = SLA  PW   PBE  PBE ( 1  4  3  4 0 0)


     celldm(1)=   10.37600  celldm(2)=    0.00000  celldm(3)=    0.00000
     celldm(4)=    0.00000  celldm(5)=    0.00000  celldm(6)=    0.00000

     crystal axes: (cart. coord. in units of alat)
               a(1) = ( -0.5000  0.0000  0.5000 )  
               a(2) = (  0.0000  0.5000  0.5000 )  
               a(3) = ( -0.5000  0.5000  0.0000 )  

     reciprocal axes: (cart. coord. in units 2 pi/alat)
               b(1) = ( -1.0000 -1.0000  1.0000 )  
               b(2) = (  1.0000  1.0000  1.0000 )  
               b(3) = ( -1.0000  1.0000 -1.0000 )  


     Atoms inside the unit cell: 

     Cartesian axes

     site n.  atom      mass           positions (alat units)
        1     Si  28.0860   tau(    1) = (    0.00000    0.00000    0.00000  )
        2     Si  28.0860   tau(    2) = (    0.25000    0.25000    0.25000  )

     Computing dynamical matrix for 
                    q = (  -0.1666667   0.1666667  -0.1666667 )
 
      6 Sym.Ops. (no q -> -q+G )


     G cutoff =  654.5027  (   1092 G-vectors)     FFT grid: ( 40, 40, 40)
     G cutoff =  327.2513  (    390 G-vectors)  smooth grid: ( 25, 25, 25)
     number of k points=  2600

     PseudoPot. # 1 for Si read from file:
     ./si_pbe_v1.uspp.F.UPF.txt
     MD5 check sum: a056efeee980c13900f22a371efd63c1
     Pseudo is Ultrasoft + core correction, Zval =  4.0
     Generated by new atomic code, or converted to UPF format
     Using radial grid of  899 points,  6 beta functions with: 
                l(1) =   0
                l(2) =   0
                l(3) =   1
                l(4) =   1
                l(5) =   2
                l(6) =   2
     Q(r) pseudized with  8 coefficients,  rinner =    0.900   0.900   0.900
                                                       0.900   0.900

     Mode symmetry, C_3v (3m)   point group:


     Atomic displacements:
     There are   4 irreducible representations

     Representation     1      1 modes -A_1  L_1  To be done

     Representation     2      1 modes -A_1  L_1  To be done

     Representation     3      2 modes -E    L_3  To be done

     Representation     4      2 modes -E    L_3  To be done



     Alpha used in Ewald sum =   2.5000
     PHONON       :    27.82s CPU        33.22s WALL



     Representation #  1 mode #   1

     Self-consistent Calculation

      iter #   1 total cpu time :    33.8 secs   av.it.:   6.1
      thresh= 1.000E-02 alpha_mix =  0.700 |ddv_scf|^2 =  9.670E-04

      iter #   2 total cpu time :    34.4 secs   av.it.:   9.2
      thresh= 3.110E-03 alpha_mix =  0.700 |ddv_scf|^2 =  3.024E-02

      iter #   3 total cpu time :    34.9 secs   av.it.:   7.2
      thresh= 1.000E-02 alpha_mix =  0.700 |ddv_scf|^2 =  3.074E-07

      iter #   4 total cpu time :    35.5 secs   av.it.:   9.8
      thresh= 5.544E-05 alpha_mix =  0.700 |ddv_scf|^2 =  5.791E-09

      iter #   5 total cpu time :    37.3 secs   av.it.:  10.5
      thresh= 7.610E-06 alpha_mix =  0.700 |ddv_scf|^2 =  8.327E-10

      iter #   6 total cpu time :    37.9 secs   av.it.:   9.6
      thresh= 2.886E-06 alpha_mix =  0.700 |ddv_scf|^2 =  4.342E-10

      iter #   7 total cpu time :    38.4 secs   av.it.:   7.1
      thresh= 2.084E-06 alpha_mix =  0.700 |ddv_scf|^2 =  5.879E-11

      iter #   8 total cpu time :    40.6 secs   av.it.:   9.2
      thresh= 7.667E-07 alpha_mix =  0.700 |ddv_scf|^2 =  1.084E-12

      iter #   9 total cpu time :    41.1 secs   av.it.:   8.3
      thresh= 1.041E-07 alpha_mix =  0.700 |ddv_scf|^2 =  4.083E-14

      iter #  10 total cpu time :    42.4 secs   av.it.:   9.0
      thresh= 2.021E-08 alpha_mix =  0.700 |ddv_scf|^2 =  9.442E-15

      iter #  11 total cpu time :    43.0 secs   av.it.:   9.3
      thresh= 9.717E-09 alpha_mix =  0.700 |ddv_scf|^2 =  4.312E-16

      iter #  12 total cpu time :    44.3 secs   av.it.:   9.8
      thresh= 2.077E-09 alpha_mix =  0.700 |ddv_scf|^2 =  2.359E-17

     End of self-consistent calculation

     Convergence has been achieved 


     Representation #  2 mode #   2

     Self-consistent Calculation

      iter #   1 total cpu time :    45.5 secs   av.it.:   6.1
      thresh= 1.000E-02 alpha_mix =  0.700 |ddv_scf|^2 =  9.670E-04

      iter #   2 total cpu time :    46.5 secs   av.it.:   9.2
      thresh= 3.110E-03 alpha_mix =  0.700 |ddv_scf|^2 =  3.024E-02

      iter #   3 total cpu time :    47.7 secs   av.it.:   7.2
      thresh= 1.000E-02 alpha_mix =  0.700 |ddv_scf|^2 =  3.074E-07

      iter #   4 total cpu time :    49.1 secs   av.it.:   9.8
      thresh= 5.544E-05 alpha_mix =  0.700 |ddv_scf|^2 =  5.791E-09

      iter #   5 total cpu time :    49.7 secs   av.it.:  10.5
      thresh= 7.610E-06 alpha_mix =  0.700 |ddv_scf|^2 =  8.327E-10

      iter #   6 total cpu time :    50.9 secs   av.it.:   9.6
      thresh= 2.886E-06 alpha_mix =  0.700 |ddv_scf|^2 =  4.342E-10

      iter #   7 total cpu time :    51.4 secs   av.it.:   7.1
      thresh= 2.084E-06 alpha_mix =  0.700 |ddv_scf|^2 =  5.879E-11

      iter #   8 total cpu time :    51.9 secs   av.it.:   9.2
      thresh= 7.667E-07 alpha_mix =  0.700 |ddv_scf|^2 =  1.084E-12

      iter #   9 total cpu time :    52.8 secs   av.it.:   8.3
      thresh= 1.041E-07 alpha_mix =  0.700 |ddv_scf|^2 =  4.083E-14

      iter #  10 total cpu time :    53.4 secs   av.it.:   9.0
      thresh= 2.021E-08 alpha_mix =  0.700 |ddv_scf|^2 =  9.442E-15

      iter #  11 total cpu time :    53.9 secs   av.it.:   9.3
      thresh= 9.717E-09 alpha_mix =  0.700 |ddv_scf|^2 =  4.312E-16

      iter #  12 total cpu time :    54.5 secs   av.it.:   9.8
      thresh= 2.077E-09 alpha_mix =  0.700 |ddv_scf|^2 =  2.359E-17

     End of self-consistent calculation

     Convergence has been achieved 


     Representation #  3 modes #   3  4

     Self-consistent Calculation

      iter #   1 total cpu time :    55.5 secs   av.it.:   5.3
      thresh= 1.000E-02 alpha_mix =  0.700 |ddv_scf|^2 =  2.881E-08

      iter #   2 total cpu time :    56.8 secs   av.it.:  11.8
      thresh= 1.697E-05 alpha_mix =  0.700 |ddv_scf|^2 =  1.626E-09

      iter #   3 total cpu time :    59.0 secs   av.it.:  11.6
      thresh= 4.033E-06 alpha_mix =  0.700 |ddv_scf|^2 =  9.858E-11

      iter #   4 total cpu time :    62.5 secs   av.it.:  11.3
      thresh= 9.928E-07 alpha_mix =  0.700 |ddv_scf|^2 =  4.312E-13

      iter #   5 total cpu time :    71.1 secs   av.it.:  11.7
      thresh= 6.566E-08 alpha_mix =  0.700 |ddv_scf|^2 =  2.825E-14

      iter #   6 total cpu time :    72.9 secs   av.it.:  11.6
      thresh= 1.681E-08 alpha_mix =  0.700 |ddv_scf|^2 =  1.676E-16

      iter #   7 total cpu time :    74.3 secs   av.it.:  11.0
      thresh= 1.295E-09 alpha_mix =  0.700 |ddv_scf|^2 =  1.426E-17

     End of self-consistent calculation

     Convergence has been achieved 


     Representation #  4 modes #   5  6

     Self-consistent Calculation

      iter #   1 total cpu time :    75.8 secs   av.it.:   5.3
      thresh= 1.000E-02 alpha_mix =  0.700 |ddv_scf|^2 =  2.882E-08

      iter #   2 total cpu time :    77.1 secs   av.it.:  12.0
      thresh= 1.698E-05 alpha_mix =  0.700 |ddv_scf|^2 =  1.627E-09

      iter #   3 total cpu time :    78.8 secs   av.it.:  11.9
      thresh= 4.034E-06 alpha_mix =  0.700 |ddv_scf|^2 =  9.858E-11

      iter #   4 total cpu time :    88.2 secs   av.it.:  11.6
      thresh= 9.929E-07 alpha_mix =  0.700 |ddv_scf|^2 =  4.310E-13

      iter #   5 total cpu time :    89.6 secs   av.it.:  11.9
      thresh= 6.565E-08 alpha_mix =  0.700 |ddv_scf|^2 =  2.822E-14

      iter #   6 total cpu time :    90.8 secs   av.it.:  11.8
      thresh= 1.680E-08 alpha_mix =  0.700 |ddv_scf|^2 =  1.673E-16

      iter #   7 total cpu time :    92.2 secs   av.it.:  11.1
      thresh= 1.293E-09 alpha_mix =  0.700 |ddv_scf|^2 =  1.423E-17

     End of self-consistent calculation

     Convergence has been achieved 
 
     Number of q in the star =    8
     List of q in the star:
          1  -0.166666667   0.166666667  -0.166666667
          2   0.166666667   0.166666667   0.166666667
          3  -0.166666667  -0.166666667  -0.166666667
          4   0.166666667  -0.166666667   0.166666667
          5   0.166666667  -0.166666667  -0.166666667
          6   0.166666667   0.166666667  -0.166666667
          7  -0.166666667  -0.166666667   0.166666667
          8  -0.166666667   0.166666667   0.166666667

     Diagonalizing the dynamical matrix

     q = (   -0.166666667   0.166666667  -0.166666667 ) 

 **************************************************************************
     freq (    1) =       2.233596 [THz] =      74.504735 [cm-1]
     freq (    2) =       2.233596 [THz] =      74.504735 [cm-1]
     freq (    3) =       4.589276 [THz] =     153.081766 [cm-1]
     freq (    4) =      14.517587 [THz] =     484.254561 [cm-1]
     freq (    5) =      14.524206 [THz] =     484.475376 [cm-1]
     freq (    6) =      14.524206 [THz] =     484.475376 [cm-1]
 **************************************************************************

     Mode symmetry, C_3v (3m)   point group:

     freq (  1 -  2) =         74.5  [cm-1]   --> E    L_3           
     freq (  3 -  3) =        153.1  [cm-1]   --> A_1  L_1           
     freq (  4 -  4) =        484.3  [cm-1]   --> A_1  L_1           
     freq (  5 -  6) =        484.5  [cm-1]   --> E    L_3           

     Calculation of q =   -0.3333333   0.3333333  -0.3333333
 
     Parallelization info
     --------------------
     sticks:   dense  smooth     PW     G-vecs:    dense   smooth      PW
     Min          55      27     10                 1091      380      87
     Max          56      28     11                 1093      392      90
     Sum         889     439    163                17477     6183    1411
 


     bravais-lattice index     =            2
     lattice parameter (alat)  =      10.3760  a.u.
     unit-cell volume          =     279.2736 (a.u.)^3
     number of atoms/cell      =            2
     number of atomic types    =            1
     number of electrons       =         8.00
     number of Kohn-Sham states=            4
     kinetic-energy cutoff     =      30.0000  Ry
     charge density cutoff     =     240.0000  Ry
     Exchange-correlation      = SLA  PW   PBE  PBE ( 1  4  3  4 0 0)

     celldm(1)=  10.376000  celldm(2)=   0.000000  celldm(3)=   0.000000
     celldm(4)=   0.000000  celldm(5)=   0.000000  celldm(6)=   0.000000

     crystal axes: (cart. coord. in units of alat)
               a(1) = (  -0.500000   0.000000   0.500000 )  
               a(2) = (   0.000000   0.500000   0.500000 )  
               a(3) = (  -0.500000   0.500000   0.000000 )  

     reciprocal axes: (cart. coord. in units 2 pi/alat)
               b(1) = ( -1.000000 -1.000000  1.000000 )  
               b(2) = (  1.000000  1.000000  1.000000 )  
               b(3) = ( -1.000000  1.000000 -1.000000 )  


     PseudoPot. # 1 for Si read from file:
     ./si_pbe_v1.uspp.F.UPF.txt
     MD5 check sum: a056efeee980c13900f22a371efd63c1
     Pseudo is Ultrasoft + core correction, Zval =  4.0
     Generated by new atomic code, or converted to UPF format
     Using radial grid of  899 points,  6 beta functions with: 
                l(1) =   0
                l(2) =   0
                l(3) =   1
                l(4) =   1
                l(5) =   2
                l(6) =   2
     Q(r) pseudized with  8 coefficients,  rinner =    0.900   0.900   0.900
                                                       0.900   0.900

     atomic species   valence    mass     pseudopotential
        Si             4.00    28.08600     Si( 1.00)

     48 Sym. Ops., with inversion, found



   Cartesian axes

     site n.     atom                  positions (alat units)
         1           Si  tau(   1) = (   0.0000000   0.0000000   0.0000000  )
         2           Si  tau(   2) = (   0.2500000   0.2500000   0.2500000  )

     number of k points=  2600

     Number of k-points >= 100: set verbosity='high' to print them.

     Dense  grid:    17477 G-vectors     FFT dimensions: (  40,  40,  40)

     Smooth grid:     6183 G-vectors     FFT dimensions: (  25,  25,  25)

     Largest allocated arrays     est. size (Mb)     dimensions
        Kohn-Sham Wavefunctions         0.00 Mb     (      56,    4)
        NL pseudopotentials             0.03 Mb     (      56,   36)
        Each V/rho on FFT grid          0.07 Mb     (    4800)
        Each G-vector array             0.01 Mb     (    1092)
        G-vector shells                 0.00 Mb     (     208)
     Largest temporary arrays     est. size (Mb)     dimensions
        Auxiliary wavefunctions         0.01 Mb     (      56,   16)
        Each subspace H/S matrix        0.00 Mb     (       8,    8)
        Each <psi_i|beta_j> matrix      0.00 Mb     (      36,    4)

     The potential is recalculated from file :
     ./silicon/_ph0/silicon.10.376.save/charge-density.dat

     Starting wfc are    8 atomic wfcs

     Band Structure Calculation
     Davidson diagonalization with overlap

     ethr =  1.25E-10,  avg # of iterations = 12.4

     total cpu time spent up to now is        6.3 secs

     End of band structure calculation

     Number of k-points >= 100: set verbosity='high' to print the bands.

     highest occupied level (ev):     5.8154

     Writing output data file silicon.10.376.save

                                                                                

     bravais-lattice index     =            2
     lattice parameter (alat)  =      10.3760  a.u.
     unit-cell volume          =     279.2736 (a.u.)^3
     number of atoms/cell      =            2
     number of atomic types    =            1
     kinetic-energy cut-off    =      30.0000  Ry
     charge density cut-off    =     240.0000  Ry
     convergence threshold     =      1.0E-16
     beta                      =       0.7000
     number of iterations used =            4
     Exchange-correlation      = SLA  PW   PBE  PBE ( 1  4  3  4 0 0)


     celldm(1)=   10.37600  celldm(2)=    0.00000  celldm(3)=    0.00000
     celldm(4)=    0.00000  celldm(5)=    0.00000  celldm(6)=    0.00000

     crystal axes: (cart. coord. in units of alat)
               a(1) = ( -0.5000  0.0000  0.5000 )  
               a(2) = (  0.0000  0.5000  0.5000 )  
               a(3) = ( -0.5000  0.5000  0.0000 )  

     reciprocal axes: (cart. coord. in units 2 pi/alat)
               b(1) = ( -1.0000 -1.0000  1.0000 )  
               b(2) = (  1.0000  1.0000  1.0000 )  
               b(3) = ( -1.0000  1.0000 -1.0000 )  


     Atoms inside the unit cell: 

     Cartesian axes

     site n.  atom      mass           positions (alat units)
        1     Si  28.0860   tau(    1) = (    0.00000    0.00000    0.00000  )
        2     Si  28.0860   tau(    2) = (    0.25000    0.25000    0.25000  )

     Computing dynamical matrix for 
                    q = (  -0.3333333   0.3333333  -0.3333333 )
 
      6 Sym.Ops. (no q -> -q+G )


     G cutoff =  654.5027  (   1092 G-vectors)     FFT grid: ( 40, 40, 40)
     G cutoff =  327.2513  (    390 G-vectors)  smooth grid: ( 25, 25, 25)
     number of k points=  2600

     PseudoPot. # 1 for Si read from file:
     ./si_pbe_v1.uspp.F.UPF.txt
     MD5 check sum: a056efeee980c13900f22a371efd63c1
     Pseudo is Ultrasoft + core correction, Zval =  4.0
     Generated by new atomic code, or converted to UPF format
     Using radial grid of  899 points,  6 beta functions with: 
                l(1) =   0
                l(2) =   0
                l(3) =   1
                l(4) =   1
                l(5) =   2
                l(6) =   2
     Q(r) pseudized with  8 coefficients,  rinner =    0.900   0.900   0.900
                                                       0.900   0.900

     Mode symmetry, C_3v (3m)   point group:


     Atomic displacements:
     There are   4 irreducible representations

     Representation     1      1 modes -A_1  L_1  To be done

     Representation     2      1 modes -A_1  L_1  To be done

     Representation     3      2 modes -E    L_3  To be done

     Representation     4      2 modes -E    L_3  To be done



     Alpha used in Ewald sum =   2.5000
     PHONON       :  1m26.42s CPU     1m37.78s WALL



     Representation #  1 mode #   1

     Self-consistent Calculation

      iter #   1 total cpu time :    98.9 secs   av.it.:   6.0
      thresh= 1.000E-02 alpha_mix =  0.700 |ddv_scf|^2 =  6.177E-05

      iter #   2 total cpu time :    99.7 secs   av.it.:  10.2
      thresh= 7.860E-04 alpha_mix =  0.700 |ddv_scf|^2 =  4.764E-04

      iter #   3 total cpu time :   100.2 secs   av.it.:   8.4
      thresh= 2.183E-03 alpha_mix =  0.700 |ddv_scf|^2 =  9.654E-08

      iter #   4 total cpu time :   101.4 secs   av.it.:  10.6
      thresh= 3.107E-05 alpha_mix =  0.700 |ddv_scf|^2 =  2.307E-09

      iter #   5 total cpu time :   102.0 secs   av.it.:  10.7
      thresh= 4.803E-06 alpha_mix =  0.700 |ddv_scf|^2 =  6.260E-11

      iter #   6 total cpu time :   102.7 secs   av.it.:  10.9
      thresh= 7.912E-07 alpha_mix =  0.700 |ddv_scf|^2 =  3.783E-12

      iter #   7 total cpu time :   103.4 secs   av.it.:  11.0
      thresh= 1.945E-07 alpha_mix =  0.700 |ddv_scf|^2 =  3.992E-12

      iter #   8 total cpu time :   103.9 secs   av.it.:   8.7
      thresh= 1.998E-07 alpha_mix =  0.700 |ddv_scf|^2 =  1.476E-13

      iter #   9 total cpu time :   104.5 secs   av.it.:  10.1
      thresh= 3.842E-08 alpha_mix =  0.700 |ddv_scf|^2 =  2.643E-13

      iter #  10 total cpu time :   105.1 secs   av.it.:   9.2
      thresh= 5.141E-08 alpha_mix =  0.700 |ddv_scf|^2 =  1.883E-15

      iter #  11 total cpu time :   106.3 secs   av.it.:  10.4
      thresh= 4.340E-09 alpha_mix =  0.700 |ddv_scf|^2 =  3.500E-16

      iter #  12 total cpu time :   107.5 secs   av.it.:  10.0
      thresh= 1.871E-09 alpha_mix =  0.700 |ddv_scf|^2 =  9.430E-18

     End of self-consistent calculation

     Convergence has been achieved 


     Representation #  2 mode #   2

     Self-consistent Calculation

      iter #   1 total cpu time :   108.2 secs   av.it.:   6.0
      thresh= 1.000E-02 alpha_mix =  0.700 |ddv_scf|^2 =  6.177E-05

      iter #   2 total cpu time :   110.1 secs   av.it.:  10.2
      thresh= 7.860E-04 alpha_mix =  0.700 |ddv_scf|^2 =  4.764E-04

      iter #   3 total cpu time :   110.9 secs   av.it.:   8.4
      thresh= 2.183E-03 alpha_mix =  0.700 |ddv_scf|^2 =  9.654E-08

      iter #   4 total cpu time :   111.5 secs   av.it.:  10.6
      thresh= 3.107E-05 alpha_mix =  0.700 |ddv_scf|^2 =  2.307E-09

      iter #   5 total cpu time :   113.5 secs   av.it.:  10.7
      thresh= 4.803E-06 alpha_mix =  0.700 |ddv_scf|^2 =  6.260E-11

      iter #   6 total cpu time :   115.1 secs   av.it.:  10.9
      thresh= 7.912E-07 alpha_mix =  0.700 |ddv_scf|^2 =  3.783E-12

      iter #   7 total cpu time :   116.2 secs   av.it.:  11.0
      thresh= 1.945E-07 alpha_mix =  0.700 |ddv_scf|^2 =  3.992E-12

      iter #   8 total cpu time :   117.6 secs   av.it.:   8.7
      thresh= 1.998E-07 alpha_mix =  0.700 |ddv_scf|^2 =  1.476E-13

      iter #   9 total cpu time :   119.5 secs   av.it.:  10.1
      thresh= 3.842E-08 alpha_mix =  0.700 |ddv_scf|^2 =  2.643E-13

      iter #  10 total cpu time :   121.4 secs   av.it.:   9.2
      thresh= 5.141E-08 alpha_mix =  0.700 |ddv_scf|^2 =  1.883E-15

      iter #  11 total cpu time :   122.0 secs   av.it.:  10.4
      thresh= 4.340E-09 alpha_mix =  0.700 |ddv_scf|^2 =  3.500E-16

      iter #  12 total cpu time :   123.2 secs   av.it.:  10.0
      thresh= 1.871E-09 alpha_mix =  0.700 |ddv_scf|^2 =  9.430E-18

     End of self-consistent calculation

     Convergence has been achieved 


     Representation #  3 modes #   3  4

     Self-consistent Calculation

      iter #   1 total cpu time :   124.8 secs   av.it.:   5.2
      thresh= 1.000E-02 alpha_mix =  0.700 |ddv_scf|^2 =  3.754E-08

      iter #   2 total cpu time :   126.6 secs   av.it.:  11.8
      thresh= 1.937E-05 alpha_mix =  0.700 |ddv_scf|^2 =  2.670E-09

      iter #   3 total cpu time :   127.9 secs   av.it.:  11.6
      thresh= 5.167E-06 alpha_mix =  0.700 |ddv_scf|^2 =  1.227E-10

      iter #   4 total cpu time :   129.1 secs   av.it.:  11.3
      thresh= 1.108E-06 alpha_mix =  0.700 |ddv_scf|^2 =  4.449E-13

      iter #   5 total cpu time :   131.3 secs   av.it.:  11.6
      thresh= 6.670E-08 alpha_mix =  0.700 |ddv_scf|^2 =  2.873E-14

      iter #   6 total cpu time :   133.9 secs   av.it.:  11.4
      thresh= 1.695E-08 alpha_mix =  0.700 |ddv_scf|^2 =  2.075E-16

      iter #   7 total cpu time :   135.5 secs   av.it.:  11.1
      thresh= 1.441E-09 alpha_mix =  0.700 |ddv_scf|^2 =  1.451E-17

     End of self-consistent calculation

     Convergence has been achieved 


     Representation #  4 modes #   5  6

     Self-consistent Calculation

      iter #   1 total cpu time :   137.7 secs   av.it.:   5.3
      thresh= 1.000E-02 alpha_mix =  0.700 |ddv_scf|^2 =  3.754E-08

      iter #   2 total cpu time :   139.1 secs   av.it.:  12.1
      thresh= 1.937E-05 alpha_mix =  0.700 |ddv_scf|^2 =  2.669E-09

      iter #   3 total cpu time :   140.5 secs   av.it.:  11.9
      thresh= 5.166E-06 alpha_mix =  0.700 |ddv_scf|^2 =  1.226E-10

      iter #   4 total cpu time :   141.9 secs   av.it.:  11.5
      thresh= 1.107E-06 alpha_mix =  0.700 |ddv_scf|^2 =  4.451E-13

      iter #   5 total cpu time :   143.1 secs   av.it.:  11.8
      thresh= 6.671E-08 alpha_mix =  0.700 |ddv_scf|^2 =  2.874E-14

      iter #   6 total cpu time :   144.4 secs   av.it.:  11.6
      thresh= 1.695E-08 alpha_mix =  0.700 |ddv_scf|^2 =  2.070E-16

      iter #   7 total cpu time :   145.7 secs   av.it.:  11.3
      thresh= 1.439E-09 alpha_mix =  0.700 |ddv_scf|^2 =  1.448E-17

     End of self-consistent calculation

     Convergence has been achieved 
 
     Number of q in the star =    8
     List of q in the star:
          1  -0.333333333   0.333333333  -0.333333333
          2   0.333333333   0.333333333   0.333333333
          3  -0.333333333  -0.333333333  -0.333333333
          4   0.333333333  -0.333333333   0.333333333
          5   0.333333333  -0.333333333  -0.333333333
          6   0.333333333   0.333333333  -0.333333333
          7  -0.333333333  -0.333333333   0.333333333
          8  -0.333333333   0.333333333   0.333333333

     Diagonalizing the dynamical matrix

     q = (   -0.333333333   0.333333333  -0.333333333 ) 

 **************************************************************************
     freq (    1) =       3.206449 [THz] =     106.955630 [cm-1]
     freq (    2) =       3.206449 [THz] =     106.955630 [cm-1]
     freq (    3) =       8.489661 [THz] =     283.184614 [cm-1]
     freq (    4) =      13.362135 [THz] =     445.712834 [cm-1]
     freq (    5) =      14.168299 [THz] =     472.603572 [cm-1]
     freq (    6) =      14.168299 [THz] =     472.603572 [cm-1]
 **************************************************************************

     Mode symmetry, C_3v (3m)   point group:

     freq (  1 -  2) =        107.0  [cm-1]   --> E    L_3           
     freq (  3 -  3) =        283.2  [cm-1]   --> A_1  L_1           
     freq (  4 -  4) =        445.7  [cm-1]   --> A_1  L_1           
     freq (  5 -  6) =        472.6  [cm-1]   --> E    L_3           

     Calculation of q =    0.5000000  -0.5000000   0.5000000
 
     Parallelization info
     --------------------
     sticks:   dense  smooth     PW     G-vecs:    dense   smooth      PW
     Min          55      27     10                 1091      381      91
     Max          56      28     11                 1093      394      94
     Sum         889     439    169                17477     6183    1471
 


     bravais-lattice index     =            2
     lattice parameter (alat)  =      10.3760  a.u.
     unit-cell volume          =     279.2736 (a.u.)^3
     number of atoms/cell      =            2
     number of atomic types    =            1
     number of electrons       =         8.00
     number of Kohn-Sham states=            4
     kinetic-energy cutoff     =      30.0000  Ry
     charge density cutoff     =     240.0000  Ry
     Exchange-correlation      = SLA  PW   PBE  PBE ( 1  4  3  4 0 0)

     celldm(1)=  10.376000  celldm(2)=   0.000000  celldm(3)=   0.000000
     celldm(4)=   0.000000  celldm(5)=   0.000000  celldm(6)=   0.000000

     crystal axes: (cart. coord. in units of alat)
               a(1) = (  -0.500000   0.000000   0.500000 )  
               a(2) = (   0.000000   0.500000   0.500000 )  
               a(3) = (  -0.500000   0.500000   0.000000 )  

     reciprocal axes: (cart. coord. in units 2 pi/alat)
               b(1) = ( -1.000000 -1.000000  1.000000 )  
               b(2) = (  1.000000  1.000000  1.000000 )  
               b(3) = ( -1.000000  1.000000 -1.000000 )  


     PseudoPot. # 1 for Si read from file:
     ./si_pbe_v1.uspp.F.UPF.txt
     MD5 check sum: a056efeee980c13900f22a371efd63c1
     Pseudo is Ultrasoft + core correction, Zval =  4.0
     Generated by new atomic code, or converted to UPF format
     Using radial grid of  899 points,  6 beta functions with: 
                l(1) =   0
                l(2) =   0
                l(3) =   1
                l(4) =   1
                l(5) =   2
                l(6) =   2
     Q(r) pseudized with  8 coefficients,  rinner =    0.900   0.900   0.900
                                                       0.900   0.900

     atomic species   valence    mass     pseudopotential
        Si             4.00    28.08600     Si( 1.00)

     48 Sym. Ops., with inversion, found



   Cartesian axes

     site n.     atom                  positions (alat units)
         1           Si  tau(   1) = (   0.0000000   0.0000000   0.0000000  )
         2           Si  tau(   2) = (   0.2500000   0.2500000   0.2500000  )

     number of k points=  1300

     Number of k-points >= 100: set verbosity='high' to print them.

     Dense  grid:    17477 G-vectors     FFT dimensions: (  40,  40,  40)

     Smooth grid:     6183 G-vectors     FFT dimensions: (  25,  25,  25)

     Largest allocated arrays     est. size (Mb)     dimensions
        Kohn-Sham Wavefunctions         0.00 Mb     (      56,    4)
        NL pseudopotentials             0.03 Mb     (      56,   36)
        Each V/rho on FFT grid          0.07 Mb     (    4800)
        Each G-vector array             0.01 Mb     (    1092)
        G-vector shells                 0.00 Mb     (     207)
     Largest temporary arrays     est. size (Mb)     dimensions
        Auxiliary wavefunctions         0.01 Mb     (      56,   16)
        Each subspace H/S matrix        0.00 Mb     (       8,    8)
        Each <psi_i|beta_j> matrix      0.00 Mb     (      36,    4)

     The potential is recalculated from file :
     ./silicon/_ph0/silicon.10.376.save/charge-density.dat

     Starting wfc are    8 atomic wfcs

     Band Structure Calculation
     Davidson diagonalization with overlap

     ethr =  1.25E-10,  avg # of iterations = 12.4

     total cpu time spent up to now is        9.8 secs

     End of band structure calculation

     Number of k-points >= 100: set verbosity='high' to print the bands.

     highest occupied level (ev):     5.8154

     Writing output data file silicon.10.376.save

                                                                                

     bravais-lattice index     =            2
     lattice parameter (alat)  =      10.3760  a.u.
     unit-cell volume          =     279.2736 (a.u.)^3
     number of atoms/cell      =            2
     number of atomic types    =            1
     kinetic-energy cut-off    =      30.0000  Ry
     charge density cut-off    =     240.0000  Ry
     convergence threshold     =      1.0E-16
     beta                      =       0.7000
     number of iterations used =            4
     Exchange-correlation      = SLA  PW   PBE  PBE ( 1  4  3  4 0 0)


     celldm(1)=   10.37600  celldm(2)=    0.00000  celldm(3)=    0.00000
     celldm(4)=    0.00000  celldm(5)=    0.00000  celldm(6)=    0.00000

     crystal axes: (cart. coord. in units of alat)
               a(1) = ( -0.5000  0.0000  0.5000 )  
               a(2) = (  0.0000  0.5000  0.5000 )  
               a(3) = ( -0.5000  0.5000  0.0000 )  

     reciprocal axes: (cart. coord. in units 2 pi/alat)
               b(1) = ( -1.0000 -1.0000  1.0000 )  
               b(2) = (  1.0000  1.0000  1.0000 )  
               b(3) = ( -1.0000  1.0000 -1.0000 )  


     Atoms inside the unit cell: 

     Cartesian axes

     site n.  atom      mass           positions (alat units)
        1     Si  28.0860   tau(    1) = (    0.00000    0.00000    0.00000  )
        2     Si  28.0860   tau(    2) = (    0.25000    0.25000    0.25000  )

     Computing dynamical matrix for 
                    q = (   0.5000000  -0.5000000   0.5000000 )
 
     13 Sym.Ops. (with q -> -q+G )


     G cutoff =  654.5027  (   1092 G-vectors)     FFT grid: ( 40, 40, 40)
     G cutoff =  327.2513  (    391 G-vectors)  smooth grid: ( 25, 25, 25)
     number of k points=  1300

     PseudoPot. # 1 for Si read from file:
     ./si_pbe_v1.uspp.F.UPF.txt
     MD5 check sum: a056efeee980c13900f22a371efd63c1
     Pseudo is Ultrasoft + core correction, Zval =  4.0
     Generated by new atomic code, or converted to UPF format
     Using radial grid of  899 points,  6 beta functions with: 
                l(1) =   0
                l(2) =   0
                l(3) =   1
                l(4) =   1
                l(5) =   2
                l(6) =   2
     Q(r) pseudized with  8 coefficients,  rinner =    0.900   0.900   0.900
                                                       0.900   0.900


     Atomic displacements:
     There are   4 irreducible representations

     Representation     1      1 modes -  To be done

     Representation     2      1 modes -  To be done

     Representation     3      2 modes -  To be done

     Representation     4      2 modes -  To be done



     Alpha used in Ewald sum =   2.5000
     PHONON       :  2m12.64s CPU     2m29.59s WALL



     Representation #  1 mode #   1

     Self-consistent Calculation

      iter #   1 total cpu time :   151.0 secs   av.it.:   5.1
      thresh= 1.000E-02 alpha_mix =  0.700 |ddv_scf|^2 =  2.094E-06

      iter #   2 total cpu time :   151.5 secs   av.it.:  10.7
      thresh= 1.447E-04 alpha_mix =  0.700 |ddv_scf|^2 =  1.948E-06

      iter #   3 total cpu time :   154.1 secs   av.it.:   9.9
      thresh= 1.396E-04 alpha_mix =  0.700 |ddv_scf|^2 =  1.159E-09

      iter #   4 total cpu time :   155.7 secs   av.it.:  10.1
      thresh= 3.405E-06 alpha_mix =  0.700 |ddv_scf|^2 =  1.190E-11

      iter #   5 total cpu time :   156.4 secs   av.it.:   9.9
      thresh= 3.450E-07 alpha_mix =  0.700 |ddv_scf|^2 =  1.520E-13

      iter #   6 total cpu time :   156.7 secs   av.it.:  10.0
      thresh= 3.899E-08 alpha_mix =  0.700 |ddv_scf|^2 =  2.219E-15

      iter #   7 total cpu time :   157.2 secs   av.it.:  10.1
      thresh= 4.711E-09 alpha_mix =  0.700 |ddv_scf|^2 =  4.141E-17

     End of self-consistent calculation

     Convergence has been achieved 


     Representation #  2 mode #   2

     Self-consistent Calculation

      iter #   1 total cpu time :   158.4 secs   av.it.:   6.0
      thresh= 1.000E-02 alpha_mix =  0.700 |ddv_scf|^2 =  2.970E-05

      iter #   2 total cpu time :   158.9 secs   av.it.:  10.6
      thresh= 5.450E-04 alpha_mix =  0.700 |ddv_scf|^2 =  9.269E-05

      iter #   3 total cpu time :   159.3 secs   av.it.:   9.3
      thresh= 9.628E-04 alpha_mix =  0.700 |ddv_scf|^2 =  7.214E-09

      iter #   4 total cpu time :   159.7 secs   av.it.:  10.7
      thresh= 8.493E-06 alpha_mix =  0.700 |ddv_scf|^2 =  3.634E-10

      iter #   5 total cpu time :   160.0 secs   av.it.:  10.8
      thresh= 1.906E-06 alpha_mix =  0.700 |ddv_scf|^2 =  1.063E-11

      iter #   6 total cpu time :   160.4 secs   av.it.:  10.6
      thresh= 3.260E-07 alpha_mix =  0.700 |ddv_scf|^2 =  7.888E-14

      iter #   7 total cpu time :   160.7 secs   av.it.:  10.0
      thresh= 2.809E-08 alpha_mix =  0.700 |ddv_scf|^2 =  8.829E-16

      iter #   8 total cpu time :   162.0 secs   av.it.:   9.7
      thresh= 2.971E-09 alpha_mix =  0.700 |ddv_scf|^2 =  3.776E-17

     End of self-consistent calculation

     Convergence has been achieved 


     Representation #  3 modes #   3  4

     Self-consistent Calculation

      iter #   1 total cpu time :   163.8 secs   av.it.:   5.1
      thresh= 1.000E-02 alpha_mix =  0.700 |ddv_scf|^2 =  1.353E-08

      iter #   2 total cpu time :   164.9 secs   av.it.:  11.7
      thresh= 1.163E-05 alpha_mix =  0.700 |ddv_scf|^2 =  7.952E-10

      iter #   3 total cpu time :   166.0 secs   av.it.:  11.2
      thresh= 2.820E-06 alpha_mix =  0.700 |ddv_scf|^2 =  2.729E-11

      iter #   4 total cpu time :   167.0 secs   av.it.:  11.3
      thresh= 5.224E-07 alpha_mix =  0.700 |ddv_scf|^2 =  2.216E-13

      iter #   5 total cpu time :   169.4 secs   av.it.:  11.2
      thresh= 4.707E-08 alpha_mix =  0.700 |ddv_scf|^2 =  2.476E-15

      iter #   6 total cpu time :   170.1 secs   av.it.:  11.2
      thresh= 4.976E-09 alpha_mix =  0.700 |ddv_scf|^2 =  2.630E-17

     End of self-consistent calculation

     Convergence has been achieved 


     Representation #  4 modes #   5  6

     Self-consistent Calculation

      iter #   1 total cpu time :   172.1 secs   av.it.:   5.2
      thresh= 1.000E-02 alpha_mix =  0.700 |ddv_scf|^2 =  6.940E-08

      iter #   2 total cpu time :   173.1 secs   av.it.:  11.8
      thresh= 2.634E-05 alpha_mix =  0.700 |ddv_scf|^2 =  5.576E-09

      iter #   3 total cpu time :   174.0 secs   av.it.:  11.6
      thresh= 7.467E-06 alpha_mix =  0.700 |ddv_scf|^2 =  1.462E-10

      iter #   4 total cpu time :   174.9 secs   av.it.:  10.5
      thresh= 1.209E-06 alpha_mix =  0.700 |ddv_scf|^2 =  2.705E-13

      iter #   5 total cpu time :   176.6 secs   av.it.:  11.2
      thresh= 5.201E-08 alpha_mix =  0.700 |ddv_scf|^2 =  2.487E-15

      iter #   6 total cpu time :   177.9 secs   av.it.:  11.3
      thresh= 4.987E-09 alpha_mix =  0.700 |ddv_scf|^2 =  6.850E-17

     End of self-consistent calculation

     Convergence has been achieved 
 
     Number of q in the star =    4
     List of q in the star:
          1   0.500000000  -0.500000000   0.500000000
          2   0.500000000   0.500000000   0.500000000
          3  -0.500000000   0.500000000   0.500000000
          4   0.500000000   0.500000000  -0.500000000

     Diagonalizing the dynamical matrix

     q = (    0.500000000  -0.500000000   0.500000000 ) 

 **************************************************************************
     freq (    1) =       3.398624 [THz] =     113.365896 [cm-1]
     freq (    2) =       3.398624 [THz] =     113.365896 [cm-1]
     freq (    3) =      11.046945 [THz] =     368.486432 [cm-1]
     freq (    4) =      11.730896 [THz] =     391.300577 [cm-1]
     freq (    5) =      14.085423 [THz] =     469.839132 [cm-1]
     freq (    6) =      14.085423 [THz] =     469.839132 [cm-1]
 **************************************************************************

     Calculation of q =    0.0000000   0.3333333   0.0000000
 
     Parallelization info
     --------------------
     sticks:   dense  smooth     PW     G-vecs:    dense   smooth      PW
     Min          55      27     10                 1091      378      84
     Max          56      28     11                 1093      395      86
     Sum         889     439    163                17477     6183    1363
 


     bravais-lattice index     =            2
     lattice parameter (alat)  =      10.3760  a.u.
     unit-cell volume          =     279.2736 (a.u.)^3
     number of atoms/cell      =            2
     number of atomic types    =            1
     number of electrons       =         8.00
     number of Kohn-Sham states=            4
     kinetic-energy cutoff     =      30.0000  Ry
     charge density cutoff     =     240.0000  Ry
     Exchange-correlation      = SLA  PW   PBE  PBE ( 1  4  3  4 0 0)

     celldm(1)=  10.376000  celldm(2)=   0.000000  celldm(3)=   0.000000
     celldm(4)=   0.000000  celldm(5)=   0.000000  celldm(6)=   0.000000

     crystal axes: (cart. coord. in units of alat)
               a(1) = (  -0.500000   0.000000   0.500000 )  
               a(2) = (   0.000000   0.500000   0.500000 )  
               a(3) = (  -0.500000   0.500000   0.000000 )  

     reciprocal axes: (cart. coord. in units 2 pi/alat)
               b(1) = ( -1.000000 -1.000000  1.000000 )  
               b(2) = (  1.000000  1.000000  1.000000 )  
               b(3) = ( -1.000000  1.000000 -1.000000 )  


     PseudoPot. # 1 for Si read from file:
     ./si_pbe_v1.uspp.F.UPF.txt
     MD5 check sum: a056efeee980c13900f22a371efd63c1
     Pseudo is Ultrasoft + core correction, Zval =  4.0
     Generated by new atomic code, or converted to UPF format
     Using radial grid of  899 points,  6 beta functions with: 
                l(1) =   0
                l(2) =   0
                l(3) =   1
                l(4) =   1
                l(5) =   2
                l(6) =   2
     Q(r) pseudized with  8 coefficients,  rinner =    0.900   0.900   0.900
                                                       0.900   0.900

     atomic species   valence    mass     pseudopotential
        Si             4.00    28.08600     Si( 1.00)

     48 Sym. Ops., with inversion, found



   Cartesian axes

     site n.     atom                  positions (alat units)
         1           Si  tau(   1) = (   0.0000000   0.0000000   0.0000000  )
         2           Si  tau(   2) = (   0.2500000   0.2500000   0.2500000  )

     number of k points=  1872

     Number of k-points >= 100: set verbosity='high' to print them.

     Dense  grid:    17477 G-vectors     FFT dimensions: (  40,  40,  40)

     Smooth grid:     6183 G-vectors     FFT dimensions: (  25,  25,  25)

     Largest allocated arrays     est. size (Mb)     dimensions
        Kohn-Sham Wavefunctions         0.00 Mb     (      56,    4)
        NL pseudopotentials             0.03 Mb     (      56,   36)
        Each V/rho on FFT grid          0.07 Mb     (    4800)
        Each G-vector array             0.01 Mb     (    1092)
        G-vector shells                 0.00 Mb     (     207)
     Largest temporary arrays     est. size (Mb)     dimensions
        Auxiliary wavefunctions         0.01 Mb     (      56,   16)
        Each subspace H/S matrix        0.00 Mb     (       8,    8)
        Each <psi_i|beta_j> matrix      0.00 Mb     (      36,    4)

     The potential is recalculated from file :
     ./silicon/_ph0/silicon.10.376.save/charge-density.dat

     Starting wfc are    8 atomic wfcs

     Band Structure Calculation
     Davidson diagonalization with overlap

     ethr =  1.25E-10,  avg # of iterations = 12.3

     total cpu time spent up to now is       12.4 secs

     End of band structure calculation

     Number of k-points >= 100: set verbosity='high' to print the bands.

     highest occupied level (ev):     5.8154

     Writing output data file silicon.10.376.save

                                                                                

     bravais-lattice index     =            2
     lattice parameter (alat)  =      10.3760  a.u.
     unit-cell volume          =     279.2736 (a.u.)^3
     number of atoms/cell      =            2
     number of atomic types    =            1
     kinetic-energy cut-off    =      30.0000  Ry
     charge density cut-off    =     240.0000  Ry
     convergence threshold     =      1.0E-16
     beta                      =       0.7000
     number of iterations used =            4
     Exchange-correlation      = SLA  PW   PBE  PBE ( 1  4  3  4 0 0)


     celldm(1)=   10.37600  celldm(2)=    0.00000  celldm(3)=    0.00000
     celldm(4)=    0.00000  celldm(5)=    0.00000  celldm(6)=    0.00000

     crystal axes: (cart. coord. in units of alat)
               a(1) = ( -0.5000  0.0000  0.5000 )  
               a(2) = (  0.0000  0.5000  0.5000 )  
               a(3) = ( -0.5000  0.5000  0.0000 )  

     reciprocal axes: (cart. coord. in units 2 pi/alat)
               b(1) = ( -1.0000 -1.0000  1.0000 )  
               b(2) = (  1.0000  1.0000  1.0000 )  
               b(3) = ( -1.0000  1.0000 -1.0000 )  


     Atoms inside the unit cell: 

     Cartesian axes

     site n.  atom      mass           positions (alat units)
        1     Si  28.0860   tau(    1) = (    0.00000    0.00000    0.00000  )
        2     Si  28.0860   tau(    2) = (    0.25000    0.25000    0.25000  )

     Computing dynamical matrix for 
                    q = (   0.0000000   0.3333333   0.0000000 )
 
      8 Sym.Ops. (no q -> -q+G )


     G cutoff =  654.5027  (   1092 G-vectors)     FFT grid: ( 40, 40, 40)
     G cutoff =  327.2513  (    390 G-vectors)  smooth grid: ( 25, 25, 25)
     number of k points=  1872

     PseudoPot. # 1 for Si read from file:
     ./si_pbe_v1.uspp.F.UPF.txt
     MD5 check sum: a056efeee980c13900f22a371efd63c1
     Pseudo is Ultrasoft + core correction, Zval =  4.0
     Generated by new atomic code, or converted to UPF format
     Using radial grid of  899 points,  6 beta functions with: 
                l(1) =   0
                l(2) =   0
                l(3) =   1
                l(4) =   1
                l(5) =   2
                l(6) =   2
     Q(r) pseudized with  8 coefficients,  rinner =    0.900   0.900   0.900
                                                       0.900   0.900

     Mode symmetry, C_4v (4mm)  point group:


     Atomic displacements:
     There are   4 irreducible representations

     Representation     1      1 modes -A_1  G_1 D_1  To be done

     Representation     2      1 modes -B_2  G_4 D_2'  To be done

     Representation     3      2 modes -E    G_5 D_5  To be done

     Representation     4      2 modes -E    G_5 D_5  To be done



     Alpha used in Ewald sum =   2.5000
     PHONON       :  2m49.64s CPU     3m10.78s WALL



     Representation #  1 mode #   1

     Self-consistent Calculation

      iter #   1 total cpu time :   191.7 secs   av.it.:   6.3
      thresh= 1.000E-02 alpha_mix =  0.700 |ddv_scf|^2 =  1.304E-03

      iter #   2 total cpu time :   193.3 secs   av.it.:   9.4
      thresh= 3.610E-03 alpha_mix =  0.700 |ddv_scf|^2 =  3.811E-02

      iter #   3 total cpu time :   194.0 secs   av.it.:   7.7
      thresh= 1.000E-02 alpha_mix =  0.700 |ddv_scf|^2 =  7.380E-08

      iter #   4 total cpu time :   194.6 secs   av.it.:   9.7
      thresh= 2.717E-05 alpha_mix =  0.700 |ddv_scf|^2 =  2.432E-09

      iter #   5 total cpu time :   195.2 secs   av.it.:   8.8
      thresh= 4.931E-06 alpha_mix =  0.700 |ddv_scf|^2 =  5.758E-10

      iter #   6 total cpu time :   195.9 secs   av.it.:   8.3
      thresh= 2.400E-06 alpha_mix =  0.700 |ddv_scf|^2 =  9.967E-14

      iter #   7 total cpu time :   196.4 secs   av.it.:  10.0
      thresh= 3.157E-08 alpha_mix =  0.700 |ddv_scf|^2 =  8.857E-14

      iter #   8 total cpu time :   196.8 secs   av.it.:   7.4
      thresh= 2.976E-08 alpha_mix =  0.700 |ddv_scf|^2 =  3.403E-17

     End of self-consistent calculation

     Convergence has been achieved 


     Representation #  2 mode #   2

     Self-consistent Calculation

      iter #   1 total cpu time :   197.6 secs   av.it.:   5.1
      thresh= 1.000E-02 alpha_mix =  0.700 |ddv_scf|^2 =  2.173E-07

      iter #   2 total cpu time :   198.1 secs   av.it.:  10.9
      thresh= 4.661E-05 alpha_mix =  0.700 |ddv_scf|^2 =  3.827E-08

      iter #   3 total cpu time :   198.6 secs   av.it.:  10.8
      thresh= 1.956E-05 alpha_mix =  0.700 |ddv_scf|^2 =  1.124E-09

      iter #   4 total cpu time :   199.9 secs   av.it.:  10.8
      thresh= 3.353E-06 alpha_mix =  0.700 |ddv_scf|^2 =  4.115E-11

      iter #   5 total cpu time :   201.5 secs   av.it.:  10.8
      thresh= 6.415E-07 alpha_mix =  0.700 |ddv_scf|^2 =  2.100E-13

      iter #   6 total cpu time :   201.9 secs   av.it.:  10.4
      thresh= 4.583E-08 alpha_mix =  0.700 |ddv_scf|^2 =  3.643E-15

      iter #   7 total cpu time :   203.0 secs   av.it.:   9.9
      thresh= 6.036E-09 alpha_mix =  0.700 |ddv_scf|^2 =  9.489E-17

     End of self-consistent calculation

     Convergence has been achieved 


     Representation #  3 modes #   3  4

     Self-consistent Calculation

      iter #   1 total cpu time :   205.2 secs   av.it.:   5.2
      thresh= 1.000E-02 alpha_mix =  0.700 |ddv_scf|^2 =  4.090E-08

      iter #   2 total cpu time :   206.8 secs   av.it.:  12.0
      thresh= 2.022E-05 alpha_mix =  0.700 |ddv_scf|^2 =  3.548E-09

      iter #   3 total cpu time :   207.8 secs   av.it.:  11.8
      thresh= 5.957E-06 alpha_mix =  0.700 |ddv_scf|^2 =  1.365E-10

      iter #   4 total cpu time :   208.8 secs   av.it.:  11.3
      thresh= 1.168E-06 alpha_mix =  0.700 |ddv_scf|^2 =  5.401E-13

      iter #   5 total cpu time :   210.9 secs   av.it.:  11.6
      thresh= 7.349E-08 alpha_mix =  0.700 |ddv_scf|^2 =  2.608E-14

      iter #   6 total cpu time :   212.7 secs   av.it.:  11.7
      thresh= 1.615E-08 alpha_mix =  0.700 |ddv_scf|^2 =  1.966E-16

      iter #   7 total cpu time :   214.0 secs   av.it.:  11.1
      thresh= 1.402E-09 alpha_mix =  0.700 |ddv_scf|^2 =  1.256E-17

     End of self-consistent calculation

     Convergence has been achieved 


     Representation #  4 modes #   5  6

     Self-consistent Calculation

      iter #   1 total cpu time :   215.3 secs   av.it.:   5.3
      thresh= 1.000E-02 alpha_mix =  0.700 |ddv_scf|^2 =  4.821E-08

      iter #   2 total cpu time :   216.3 secs   av.it.:  12.0
      thresh= 2.196E-05 alpha_mix =  0.700 |ddv_scf|^2 =  4.347E-09

      iter #   3 total cpu time :   218.1 secs   av.it.:  11.8
      thresh= 6.594E-06 alpha_mix =  0.700 |ddv_scf|^2 =  1.445E-10

      iter #   4 total cpu time :   219.1 secs   av.it.:  11.5
      thresh= 1.202E-06 alpha_mix =  0.700 |ddv_scf|^2 =  3.849E-13

      iter #   5 total cpu time :   220.8 secs   av.it.:  11.5
      thresh= 6.204E-08 alpha_mix =  0.700 |ddv_scf|^2 =  1.245E-14

      iter #   6 total cpu time :   221.7 secs   av.it.:  11.6
      thresh= 1.116E-08 alpha_mix =  0.700 |ddv_scf|^2 =  1.690E-16

      iter #   7 total cpu time :   223.8 secs   av.it.:  11.2
      thresh= 1.300E-09 alpha_mix =  0.700 |ddv_scf|^2 =  1.058E-17

     End of self-consistent calculation

     Convergence has been achieved 
 
     Number of q in the star =    6
     List of q in the star:
          1   0.000000000   0.333333333   0.000000000
          2   0.333333333   0.000000000   0.000000000
          3   0.000000000   0.000000000   0.333333333
          4   0.000000000  -0.333333333   0.000000000
          5  -0.333333333   0.000000000   0.000000000
          6   0.000000000   0.000000000  -0.333333333

     Diagonalizing the dynamical matrix

     q = (    0.000000000   0.333333333   0.000000000 ) 

 **************************************************************************
     freq (    1) =       2.971900 [THz] =      99.131929 [cm-1]
     freq (    2) =       2.971900 [THz] =      99.131929 [cm-1]
     freq (    3) =       4.788426 [THz] =     159.724710 [cm-1]
     freq (    4) =      14.108280 [THz] =     470.601565 [cm-1]
     freq (    5) =      14.108280 [THz] =     470.601565 [cm-1]
     freq (    6) =      14.639549 [THz] =     488.322789 [cm-1]
 **************************************************************************

     Mode symmetry, C_4v (4mm)  point group:

     freq (  1 -  2) =         99.1  [cm-1]   --> E    G_5 D_5       
     freq (  3 -  3) =        159.7  [cm-1]   --> A_1  G_1 D_1       
     freq (  4 -  5) =        470.6  [cm-1]   --> E    G_5 D_5       
     freq (  6 -  6) =        488.3  [cm-1]   --> B_2  G_4 D_2'      

     Calculation of q =   -0.1666667   0.5000000  -0.1666667
 
     Parallelization info
     --------------------
     sticks:   dense  smooth     PW     G-vecs:    dense   smooth      PW
     Min          55      27     10                 1091      379      90
     Max          56      28     11                 1093      395      94
     Sum         889     439    163                17477     6183    1459
 


     bravais-lattice index     =            2
     lattice parameter (alat)  =      10.3760  a.u.
     unit-cell volume          =     279.2736 (a.u.)^3
     number of atoms/cell      =            2
     number of atomic types    =            1
     number of electrons       =         8.00
     number of Kohn-Sham states=            4
     kinetic-energy cutoff     =      30.0000  Ry
     charge density cutoff     =     240.0000  Ry
     Exchange-correlation      = SLA  PW   PBE  PBE ( 1  4  3  4 0 0)

     celldm(1)=  10.376000  celldm(2)=   0.000000  celldm(3)=   0.000000
     celldm(4)=   0.000000  celldm(5)=   0.000000  celldm(6)=   0.000000

     crystal axes: (cart. coord. in units of alat)
               a(1) = (  -0.500000   0.000000   0.500000 )  
               a(2) = (   0.000000   0.500000   0.500000 )  
               a(3) = (  -0.500000   0.500000   0.000000 )  

     reciprocal axes: (cart. coord. in units 2 pi/alat)
               b(1) = ( -1.000000 -1.000000  1.000000 )  
               b(2) = (  1.000000  1.000000  1.000000 )  
               b(3) = ( -1.000000  1.000000 -1.000000 )  


     PseudoPot. # 1 for Si read from file:
     ./si_pbe_v1.uspp.F.UPF.txt
     MD5 check sum: a056efeee980c13900f22a371efd63c1
     Pseudo is Ultrasoft + core correction, Zval =  4.0
     Generated by new atomic code, or converted to UPF format
     Using radial grid of  899 points,  6 beta functions with: 
                l(1) =   0
                l(2) =   0
                l(3) =   1
                l(4) =   1
                l(5) =   2
                l(6) =   2
     Q(r) pseudized with  8 coefficients,  rinner =    0.900   0.900   0.900
                                                       0.900   0.900

     atomic species   valence    mass     pseudopotential
        Si             4.00    28.08600     Si( 1.00)

     48 Sym. Ops., with inversion, found



   Cartesian axes

     site n.     atom                  positions (alat units)
         1           Si  tau(   1) = (   0.0000000   0.0000000   0.0000000  )
         2           Si  tau(   2) = (   0.2500000   0.2500000   0.2500000  )

     number of k points=  7200

     Number of k-points >= 100: set verbosity='high' to print them.

     Dense  grid:    17477 G-vectors     FFT dimensions: (  40,  40,  40)

     Smooth grid:     6183 G-vectors     FFT dimensions: (  25,  25,  25)

     Largest allocated arrays     est. size (Mb)     dimensions
        Kohn-Sham Wavefunctions         0.00 Mb     (      60,    4)
        NL pseudopotentials             0.03 Mb     (      60,   36)
        Each V/rho on FFT grid          0.07 Mb     (    4800)
        Each G-vector array             0.01 Mb     (    1092)
        G-vector shells                 0.00 Mb     (     210)
     Largest temporary arrays     est. size (Mb)     dimensions
        Auxiliary wavefunctions         0.01 Mb     (      60,   16)
        Each subspace H/S matrix        0.00 Mb     (       8,    8)
        Each <psi_i|beta_j> matrix      0.00 Mb     (      36,    4)

     The potential is recalculated from file :
     ./silicon/_ph0/silicon.10.376.save/charge-density.dat

     Starting wfc are    8 atomic wfcs

     Band Structure Calculation
     Davidson diagonalization with overlap

     ethr =  1.25E-10,  avg # of iterations = 12.3

     total cpu time spent up to now is       20.6 secs

     End of band structure calculation

     Number of k-points >= 100: set verbosity='high' to print the bands.

     highest occupied level (ev):     5.8154

     Writing output data file silicon.10.376.save

                                                                                

     bravais-lattice index     =            2
     lattice parameter (alat)  =      10.3760  a.u.
     unit-cell volume          =     279.2736 (a.u.)^3
     number of atoms/cell      =            2
     number of atomic types    =            1
     kinetic-energy cut-off    =      30.0000  Ry
     charge density cut-off    =     240.0000  Ry
     convergence threshold     =      1.0E-16
     beta                      =       0.7000
     number of iterations used =            4
     Exchange-correlation      = SLA  PW   PBE  PBE ( 1  4  3  4 0 0)


     celldm(1)=   10.37600  celldm(2)=    0.00000  celldm(3)=    0.00000
     celldm(4)=    0.00000  celldm(5)=    0.00000  celldm(6)=    0.00000

     crystal axes: (cart. coord. in units of alat)
               a(1) = ( -0.5000  0.0000  0.5000 )  
               a(2) = (  0.0000  0.5000  0.5000 )  
               a(3) = ( -0.5000  0.5000  0.0000 )  

     reciprocal axes: (cart. coord. in units 2 pi/alat)
               b(1) = ( -1.0000 -1.0000  1.0000 )  
               b(2) = (  1.0000  1.0000  1.0000 )  
               b(3) = ( -1.0000  1.0000 -1.0000 )  


     Atoms inside the unit cell: 

     Cartesian axes

     site n.  atom      mass           positions (alat units)
        1     Si  28.0860   tau(    1) = (    0.00000    0.00000    0.00000  )
        2     Si  28.0860   tau(    2) = (    0.25000    0.25000    0.25000  )

     Computing dynamical matrix for 
                    q = (  -0.1666667   0.5000000  -0.1666667 )
 
      2 Sym.Ops. (no q -> -q+G )


     G cutoff =  654.5027  (   1092 G-vectors)     FFT grid: ( 40, 40, 40)
     G cutoff =  327.2513  (    381 G-vectors)  smooth grid: ( 25, 25, 25)
     number of k points=  7200

     PseudoPot. # 1 for Si read from file:
     ./si_pbe_v1.uspp.F.UPF.txt
     MD5 check sum: a056efeee980c13900f22a371efd63c1
     Pseudo is Ultrasoft + core correction, Zval =  4.0
     Generated by new atomic code, or converted to UPF format
     Using radial grid of  899 points,  6 beta functions with: 
                l(1) =   0
                l(2) =   0
                l(3) =   1
                l(4) =   1
                l(5) =   2
                l(6) =   2
     Q(r) pseudized with  8 coefficients,  rinner =    0.900   0.900   0.900
                                                       0.900   0.900

     Mode symmetry, C_s (m)     point group:


     Atomic displacements:
     There are   6 irreducible representations

     Representation     1      1 modes -A'  To be done

     Representation     2      1 modes -A'  To be done

     Representation     3      1 modes -A'  To be done

     Representation     4      1 modes -A'  To be done

     Representation     5      1 modes -A''  To be done

     Representation     6      1 modes -A''  To be done



     Alpha used in Ewald sum =   2.5000
     PHONON       :  3m30.33s CPU     3m59.53s WALL



     Representation #  1 mode #   1

     Self-consistent Calculation

      iter #   1 total cpu time :   241.6 secs   av.it.:   5.8
      thresh= 1.000E-02 alpha_mix =  0.700 |ddv_scf|^2 =  3.117E-05

      iter #   2 total cpu time :   243.7 secs   av.it.:  10.4
      thresh= 5.583E-04 alpha_mix =  0.700 |ddv_scf|^2 =  3.201E-04

      iter #   3 total cpu time :   245.5 secs   av.it.:   8.4
      thresh= 1.789E-03 alpha_mix =  0.700 |ddv_scf|^2 =  5.528E-08

      iter #   4 total cpu time :   247.4 secs   av.it.:  10.9
      thresh= 2.351E-05 alpha_mix =  0.700 |ddv_scf|^2 =  2.456E-09

      iter #   5 total cpu time :   249.0 secs   av.it.:  10.9
      thresh= 4.956E-06 alpha_mix =  0.700 |ddv_scf|^2 =  1.164E-10

      iter #   6 total cpu time :   251.2 secs   av.it.:  10.9
      thresh= 1.079E-06 alpha_mix =  0.700 |ddv_scf|^2 =  4.341E-12

      iter #   7 total cpu time :   252.8 secs   av.it.:  11.0
      thresh= 2.083E-07 alpha_mix =  0.700 |ddv_scf|^2 =  8.791E-13

      iter #   8 total cpu time :   256.6 secs   av.it.:  10.3
      thresh= 9.376E-08 alpha_mix =  0.700 |ddv_scf|^2 =  2.591E-12

      iter #   9 total cpu time :   260.0 secs   av.it.:   9.1
      thresh= 1.610E-07 alpha_mix =  0.700 |ddv_scf|^2 =  1.517E-13

      iter #  10 total cpu time :   262.9 secs   av.it.:   9.5
      thresh= 3.894E-08 alpha_mix =  0.700 |ddv_scf|^2 =  1.719E-14

      iter #  11 total cpu time :   264.3 secs   av.it.:  10.3
      thresh= 1.311E-08 alpha_mix =  0.700 |ddv_scf|^2 =  7.118E-16

      iter #  12 total cpu time :   266.3 secs   av.it.:  10.9
      thresh= 2.668E-09 alpha_mix =  0.700 |ddv_scf|^2 =  9.397E-17

     End of self-consistent calculation

     Convergence has been achieved 


     Representation #  2 mode #   2

     Self-consistent Calculation

      iter #   1 total cpu time :   267.6 secs   av.it.:   6.0
      thresh= 1.000E-02 alpha_mix =  0.700 |ddv_scf|^2 =  7.337E-05

      iter #   2 total cpu time :   269.1 secs   av.it.:  10.3
      thresh= 8.566E-04 alpha_mix =  0.700 |ddv_scf|^2 =  7.711E-04

      iter #   3 total cpu time :   270.6 secs   av.it.:   8.3
      thresh= 2.777E-03 alpha_mix =  0.700 |ddv_scf|^2 =  3.705E-08

      iter #   4 total cpu time :   273.7 secs   av.it.:  11.1
      thresh= 1.925E-05 alpha_mix =  0.700 |ddv_scf|^2 =  3.623E-09

      iter #   5 total cpu time :   275.5 secs   av.it.:  10.9
      thresh= 6.019E-06 alpha_mix =  0.700 |ddv_scf|^2 =  1.167E-10

      iter #   6 total cpu time :   277.5 secs   av.it.:  11.0
      thresh= 1.080E-06 alpha_mix =  0.700 |ddv_scf|^2 =  9.503E-12

      iter #   7 total cpu time :   279.0 secs   av.it.:  11.0
      thresh= 3.083E-07 alpha_mix =  0.700 |ddv_scf|^2 =  1.372E-13

      iter #   8 total cpu time :   280.5 secs   av.it.:  11.0
      thresh= 3.705E-08 alpha_mix =  0.700 |ddv_scf|^2 =  8.644E-13

      iter #   9 total cpu time :   281.9 secs   av.it.:   8.8
      thresh= 9.297E-08 alpha_mix =  0.700 |ddv_scf|^2 =  1.115E-14

      iter #  10 total cpu time :   284.0 secs   av.it.:  10.2
      thresh= 1.056E-08 alpha_mix =  0.700 |ddv_scf|^2 =  1.708E-14

      iter #  11 total cpu time :   285.4 secs   av.it.:   9.3
      thresh= 1.307E-08 alpha_mix =  0.700 |ddv_scf|^2 =  8.943E-17

     End of self-consistent calculation

     Convergence has been achieved 


     Representation #  3 mode #   3

     Self-consistent Calculation

      iter #   1 total cpu time :   286.7 secs   av.it.:   5.9
      thresh= 1.000E-02 alpha_mix =  0.700 |ddv_scf|^2 =  5.334E-05

      iter #   2 total cpu time :   288.2 secs   av.it.:  10.4
      thresh= 7.304E-04 alpha_mix =  0.700 |ddv_scf|^2 =  5.638E-04

      iter #   3 total cpu time :   289.5 secs   av.it.:   8.3
      thresh= 2.374E-03 alpha_mix =  0.700 |ddv_scf|^2 =  5.191E-08

      iter #   4 total cpu time :   291.0 secs   av.it.:  11.0
      thresh= 2.278E-05 alpha_mix =  0.700 |ddv_scf|^2 =  2.892E-09

      iter #   5 total cpu time :   292.7 secs   av.it.:  10.9
      thresh= 5.378E-06 alpha_mix =  0.700 |ddv_scf|^2 =  1.275E-10

      iter #   6 total cpu time :   294.6 secs   av.it.:  11.1
      thresh= 1.129E-06 alpha_mix =  0.700 |ddv_scf|^2 =  7.818E-12

      iter #   7 total cpu time :   296.8 secs   av.it.:  11.0
      thresh= 2.796E-07 alpha_mix =  0.700 |ddv_scf|^2 =  3.146E-13

      iter #   8 total cpu time :   298.2 secs   av.it.:  10.2
      thresh= 5.609E-08 alpha_mix =  0.700 |ddv_scf|^2 =  9.439E-13

      iter #   9 total cpu time :   299.5 secs   av.it.:   9.0
      thresh= 9.715E-08 alpha_mix =  0.700 |ddv_scf|^2 =  1.814E-14

      iter #  10 total cpu time :   301.2 secs   av.it.:   9.9
      thresh= 1.347E-08 alpha_mix =  0.700 |ddv_scf|^2 =  2.468E-14

      iter #  11 total cpu time :   302.6 secs   av.it.:   9.2
      thresh= 1.571E-08 alpha_mix =  0.700 |ddv_scf|^2 =  5.752E-17

     End of self-consistent calculation

     Convergence has been achieved 


     Representation #  4 mode #   4

     Self-consistent Calculation

      iter #   1 total cpu time :   304.5 secs   av.it.:   5.6
      thresh= 1.000E-02 alpha_mix =  0.700 |ddv_scf|^2 =  1.113E-05

      iter #   2 total cpu time :   306.0 secs   av.it.:  10.7
      thresh= 3.336E-04 alpha_mix =  0.700 |ddv_scf|^2 =  1.126E-04

      iter #   3 total cpu time :   308.2 secs   av.it.:   8.4
      thresh= 1.061E-03 alpha_mix =  0.700 |ddv_scf|^2 =  6.400E-08

      iter #   4 total cpu time :   310.5 secs   av.it.:  10.9
      thresh= 2.530E-05 alpha_mix =  0.700 |ddv_scf|^2 =  1.357E-09

      iter #   5 total cpu time :   312.5 secs   av.it.:  11.0
      thresh= 3.683E-06 alpha_mix =  0.700 |ddv_scf|^2 =  1.226E-10

      iter #   6 total cpu time :   314.0 secs   av.it.:  11.0
      thresh= 1.107E-06 alpha_mix =  0.700 |ddv_scf|^2 =  3.769E-12

      iter #   7 total cpu time :   315.6 secs   av.it.:  11.0
      thresh= 1.941E-07 alpha_mix =  0.700 |ddv_scf|^2 =  5.158E-12

      iter #   8 total cpu time :   317.0 secs   av.it.:   9.1
      thresh= 2.271E-07 alpha_mix =  0.700 |ddv_scf|^2 =  1.734E-12

      iter #   9 total cpu time :   318.9 secs   av.it.:   9.6
      thresh= 1.317E-07 alpha_mix =  0.700 |ddv_scf|^2 =  1.441E-12

      iter #  10 total cpu time :   320.6 secs   av.it.:   9.2
      thresh= 1.201E-07 alpha_mix =  0.700 |ddv_scf|^2 =  4.700E-15

      iter #  11 total cpu time :   322.1 secs   av.it.:  11.1
      thresh= 6.856E-09 alpha_mix =  0.700 |ddv_scf|^2 =  1.563E-15

      iter #  12 total cpu time :   323.9 secs   av.it.:  10.8
      thresh= 3.954E-09 alpha_mix =  0.700 |ddv_scf|^2 =  9.382E-17

     End of self-consistent calculation

     Convergence has been achieved 


     Representation #  5 mode #   5

     Self-consistent Calculation

      iter #   1 total cpu time :   328.1 secs   av.it.:   5.3
      thresh= 1.000E-02 alpha_mix =  0.700 |ddv_scf|^2 =  2.481E-07

      iter #   2 total cpu time :   332.0 secs   av.it.:  11.0
      thresh= 4.981E-05 alpha_mix =  0.700 |ddv_scf|^2 =  3.037E-08

      iter #   3 total cpu time :   338.8 secs   av.it.:  10.8
      thresh= 1.743E-05 alpha_mix =  0.700 |ddv_scf|^2 =  6.510E-10

      iter #   4 total cpu time :   340.7 secs   av.it.:  10.6
      thresh= 2.551E-06 alpha_mix =  0.700 |ddv_scf|^2 =  1.665E-12

      iter #   5 total cpu time :   342.7 secs   av.it.:  10.7
      thresh= 1.290E-07 alpha_mix =  0.700 |ddv_scf|^2 =  8.414E-14

      iter #   6 total cpu time :   344.7 secs   av.it.:  10.7
      thresh= 2.901E-08 alpha_mix =  0.700 |ddv_scf|^2 =  8.000E-16

      iter #   7 total cpu time :   346.5 secs   av.it.:  10.4
      thresh= 2.828E-09 alpha_mix =  0.700 |ddv_scf|^2 =  3.249E-17

     End of self-consistent calculation

     Convergence has been achieved 


     Representation #  6 mode #   6

     Self-consistent Calculation

      iter #   1 total cpu time :   348.2 secs   av.it.:   5.3
      thresh= 1.000E-02 alpha_mix =  0.700 |ddv_scf|^2 =  2.481E-07

      iter #   2 total cpu time :   349.9 secs   av.it.:  11.0
      thresh= 4.981E-05 alpha_mix =  0.700 |ddv_scf|^2 =  3.037E-08

      iter #   3 total cpu time :   351.4 secs   av.it.:  10.8
      thresh= 1.743E-05 alpha_mix =  0.700 |ddv_scf|^2 =  6.510E-10

      iter #   4 total cpu time :   352.9 secs   av.it.:  10.6
      thresh= 2.551E-06 alpha_mix =  0.700 |ddv_scf|^2 =  1.665E-12

      iter #   5 total cpu time :   354.6 secs   av.it.:  10.7
      thresh= 1.290E-07 alpha_mix =  0.700 |ddv_scf|^2 =  8.414E-14

      iter #   6 total cpu time :   356.1 secs   av.it.:  10.7
      thresh= 2.901E-08 alpha_mix =  0.700 |ddv_scf|^2 =  8.000E-16

      iter #   7 total cpu time :   357.6 secs   av.it.:  10.4
      thresh= 2.828E-09 alpha_mix =  0.700 |ddv_scf|^2 =  3.249E-17

     End of self-consistent calculation

     Convergence has been achieved 
 
     Number of q in the star =   24
     List of q in the star:
          1  -0.166666667   0.500000000  -0.166666667
          2   0.166666667   0.500000000   0.166666667
          3  -0.166666667   0.500000000   0.166666667
          4   0.166666667   0.500000000  -0.166666667
          5   0.500000000  -0.166666667   0.166666667
          6   0.166666667  -0.166666667   0.500000000
          7  -0.166666667  -0.500000000  -0.166666667
[...]

     End of self-consistent calculation

     Convergence has been achieved 
 
     Number of q in the star =   24
     List of q in the star:
          1   0.500000000  -0.166666667   0.833333333
          2   0.833333333   0.166666667   0.500000000
          3   0.500000000   0.166666667   0.833333333
          4  -0.833333333  -0.166666667   0.500000000
          5  -0.833333333  -0.166666667  -0.500000000
          6  -0.500000000  -0.166666667  -0.833333333
          7   0.833333333  -0.166666667   0.500000000
          8  -0.500000000  -0.166666667   0.833333333
          9  -0.833333333   0.166666667   0.500000000
         10   0.833333333   0.166666667  -0.500000000
         11   0.833333333  -0.166666667  -0.500000000
         12   0.500000000   0.166666667  -0.833333333
         13  -0.500000000   0.166666667   0.833333333
         14  -0.500000000   0.166666667  -0.833333333
         15  -0.833333333   0.166666667  -0.500000000
         16   0.833333333  -0.500000000   0.166666667
         17   0.833333333   0.500000000  -0.166666667
         18  -0.833333333  -0.500000000  -0.166666667
         19  -0.833333333   0.500000000   0.166666667
         20   0.166666667  -0.500000000   0.833333333
         21  -0.166666667   0.500000000   0.833333333
         22   0.166666667   0.500000000  -0.833333333
         23  -0.166666667  -0.500000000  -0.833333333
         24  -0.500000000   0.833333333   0.166666667

     Diagonalizing the dynamical matrix

     q = (    0.500000000  -0.166666667   0.833333333 ) 

 **************************************************************************
     freq (    1) =       5.176427 [THz] =     172.667020 [cm-1]
     freq (    2) =       6.163127 [THz] =     205.579789 [cm-1]
     freq (    3) =       9.557809 [THz] =     318.814198 [cm-1]
     freq (    4) =      10.957896 [THz] =     365.516076 [cm-1]
     freq (    5) =      13.373193 [THz] =     446.081697 [cm-1]
     freq (    6) =      13.585802 [THz] =     453.173575 [cm-1]
 **************************************************************************

     Calculation of q =   -0.3333333  -1.0000000   0.0000000
 
     Parallelization info
     --------------------
     sticks:   dense  smooth     PW     G-vecs:    dense   smooth      PW
     Min          55      27     11                 1091      381     101
     Max          56      28     12                 1093      393     103
     Sum         889     439    187                17477     6183    1639
 


     bravais-lattice index     =            2
     lattice parameter (alat)  =      10.3760  a.u.
     unit-cell volume          =     279.2736 (a.u.)^3
     number of atoms/cell      =            2
     number of atomic types    =            1
     number of electrons       =         8.00
     number of Kohn-Sham states=            4
     kinetic-energy cutoff     =      30.0000  Ry
     charge density cutoff     =     240.0000  Ry
     Exchange-correlation      = SLA  PW   PBE  PBE ( 1  4  3  4 0 0)

     celldm(1)=  10.376000  celldm(2)=   0.000000  celldm(3)=   0.000000
     celldm(4)=   0.000000  celldm(5)=   0.000000  celldm(6)=   0.000000

     crystal axes: (cart. coord. in units of alat)
               a(1) = (  -0.500000   0.000000   0.500000 )  
               a(2) = (   0.000000   0.500000   0.500000 )  
               a(3) = (  -0.500000   0.500000   0.000000 )  

     reciprocal axes: (cart. coord. in units 2 pi/alat)
               b(1) = ( -1.000000 -1.000000  1.000000 )  
               b(2) = (  1.000000  1.000000  1.000000 )  
               b(3) = ( -1.000000  1.000000 -1.000000 )  


     PseudoPot. # 1 for Si read from file:
     ./si_pbe_v1.uspp.F.UPF.txt
     MD5 check sum: a056efeee980c13900f22a371efd63c1
     Pseudo is Ultrasoft + core correction, Zval =  4.0
     Generated by new atomic code, or converted to UPF format
     Using radial grid of  899 points,  6 beta functions with: 
                l(1) =   0
                l(2) =   0
                l(3) =   1
                l(4) =   1
                l(5) =   2
                l(6) =   2
     Q(r) pseudized with  8 coefficients,  rinner =    0.900   0.900   0.900
                                                       0.900   0.900

     atomic species   valence    mass     pseudopotential
        Si             4.00    28.08600     Si( 1.00)

     48 Sym. Ops., with inversion, found



   Cartesian axes

     site n.     atom                  positions (alat units)
         1           Si  tau(   1) = (   0.0000000   0.0000000   0.0000000  )
         2           Si  tau(   2) = (   0.2500000   0.2500000   0.2500000  )

     number of k points=  3456

     Number of k-points >= 100: set verbosity='high' to print them.

     Dense  grid:    17477 G-vectors     FFT dimensions: (  40,  40,  40)

     Smooth grid:     6183 G-vectors     FFT dimensions: (  25,  25,  25)

     Largest allocated arrays     est. size (Mb)     dimensions
        Kohn-Sham Wavefunctions         0.00 Mb     (      55,    4)
        NL pseudopotentials             0.03 Mb     (      55,   36)
        Each V/rho on FFT grid          0.07 Mb     (    4800)
        Each G-vector array             0.01 Mb     (    1092)
        G-vector shells                 0.00 Mb     (     212)
     Largest temporary arrays     est. size (Mb)     dimensions
        Auxiliary wavefunctions         0.01 Mb     (      55,   16)
        Each subspace H/S matrix        0.00 Mb     (       8,    8)
        Each <psi_i|beta_j> matrix      0.00 Mb     (      36,    4)

     The potential is recalculated from file :
     ./silicon/_ph0/silicon.10.376.save/charge-density.dat

     Starting wfc are    8 atomic wfcs

     Band Structure Calculation
     Davidson diagonalization with overlap

     ethr =  1.25E-10,  avg # of iterations = 12.3

     total cpu time spent up to now is      119.8 secs

     End of band structure calculation

     Number of k-points >= 100: set verbosity='high' to print the bands.

     highest occupied level (ev):     5.8154

     Writing output data file silicon.10.376.save

                                                                                

     bravais-lattice index     =            2
     lattice parameter (alat)  =      10.3760  a.u.
     unit-cell volume          =     279.2736 (a.u.)^3
     number of atoms/cell      =            2
     number of atomic types    =            1
     kinetic-energy cut-off    =      30.0000  Ry
     charge density cut-off    =     240.0000  Ry
     convergence threshold     =      1.0E-16
     beta                      =       0.7000
     number of iterations used =            4
     Exchange-correlation      = SLA  PW   PBE  PBE ( 1  4  3  4 0 0)


     celldm(1)=   10.37600  celldm(2)=    0.00000  celldm(3)=    0.00000
     celldm(4)=    0.00000  celldm(5)=    0.00000  celldm(6)=    0.00000

     crystal axes: (cart. coord. in units of alat)
               a(1) = ( -0.5000  0.0000  0.5000 )  
               a(2) = (  0.0000  0.5000  0.5000 )  
               a(3) = ( -0.5000  0.5000  0.0000 )  

     reciprocal axes: (cart. coord. in units 2 pi/alat)
               b(1) = ( -1.0000 -1.0000  1.0000 )  
               b(2) = (  1.0000  1.0000  1.0000 )  
               b(3) = ( -1.0000  1.0000 -1.0000 )  


     Atoms inside the unit cell: 

     Cartesian axes

     site n.  atom      mass           positions (alat units)
        1     Si  28.0860   tau(    1) = (    0.00000    0.00000    0.00000  )
        2     Si  28.0860   tau(    2) = (    0.25000    0.25000    0.25000  )

     Computing dynamical matrix for 
                    q = (  -0.3333333  -1.0000000   0.0000000 )
 
      4 Sym.Ops. (no q -> -q+G )


     G cutoff =  654.5027  (   1092 G-vectors)     FFT grid: ( 40, 40, 40)
     G cutoff =  327.2513  (    383 G-vectors)  smooth grid: ( 25, 25, 25)
     number of k points=  3456

     PseudoPot. # 1 for Si read from file:
     ./si_pbe_v1.uspp.F.UPF.txt
     MD5 check sum: a056efeee980c13900f22a371efd63c1
     Pseudo is Ultrasoft + core correction, Zval =  4.0
     Generated by new atomic code, or converted to UPF format
     Using radial grid of  899 points,  6 beta functions with: 
                l(1) =   0
                l(2) =   0
                l(3) =   1
                l(4) =   1
                l(5) =   2
                l(6) =   2
     Q(r) pseudized with  8 coefficients,  rinner =    0.900   0.900   0.900
                                                       0.900   0.900


     Atomic displacements:
     There are   3 irreducible representations

     Representation     1      2 modes -  To be done

     Representation     2      2 modes -  To be done

     Representation     3      2 modes -  To be done



     Alpha used in Ewald sum =   2.5000
     PHONON       : 18m54.09s CPU    21m 4.21s WALL



     Representation #  1 modes #   1  2

     Self-consistent Calculation

      iter #   1 total cpu time :  1266.6 secs   av.it.:   5.6
      thresh= 1.000E-02 alpha_mix =  0.700 |ddv_scf|^2 =  3.714E-07

      iter #   2 total cpu time :  1281.4 secs   av.it.:  12.0
      thresh= 6.095E-05 alpha_mix =  0.700 |ddv_scf|^2 =  1.995E-07

      iter #   3 total cpu time :  1283.0 secs   av.it.:  11.7
      thresh= 4.466E-05 alpha_mix =  0.700 |ddv_scf|^2 =  3.201E-09

      iter #   4 total cpu time :  1284.5 secs   av.it.:  11.6
      thresh= 5.658E-06 alpha_mix =  0.700 |ddv_scf|^2 =  3.664E-10

      iter #   5 total cpu time :  1286.0 secs   av.it.:  11.5
      thresh= 1.914E-06 alpha_mix =  0.700 |ddv_scf|^2 =  9.821E-13

      iter #   6 total cpu time :  1288.3 secs   av.it.:  11.9
      thresh= 9.910E-08 alpha_mix =  0.700 |ddv_scf|^2 =  3.379E-14

      iter #   7 total cpu time :  1291.2 secs   av.it.:  11.5
      thresh= 1.838E-08 alpha_mix =  0.700 |ddv_scf|^2 =  2.747E-15

      iter #   8 total cpu time :  1293.1 secs   av.it.:  11.5
      thresh= 5.241E-09 alpha_mix =  0.700 |ddv_scf|^2 =  2.554E-17

     End of self-consistent calculation

     Convergence has been achieved 


     Representation #  2 modes #   3  4

     Self-consistent Calculation

      iter #   1 total cpu time :  1294.9 secs   av.it.:   5.8
      thresh= 1.000E-02 alpha_mix =  0.700 |ddv_scf|^2 =  9.420E-07

      iter #   2 total cpu time :  1296.4 secs   av.it.:  12.0
      thresh= 9.706E-05 alpha_mix =  0.700 |ddv_scf|^2 =  1.176E-06

      iter #   3 total cpu time :  1298.8 secs   av.it.:  11.2
      thresh= 1.085E-04 alpha_mix =  0.700 |ddv_scf|^2 =  4.570E-09

      iter #   4 total cpu time :  1300.6 secs   av.it.:  11.7
      thresh= 6.760E-06 alpha_mix =  0.700 |ddv_scf|^2 =  1.834E-10

      iter #   5 total cpu time :  1302.5 secs   av.it.:  11.6
      thresh= 1.354E-06 alpha_mix =  0.700 |ddv_scf|^2 =  3.653E-13

      iter #   6 total cpu time :  1304.1 secs   av.it.:  11.4
      thresh= 6.044E-08 alpha_mix =  0.700 |ddv_scf|^2 =  2.108E-14

      iter #   7 total cpu time :  1305.9 secs   av.it.:  11.4
      thresh= 1.452E-08 alpha_mix =  0.700 |ddv_scf|^2 =  4.275E-16

      iter #   8 total cpu time :  1307.7 secs   av.it.:  11.9
      thresh= 2.068E-09 alpha_mix =  0.700 |ddv_scf|^2 =  1.149E-16

      iter #   9 total cpu time :  1309.3 secs   av.it.:  11.6
      thresh= 1.072E-09 alpha_mix =  0.700 |ddv_scf|^2 =  7.886E-18

     End of self-consistent calculation

     Convergence has been achieved 


     Representation #  3 modes #   5  6

     Self-consistent Calculation

      iter #   1 total cpu time :  1310.5 secs   av.it.:   5.3
      thresh= 1.000E-02 alpha_mix =  0.700 |ddv_scf|^2 =  3.379E-07

      iter #   2 total cpu time :  1312.4 secs   av.it.:  12.0
      thresh= 5.813E-05 alpha_mix =  0.700 |ddv_scf|^2 =  4.219E-07

      iter #   3 total cpu time :  1314.2 secs   av.it.:  11.3
      thresh= 6.496E-05 alpha_mix =  0.700 |ddv_scf|^2 =  2.076E-09

      iter #   4 total cpu time :  1316.1 secs   av.it.:  11.7
      thresh= 4.556E-06 alpha_mix =  0.700 |ddv_scf|^2 =  2.140E-10

      iter #   5 total cpu time :  1317.8 secs   av.it.:  11.6
      thresh= 1.463E-06 alpha_mix =  0.700 |ddv_scf|^2 =  1.754E-12

      iter #   6 total cpu time :  1319.4 secs   av.it.:  11.9
      thresh= 1.324E-07 alpha_mix =  0.700 |ddv_scf|^2 =  4.553E-14

      iter #   7 total cpu time :  1320.9 secs   av.it.:  11.6
      thresh= 2.134E-08 alpha_mix =  0.700 |ddv_scf|^2 =  2.645E-15

      iter #   8 total cpu time :  1322.7 secs   av.it.:  11.6
      thresh= 5.143E-09 alpha_mix =  0.700 |ddv_scf|^2 =  2.081E-17

     End of self-consistent calculation

     Convergence has been achieved 
 
     Number of q in the star =   12
     List of q in the star:
          1  -0.333333333  -1.000000000   0.000000000
          2   0.000000000  -1.000000000  -0.333333333
          3   0.000000000  -1.000000000   0.333333333
          4   0.333333333  -1.000000000   0.000000000
          5  -1.000000000   0.000000000  -0.333333333
          6   1.000000000   0.000000000   0.333333333
          7   0.000000000   0.333333333   1.000000000
          8   0.000000000  -0.333333333  -1.000000000
          9  -1.000000000  -0.333333333   0.000000000
         10   1.000000000   0.333333333   0.000000000
         11  -0.333333333   0.000000000   1.000000000
         12   0.333333333   0.000000000   1.000000000

     Diagonalizing the dynamical matrix

     q = (   -0.333333333  -1.000000000   0.000000000 ) 

 **************************************************************************
     freq (    1) =       5.656443 [THz] =     188.678621 [cm-1]
     freq (    2) =       5.656443 [THz] =     188.678621 [cm-1]
     freq (    3) =      10.585746 [THz] =     353.102473 [cm-1]
     freq (    4) =      10.585746 [THz] =     353.102473 [cm-1]
     freq (    5) =      13.300386 [THz] =     443.653125 [cm-1]
     freq (    6) =      13.300386 [THz] =     443.653125 [cm-1]
 **************************************************************************
 
     init_run     :      0.82s CPU      1.05s WALL (      15 calls)
     electrons    :     57.38s CPU     59.79s WALL (      15 calls)

     Called by init_run:
     wfcinit      :      0.01s CPU      0.18s WALL (      15 calls)
     potinit      :      0.16s CPU      0.21s WALL (      15 calls)

     Called by electrons:
     c_bands      :     57.37s CPU     59.78s WALL (      15 calls)
     v_of_rho     :      0.04s CPU      0.04s WALL (      16 calls)
     newd         :      0.07s CPU      0.07s WALL (      16 calls)

     Called by c_bands:
     init_us_2    :      1.77s CPU      2.04s WALL (   85057 calls)
     cegterg      :     17.76s CPU     18.28s WALL (    2692 calls)

     Called by sum_band:

     Called by *egterg:
     h_psi        :     13.70s CPU     14.13s WALL (   38967 calls)
     s_psi        :     21.81s CPU     23.94s WALL ( 1798382 calls)
     g_psi        :      0.07s CPU      0.08s WALL (   33583 calls)
     cdiaghg      :      2.89s CPU      2.98s WALL (   36275 calls)

     Called by h_psi:
     add_vuspsi   :     13.03s CPU     14.10s WALL (  881156 calls)

     General routines
     calbec       :     52.53s CPU     56.88s WALL ( 1935267 calls)
     fft          :      1.70s CPU      1.79s WALL (   15539 calls)
     ffts         :      2.38s CPU      2.49s WALL (   10516 calls)
     fftw         :    246.77s CPU    267.36s WALL ( 7881718 calls)
     interpolate  :      0.38s CPU      0.39s WALL (    1792 calls)
     davcio       :     14.92s CPU     18.96s WALL (  382663 calls)
 
     Parallel routines
     fft_scatter  :    146.94s CPU    159.43s WALL ( 7907773 calls)
 
     PHONON       : 19m49.20s CPU    22m 3.11s WALL

     INITIALIZATION: 
     phq_setup    :      0.22s CPU      0.41s WALL (      16 calls)
     phq_init     :     31.63s CPU     32.81s WALL (      16 calls)
 
     phq_init     :     31.63s CPU     32.81s WALL (      16 calls)
     set_drhoc    :      0.57s CPU      0.61s WALL (      48 calls)
     init_vloc    :      0.02s CPU      0.02s WALL (      16 calls)
     init_us_1    :      0.45s CPU      0.44s WALL (      16 calls)
     newd         :      0.07s CPU      0.07s WALL (      16 calls)
     dvanqq       :      0.51s CPU      0.53s WALL (      16 calls)
     drho         :     26.14s CPU     26.43s WALL (      16 calls)
 
     DYNAMICAL MATRIX:
     dynmat0      :      2.34s CPU      2.80s WALL (      16 calls)
     phqscf       :   1054.79s CPU   1148.11s WALL (      16 calls)
     dynmatrix    :      1.96s CPU      2.32s WALL (      16 calls)
 
     phqscf       :   1054.79s CPU   1148.11s WALL (      16 calls)
     solve_linter :   1052.42s CPU   1140.96s WALL (      76 calls)
     drhodv       :      2.12s CPU      2.52s WALL (      76 calls)
 
     dynmat0      :      2.34s CPU      2.80s WALL (      16 calls)
     dynmat_us    :      1.86s CPU      1.90s WALL (      16 calls)
     d2ionq       :      0.00s CPU      0.01s WALL (      16 calls)
     dynmatcc     :      0.45s CPU      0.45s WALL (      16 calls)
 
     dynmat_us    :      1.86s CPU      1.90s WALL (      16 calls)
     addusdynmat  :      0.00s CPU      0.00s WALL (      16 calls)
 
     phqscf       :   1054.79s CPU   1148.11s WALL (      16 calls)
     solve_linter :   1052.42s CPU   1140.96s WALL (      76 calls)
 
     solve_linter :   1052.42s CPU   1140.96s WALL (      76 calls)
     dvqpsi_us    :      7.34s CPU      7.60s WALL (    8172 calls)
     ortho        :      6.03s CPU      6.49s WALL (   75013 calls)
     cgsolve      :    347.98s CPU    379.15s WALL (   75013 calls)
     incdrhoscf   :     35.25s CPU     36.77s WALL (   75013 calls)
     addusddens   :      3.58s CPU      3.67s WALL (     749 calls)
     vpsifft      :     17.35s CPU     18.80s WALL (   66697 calls)
     dv_of_drho   :      1.18s CPU      1.23s WALL (     834 calls)
     mix_pot      :      2.00s CPU     13.07s WALL (     680 calls)
     psymdvscf    :     14.78s CPU     14.82s WALL (     673 calls)
     newdq        :      3.66s CPU      3.69s WALL (     680 calls)
     adddvscf     :      1.16s CPU      1.48s WALL (   66841 calls)
     drhodvus     :      0.05s CPU      0.05s WALL (      76 calls)
 
     dvqpsi_us    :      7.34s CPU      7.60s WALL (    8172 calls)
     dvqpsi_us_on :      2.78s CPU      2.93s WALL (    8172 calls)
 
     cgsolve      :    347.98s CPU    379.15s WALL (   75013 calls)
     ch_psi       :    321.12s CPU    349.63s WALL (  842189 calls)
 
     ch_psi       :    321.12s CPU    349.63s WALL (  842189 calls)
     h_psiq       :    265.09s CPU    289.34s WALL (  842189 calls)
     last         :     53.42s CPU     57.28s WALL (  842189 calls)
 
     h_psiq       :    265.09s CPU    289.34s WALL (  842189 calls)
     firstfft     :    111.75s CPU    122.64s WALL ( 3164922 calls)
     secondfft    :     94.92s CPU    103.30s WALL ( 3164922 calls)
     add_vuspsi   :     13.03s CPU     14.10s WALL (  881156 calls)
 
     incdrhoscf   :     35.25s CPU     36.77s WALL (   75013 calls)
     addusdbec    :      3.22s CPU      3.47s WALL (   83137 calls)
 
     drhodvus     :      0.05s CPU      0.05s WALL (      76 calls)
 
      General routines
     calbec       :     52.53s CPU     56.88s WALL ( 1935267 calls)
     fft          :      1.70s CPU      1.79s WALL (   15539 calls)
     ffts         :      2.38s CPU      2.49s WALL (   10516 calls)
     fftw         :    246.77s CPU    267.36s WALL ( 7881718 calls)
     davcio       :     14.92s CPU     18.96s WALL (  382663 calls)
     write_rec    :      1.59s CPU     40.89s WALL (     756 calls)
 
 
     PHONON       : 19m49.20s CPU    22m 3.11s WALL

 
   This run was terminated on:  15:53:33   7Apr2018            

=------------------------------------------------------------------------------=
   JOB DONE.
=------------------------------------------------------------------------------=
Application 30446431 resources: utime ~477297s, stime ~14769s, Rss ~33132, inblocks ~1112628943, outblocks ~524272254
