
     Program PHONON v.5.4.0 starts on  7Apr2018 at 15: 7:42 

     This program is part of the open-source Quantum ESPRESSO suite
     for quantum simulation of materials; please cite
         "P. Giannozzi et al., J. Phys.:Condens. Matter 21 395502 (2009);
          URL http://www.quantum-espresso.org", 
     in publications or presentations arising from this work. More details at
     http://www.quantum-espresso.org/quote

     Parallel version (MPI & OpenMP), running on     384 processor cores
     Number of MPI processes:               384
     Threads/MPI process:                     1
     K-points division:     npool     =      24
     R & G space division:  proc/nbgrp/npool/nimage =      16

     Reading data from directory:
     ./silicon/silicon.10.364.save

   Info: using nr1, nr2, nr3 values from input

   Info: using nr1, nr2, nr3 values from input

     IMPORTANT: XC functional enforced from input :
     Exchange-correlation      = SLA  PW   PBE  PBE ( 1  4  3  4 0 0)
     Any further DFT definition will be discarded
     Please, verify this is what you really want

 
     Parallelization info
     --------------------
     sticks:   dense  smooth     PW     G-vecs:    dense   smooth      PW
     Min          55      27      9                 1091      378      76
     Max          56      28     10                 1093      395      79
     Sum         889     439    151                17477     6183    1243
 


     Dynamical matrices for ( 6, 6, 6)  uniform grid of q-points
     (  16q-points):
       N         xq(1)         xq(2)         xq(3) 
       1   0.000000000   0.000000000   0.000000000
       2  -0.166666667   0.166666667  -0.166666667
       3  -0.333333333   0.333333333  -0.333333333
       4   0.500000000  -0.500000000   0.500000000
       5   0.000000000   0.333333333   0.000000000
       6  -0.166666667   0.500000000  -0.166666667
       7   0.666666667  -0.333333333   0.666666667
       8   0.500000000  -0.166666667   0.500000000
       9   0.333333333   0.000000000   0.333333333
      10   0.000000000   0.666666667   0.000000000
      11   0.833333333  -0.166666667   0.833333333
      12   0.666666667  -0.000000000   0.666666667
      13   0.000000000  -1.000000000   0.000000000
      14   0.666666667  -0.333333333   1.000000000
      15   0.500000000  -0.166666667   0.833333333
      16  -0.333333333  -1.000000000   0.000000000

     Calculation of q =    0.0000000   0.0000000   0.0000000

                                                                                

     bravais-lattice index     =            2
     lattice parameter (alat)  =      10.3640  a.u.
     unit-cell volume          =     278.3058 (a.u.)^3
     number of atoms/cell      =            2
     number of atomic types    =            1
     kinetic-energy cut-off    =      30.0000  Ry
     charge density cut-off    =     240.0000  Ry
     convergence threshold     =      1.0E-16
     beta                      =       0.7000
     number of iterations used =            4
     Exchange-correlation      = SLA  PW   PBE  PBE ( 1  4  3  4 0 0)


     celldm(1)=   10.36400  celldm(2)=    0.00000  celldm(3)=    0.00000
     celldm(4)=    0.00000  celldm(5)=    0.00000  celldm(6)=    0.00000

     crystal axes: (cart. coord. in units of alat)
               a(1) = ( -0.5000  0.0000  0.5000 )  
               a(2) = (  0.0000  0.5000  0.5000 )  
               a(3) = ( -0.5000  0.5000  0.0000 )  

     reciprocal axes: (cart. coord. in units 2 pi/alat)
               b(1) = ( -1.0000 -1.0000  1.0000 )  
               b(2) = (  1.0000  1.0000  1.0000 )  
               b(3) = ( -1.0000  1.0000 -1.0000 )  


     Atoms inside the unit cell: 

     Cartesian axes

     site n.  atom      mass           positions (alat units)
        1     Si  28.0860   tau(    1) = (    0.00000    0.00000    0.00000  )
        2     Si  28.0860   tau(    2) = (    0.25000    0.25000    0.25000  )

     Computing dynamical matrix for 
                    q = (   0.0000000   0.0000000   0.0000000 )
 
     49 Sym.Ops. (with q -> -q+G )


     G cutoff =  652.9897  (   1092 G-vectors)     FFT grid: ( 40, 40, 40)
     G cutoff =  326.4948  (    391 G-vectors)  smooth grid: ( 25, 25, 25)
     number of k points=   182

     PseudoPot. # 1 for Si read from file:
     ./si_pbe_v1.uspp.F.UPF.txt
     MD5 check sum: a056efeee980c13900f22a371efd63c1
     Pseudo is Ultrasoft + core correction, Zval =  4.0
     Generated by new atomic code, or converted to UPF format
     Using radial grid of  899 points,  6 beta functions with: 
                l(1) =   0
                l(2) =   0
                l(3) =   1
                l(4) =   1
                l(5) =   2
                l(6) =   2
     Q(r) pseudized with  8 coefficients,  rinner =    0.900   0.900   0.900
                                                       0.900   0.900

     Mode symmetry, O_h (m-3m)  point group:


     Electric field:
     Dielectric constant
     Born effective charges in two ways 


     Atomic displacements:
     There are   2 irreducible representations

     Representation     1      3 modes -T_2g G_25' G_5+  To be done

     Representation     2      3 modes -T_1u G_15  G_4-  To be done



     Alpha used in Ewald sum =   2.5000
     PHONON       :     2.95s CPU         7.66s WALL


     Electric Fields Calculation

      iter #   1 total cpu time :     9.5 secs   av.it.:   6.5
      thresh= 1.000E-02 alpha_mix =  0.700 |ddv_scf|^2 =  6.791E-08

      iter #   2 total cpu time :    10.9 secs   av.it.:  12.2
      thresh= 2.606E-05 alpha_mix =  0.700 |ddv_scf|^2 =  3.948E-09

      iter #   3 total cpu time :    12.1 secs   av.it.:  12.1
      thresh= 6.284E-06 alpha_mix =  0.700 |ddv_scf|^2 =  2.567E-10

      iter #   4 total cpu time :    12.6 secs   av.it.:  11.4
      thresh= 1.602E-06 alpha_mix =  0.700 |ddv_scf|^2 =  1.703E-12

      iter #   5 total cpu time :    13.6 secs   av.it.:  11.5
      thresh= 1.305E-07 alpha_mix =  0.700 |ddv_scf|^2 =  1.624E-15

      iter #   6 total cpu time :    14.1 secs   av.it.:  11.4
      thresh= 4.030E-09 alpha_mix =  0.700 |ddv_scf|^2 =  1.073E-16

      iter #   7 total cpu time :    15.3 secs   av.it.:  11.9
      thresh= 1.036E-09 alpha_mix =  0.700 |ddv_scf|^2 =  1.697E-19

     End of electric fields calculation

          Dielectric constant in cartesian axis 

          (      13.019176269      -0.000000000      -0.000000000 )
          (      -0.000000000      13.019176269      -0.000000000 )
          (       0.000000000      -0.000000000      13.019176269 )

          Effective charges (d Force / dE) in cartesian axis

           atom      1   Si 
      Ex  (        0.02008        0.00000        0.00000 )
      Ey  (       -0.00000        0.02008       -0.00000 )
      Ez  (        0.00000       -0.00000        0.02008 )
           atom      2   Si 
      Ex  (        0.02008       -0.00000       -0.00000 )
      Ey  (       -0.00000        0.02008       -0.00000 )
      Ez  (       -0.00000       -0.00000        0.02008 )


     Representation #  1 modes #   1  2  3

     Self-consistent Calculation

      iter #   1 total cpu time :    18.0 secs   av.it.:   5.1
      thresh= 1.000E-02 alpha_mix =  0.700 |ddv_scf|^2 =  1.187E-08

      iter #   2 total cpu time :    19.1 secs   av.it.:  12.0
      thresh= 1.090E-05 alpha_mix =  0.700 |ddv_scf|^2 =  4.856E-10

      iter #   3 total cpu time :    20.4 secs   av.it.:  11.8
      thresh= 2.204E-06 alpha_mix =  0.700 |ddv_scf|^2 =  3.299E-11

      iter #   4 total cpu time :    21.1 secs   av.it.:  11.0
      thresh= 5.744E-07 alpha_mix =  0.700 |ddv_scf|^2 =  8.252E-14

      iter #   5 total cpu time :    22.1 secs   av.it.:  11.9
      thresh= 2.873E-08 alpha_mix =  0.700 |ddv_scf|^2 =  7.061E-16

      iter #   6 total cpu time :    23.3 secs   av.it.:  11.8
      thresh= 2.657E-09 alpha_mix =  0.700 |ddv_scf|^2 =  1.207E-17

     End of self-consistent calculation

     Convergence has been achieved 


     Representation #  2 modes #   4  5  6

     Self-consistent Calculation

      iter #   1 total cpu time :    25.2 secs   av.it.:   5.1
      thresh= 1.000E-02 alpha_mix =  0.700 |ddv_scf|^2 =  9.370E-09

      iter #   2 total cpu time :    26.0 secs   av.it.:  12.0
      thresh= 9.680E-06 alpha_mix =  0.700 |ddv_scf|^2 =  5.509E-10

      iter #   3 total cpu time :    26.8 secs   av.it.:  11.8
      thresh= 2.347E-06 alpha_mix =  0.700 |ddv_scf|^2 =  3.421E-11

      iter #   4 total cpu time :    27.5 secs   av.it.:  11.8
      thresh= 5.849E-07 alpha_mix =  0.700 |ddv_scf|^2 =  1.340E-13

      iter #   5 total cpu time :    35.4 secs   av.it.:  11.7
      thresh= 3.661E-08 alpha_mix =  0.700 |ddv_scf|^2 =  3.524E-16

      iter #   6 total cpu time :    48.6 secs   av.it.:  12.0
      thresh= 1.877E-09 alpha_mix =  0.700 |ddv_scf|^2 =  2.941E-17

     End of self-consistent calculation

     Convergence has been achieved 
 
     Number of q in the star =    1
     List of q in the star:
          1   0.000000000   0.000000000   0.000000000

          Dielectric constant in cartesian axis 

          (      13.019176269      -0.000000000      -0.000000000 )
          (      -0.000000000      13.019176269      -0.000000000 )
          (       0.000000000      -0.000000000      13.019176269 )

          Effective charges (d Force / dE) in cartesian axis

           atom      1   Si 
      Ex  (        0.02008        0.00000        0.00000 )
      Ey  (       -0.00000        0.02008       -0.00000 )
      Ez  (        0.00000       -0.00000        0.02008 )
           atom      2   Si 
      Ex  (        0.02008       -0.00000       -0.00000 )
      Ey  (       -0.00000        0.02008       -0.00000 )
      Ez  (       -0.00000       -0.00000        0.02008 )

          Effective charges (d P / du) in cartesian axis 

           atom      1   Si 
      Px  (       -0.00050       -0.00000       -0.00000 )
      Py  (       -0.00000       -0.00050        0.00000 )
      Pz  (       -0.00000       -0.00000       -0.00050 )
           atom      2   Si 
      Px  (       -0.00050       -0.00000       -0.00000 )
      Py  (       -0.00000       -0.00050       -0.00000 )
      Pz  (       -0.00000        0.00000       -0.00050 )

     Diagonalizing the dynamical matrix

     q = (    0.000000000   0.000000000   0.000000000 ) 

 **************************************************************************
     freq (    1) =      -0.122496 [THz] =      -4.086043 [cm-1]
     freq (    2) =      -0.122496 [THz] =      -4.086043 [cm-1]
     freq (    3) =      -0.122496 [THz] =      -4.086043 [cm-1]
     freq (    4) =      14.949320 [THz] =     498.655657 [cm-1]
     freq (    5) =      14.949320 [THz] =     498.655657 [cm-1]
     freq (    6) =      14.949320 [THz] =     498.655657 [cm-1]
 **************************************************************************

     Mode symmetry, O_h (m-3m)  point group:

     freq (  1 -  3) =         -4.1  [cm-1]   --> T_1u G_15  G_4- I  
     freq (  4 -  6) =        498.7  [cm-1]   --> T_2g G_25' G_5+ R  

     Calculation of q =   -0.1666667   0.1666667  -0.1666667
 
     Parallelization info
     --------------------
     sticks:   dense  smooth     PW     G-vecs:    dense   smooth      PW
     Min          55      27     10                 1091      378      84
     Max          56      28     11                 1093      395      86
     Sum         889     439    163                17477     6183    1363
 


     bravais-lattice index     =            2
     lattice parameter (alat)  =      10.3640  a.u.
     unit-cell volume          =     278.3058 (a.u.)^3
     number of atoms/cell      =            2
     number of atomic types    =            1
     number of electrons       =         8.00
     number of Kohn-Sham states=            4
     kinetic-energy cutoff     =      30.0000  Ry
     charge density cutoff     =     240.0000  Ry
     Exchange-correlation      = SLA  PW   PBE  PBE ( 1  4  3  4 0 0)

     celldm(1)=  10.364000  celldm(2)=   0.000000  celldm(3)=   0.000000
     celldm(4)=   0.000000  celldm(5)=   0.000000  celldm(6)=   0.000000

     crystal axes: (cart. coord. in units of alat)
               a(1) = (  -0.500000   0.000000   0.500000 )  
               a(2) = (   0.000000   0.500000   0.500000 )  
               a(3) = (  -0.500000   0.500000   0.000000 )  

     reciprocal axes: (cart. coord. in units 2 pi/alat)
               b(1) = ( -1.000000 -1.000000  1.000000 )  
               b(2) = (  1.000000  1.000000  1.000000 )  
               b(3) = ( -1.000000  1.000000 -1.000000 )  


     PseudoPot. # 1 for Si read from file:
     ./si_pbe_v1.uspp.F.UPF.txt
     MD5 check sum: a056efeee980c13900f22a371efd63c1
     Pseudo is Ultrasoft + core correction, Zval =  4.0
     Generated by new atomic code, or converted to UPF format
     Using radial grid of  899 points,  6 beta functions with: 
                l(1) =   0
                l(2) =   0
                l(3) =   1
                l(4) =   1
                l(5) =   2
                l(6) =   2
     Q(r) pseudized with  8 coefficients,  rinner =    0.900   0.900   0.900
                                                       0.900   0.900

     atomic species   valence    mass     pseudopotential
        Si             4.00    28.08600     Si( 1.00)

     48 Sym. Ops., with inversion, found



   Cartesian axes

     site n.     atom                  positions (alat units)
         1           Si  tau(   1) = (   0.0000000   0.0000000   0.0000000  )
         2           Si  tau(   2) = (   0.2500000   0.2500000   0.2500000  )

     number of k points=  2600

     Number of k-points >= 100: set verbosity='high' to print them.

     Dense  grid:    17477 G-vectors     FFT dimensions: (  40,  40,  40)

     Smooth grid:     6183 G-vectors     FFT dimensions: (  25,  25,  25)

     Largest allocated arrays     est. size (Mb)     dimensions
        Kohn-Sham Wavefunctions         0.00 Mb     (      58,    4)
        NL pseudopotentials             0.03 Mb     (      58,   36)
        Each V/rho on FFT grid          0.07 Mb     (    4800)
        Each G-vector array             0.01 Mb     (    1092)
        G-vector shells                 0.00 Mb     (     207)
     Largest temporary arrays     est. size (Mb)     dimensions
        Auxiliary wavefunctions         0.01 Mb     (      58,   16)
        Each subspace H/S matrix        0.00 Mb     (       8,    8)
        Each <psi_i|beta_j> matrix      0.00 Mb     (      36,    4)

     The potential is recalculated from file :
     ./silicon/_ph0/silicon.10.364.save/charge-density.dat

     Starting wfc are    8 atomic wfcs

     Band Structure Calculation
     Davidson diagonalization with overlap

     ethr =  1.25E-10,  avg # of iterations = 12.4

     total cpu time spent up to now is        1.8 secs

     End of band structure calculation

     Number of k-points >= 100: set verbosity='high' to print the bands.

     highest occupied level (ev):     5.8505

     Writing output data file silicon.10.364.save

                                                                                

     bravais-lattice index     =            2
     lattice parameter (alat)  =      10.3640  a.u.
     unit-cell volume          =     278.3058 (a.u.)^3
     number of atoms/cell      =            2
     number of atomic types    =            1
     kinetic-energy cut-off    =      30.0000  Ry
     charge density cut-off    =     240.0000  Ry
     convergence threshold     =      1.0E-16
     beta                      =       0.7000
     number of iterations used =            4
     Exchange-correlation      = SLA  PW   PBE  PBE ( 1  4  3  4 0 0)


     celldm(1)=   10.36400  celldm(2)=    0.00000  celldm(3)=    0.00000
     celldm(4)=    0.00000  celldm(5)=    0.00000  celldm(6)=    0.00000

     crystal axes: (cart. coord. in units of alat)
               a(1) = ( -0.5000  0.0000  0.5000 )  
               a(2) = (  0.0000  0.5000  0.5000 )  
               a(3) = ( -0.5000  0.5000  0.0000 )  

     reciprocal axes: (cart. coord. in units 2 pi/alat)
               b(1) = ( -1.0000 -1.0000  1.0000 )  
               b(2) = (  1.0000  1.0000  1.0000 )  
               b(3) = ( -1.0000  1.0000 -1.0000 )  


     Atoms inside the unit cell: 

     Cartesian axes

     site n.  atom      mass           positions (alat units)
        1     Si  28.0860   tau(    1) = (    0.00000    0.00000    0.00000  )
        2     Si  28.0860   tau(    2) = (    0.25000    0.25000    0.25000  )

     Computing dynamical matrix for 
                    q = (  -0.1666667   0.1666667  -0.1666667 )
 
      6 Sym.Ops. (no q -> -q+G )


     G cutoff =  652.9897  (   1092 G-vectors)     FFT grid: ( 40, 40, 40)
     G cutoff =  326.4948  (    390 G-vectors)  smooth grid: ( 25, 25, 25)
     number of k points=  2600

     PseudoPot. # 1 for Si read from file:
     ./si_pbe_v1.uspp.F.UPF.txt
     MD5 check sum: a056efeee980c13900f22a371efd63c1
     Pseudo is Ultrasoft + core correction, Zval =  4.0
     Generated by new atomic code, or converted to UPF format
     Using radial grid of  899 points,  6 beta functions with: 
                l(1) =   0
                l(2) =   0
                l(3) =   1
                l(4) =   1
                l(5) =   2
                l(6) =   2
     Q(r) pseudized with  8 coefficients,  rinner =    0.900   0.900   0.900
                                                       0.900   0.900

     Mode symmetry, C_3v (3m)   point group:


     Atomic displacements:
     There are   4 irreducible representations

     Representation     1      1 modes -A_1  L_1  To be done

     Representation     2      1 modes -A_1  L_1  To be done

     Representation     3      2 modes -E    L_3  To be done

     Representation     4      2 modes -E    L_3  To be done



     Alpha used in Ewald sum =   2.5000
     PHONON       :    46.20s CPU        55.22s WALL



     Representation #  1 mode #   1

     Self-consistent Calculation

      iter #   1 total cpu time :    56.2 secs   av.it.:   6.1
      thresh= 1.000E-02 alpha_mix =  0.700 |ddv_scf|^2 =  9.699E-04

      iter #   2 total cpu time :    57.2 secs   av.it.:   9.2
      thresh= 3.114E-03 alpha_mix =  0.700 |ddv_scf|^2 =  3.027E-02

      iter #   3 total cpu time :    58.1 secs   av.it.:   7.2
      thresh= 1.000E-02 alpha_mix =  0.700 |ddv_scf|^2 =  3.073E-07

      iter #   4 total cpu time :    58.7 secs   av.it.:   9.8
      thresh= 5.544E-05 alpha_mix =  0.700 |ddv_scf|^2 =  5.761E-09

      iter #   5 total cpu time :    59.8 secs   av.it.:  10.5
      thresh= 7.590E-06 alpha_mix =  0.700 |ddv_scf|^2 =  8.353E-10

      iter #   6 total cpu time :    60.7 secs   av.it.:   9.6
      thresh= 2.890E-06 alpha_mix =  0.700 |ddv_scf|^2 =  5.076E-10

      iter #   7 total cpu time :    61.8 secs   av.it.:   7.1
      thresh= 2.253E-06 alpha_mix =  0.700 |ddv_scf|^2 =  5.633E-11

      iter #   8 total cpu time :    62.4 secs   av.it.:   9.2
      thresh= 7.505E-07 alpha_mix =  0.700 |ddv_scf|^2 =  1.076E-12

      iter #   9 total cpu time :    62.9 secs   av.it.:   8.3
      thresh= 1.037E-07 alpha_mix =  0.700 |ddv_scf|^2 =  4.022E-14

      iter #  10 total cpu time :    63.5 secs   av.it.:   9.0
      thresh= 2.005E-08 alpha_mix =  0.700 |ddv_scf|^2 =  9.338E-15

      iter #  11 total cpu time :    72.8 secs   av.it.:   9.3
      thresh= 9.663E-09 alpha_mix =  0.700 |ddv_scf|^2 =  4.266E-16

      iter #  12 total cpu time :    82.7 secs   av.it.:   9.8
      thresh= 2.065E-09 alpha_mix =  0.700 |ddv_scf|^2 =  2.038E-17

     End of self-consistent calculation

     Convergence has been achieved 


     Representation #  2 mode #   2

     Self-consistent Calculation

      iter #   1 total cpu time :    87.0 secs   av.it.:   6.1
      thresh= 1.000E-02 alpha_mix =  0.700 |ddv_scf|^2 =  9.699E-04

      iter #   2 total cpu time :    87.8 secs   av.it.:   9.2
      thresh= 3.114E-03 alpha_mix =  0.700 |ddv_scf|^2 =  3.027E-02

      iter #   3 total cpu time :    89.3 secs   av.it.:   7.2
      thresh= 1.000E-02 alpha_mix =  0.700 |ddv_scf|^2 =  3.073E-07

      iter #   4 total cpu time :    90.7 secs   av.it.:   9.8
      thresh= 5.544E-05 alpha_mix =  0.700 |ddv_scf|^2 =  5.761E-09

      iter #   5 total cpu time :    91.6 secs   av.it.:  10.5
      thresh= 7.590E-06 alpha_mix =  0.700 |ddv_scf|^2 =  8.353E-10

      iter #   6 total cpu time :    92.3 secs   av.it.:   9.6
      thresh= 2.890E-06 alpha_mix =  0.700 |ddv_scf|^2 =  5.076E-10

      iter #   7 total cpu time :    92.8 secs   av.it.:   7.1
      thresh= 2.253E-06 alpha_mix =  0.700 |ddv_scf|^2 =  5.633E-11

      iter #   8 total cpu time :    93.3 secs   av.it.:   9.2
      thresh= 7.505E-07 alpha_mix =  0.700 |ddv_scf|^2 =  1.076E-12

      iter #   9 total cpu time :    93.9 secs   av.it.:   8.3
      thresh= 1.037E-07 alpha_mix =  0.700 |ddv_scf|^2 =  4.022E-14

      iter #  10 total cpu time :    94.5 secs   av.it.:   9.0
      thresh= 2.005E-08 alpha_mix =  0.700 |ddv_scf|^2 =  9.338E-15

      iter #  11 total cpu time :    95.3 secs   av.it.:   9.3
      thresh= 9.663E-09 alpha_mix =  0.700 |ddv_scf|^2 =  4.266E-16

      iter #  12 total cpu time :    96.3 secs   av.it.:   9.8
      thresh= 2.065E-09 alpha_mix =  0.700 |ddv_scf|^2 =  2.038E-17

     End of self-consistent calculation

     Convergence has been achieved 


     Representation #  3 modes #   3  4

     Self-consistent Calculation

      iter #   1 total cpu time :    97.4 secs   av.it.:   5.3
      thresh= 1.000E-02 alpha_mix =  0.700 |ddv_scf|^2 =  2.884E-08

      iter #   2 total cpu time :    98.8 secs   av.it.:  11.8
      thresh= 1.698E-05 alpha_mix =  0.700 |ddv_scf|^2 =  1.629E-09

      iter #   3 total cpu time :   101.1 secs   av.it.:  11.6
      thresh= 4.036E-06 alpha_mix =  0.700 |ddv_scf|^2 =  9.874E-11

      iter #   4 total cpu time :   102.4 secs   av.it.:  11.3
      thresh= 9.937E-07 alpha_mix =  0.700 |ddv_scf|^2 =  4.294E-13

      iter #   5 total cpu time :   104.4 secs   av.it.:  11.7
      thresh= 6.553E-08 alpha_mix =  0.700 |ddv_scf|^2 =  2.815E-14

      iter #   6 total cpu time :   107.6 secs   av.it.:  11.6
      thresh= 1.678E-08 alpha_mix =  0.700 |ddv_scf|^2 =  1.664E-16

      iter #   7 total cpu time :   108.8 secs   av.it.:  11.0
      thresh= 1.290E-09 alpha_mix =  0.700 |ddv_scf|^2 =  1.412E-17

     End of self-consistent calculation

     Convergence has been achieved 


     Representation #  4 modes #   5  6

     Self-consistent Calculation

      iter #   1 total cpu time :   112.3 secs   av.it.:   5.3
      thresh= 1.000E-02 alpha_mix =  0.700 |ddv_scf|^2 =  2.885E-08

      iter #   2 total cpu time :   113.6 secs   av.it.:  12.0
      thresh= 1.698E-05 alpha_mix =  0.700 |ddv_scf|^2 =  1.629E-09

      iter #   3 total cpu time :   114.9 secs   av.it.:  11.9
      thresh= 4.037E-06 alpha_mix =  0.700 |ddv_scf|^2 =  9.874E-11

      iter #   4 total cpu time :   116.6 secs   av.it.:  11.6
      thresh= 9.937E-07 alpha_mix =  0.700 |ddv_scf|^2 =  4.293E-13

      iter #   5 total cpu time :   118.3 secs   av.it.:  11.9
      thresh= 6.552E-08 alpha_mix =  0.700 |ddv_scf|^2 =  2.813E-14

      iter #   6 total cpu time :   119.7 secs   av.it.:  11.8
      thresh= 1.677E-08 alpha_mix =  0.700 |ddv_scf|^2 =  1.660E-16

      iter #   7 total cpu time :   121.5 secs   av.it.:  11.1
      thresh= 1.288E-09 alpha_mix =  0.700 |ddv_scf|^2 =  1.409E-17

     End of self-consistent calculation

     Convergence has been achieved 
 
     Number of q in the star =    8
     List of q in the star:
          1  -0.166666667   0.166666667  -0.166666667
          2   0.166666667   0.166666667   0.166666667
          3  -0.166666667  -0.166666667  -0.166666667
          4   0.166666667  -0.166666667   0.166666667
          5   0.166666667  -0.166666667  -0.166666667
          6   0.166666667   0.166666667  -0.166666667
          7  -0.166666667  -0.166666667   0.166666667
          8  -0.166666667   0.166666667   0.166666667

     Diagonalizing the dynamical matrix

     q = (   -0.166666667   0.166666667  -0.166666667 ) 

 **************************************************************************
     freq (    1) =       2.231815 [THz] =      74.445346 [cm-1]
     freq (    2) =       2.231815 [THz] =      74.445346 [cm-1]
     freq (    3) =       4.606840 [THz] =     153.667630 [cm-1]
     freq (    4) =      14.567844 [THz] =     485.930973 [cm-1]
     freq (    5) =      14.577857 [THz] =     486.264956 [cm-1]
     freq (    6) =      14.577857 [THz] =     486.264956 [cm-1]
 **************************************************************************

     Mode symmetry, C_3v (3m)   point group:

     freq (  1 -  2) =         74.4  [cm-1]   --> E    L_3           
     freq (  3 -  3) =        153.7  [cm-1]   --> A_1  L_1           
     freq (  4 -  4) =        485.9  [cm-1]   --> A_1  L_1           
     freq (  5 -  6) =        486.3  [cm-1]   --> E    L_3           

     Calculation of q =   -0.3333333   0.3333333  -0.3333333
 
     Parallelization info
     --------------------
     sticks:   dense  smooth     PW     G-vecs:    dense   smooth      PW
     Min          55      27     10                 1091      380      87
     Max          56      28     11                 1093      392      90
     Sum         889     439    163                17477     6183    1411
 


     bravais-lattice index     =            2
     lattice parameter (alat)  =      10.3640  a.u.
     unit-cell volume          =     278.3058 (a.u.)^3
     number of atoms/cell      =            2
     number of atomic types    =            1
     number of electrons       =         8.00
     number of Kohn-Sham states=            4
     kinetic-energy cutoff     =      30.0000  Ry
     charge density cutoff     =     240.0000  Ry
     Exchange-correlation      = SLA  PW   PBE  PBE ( 1  4  3  4 0 0)

     celldm(1)=  10.364000  celldm(2)=   0.000000  celldm(3)=   0.000000
     celldm(4)=   0.000000  celldm(5)=   0.000000  celldm(6)=   0.000000

     crystal axes: (cart. coord. in units of alat)
               a(1) = (  -0.500000   0.000000   0.500000 )  
               a(2) = (   0.000000   0.500000   0.500000 )  
               a(3) = (  -0.500000   0.500000   0.000000 )  

     reciprocal axes: (cart. coord. in units 2 pi/alat)
               b(1) = ( -1.000000 -1.000000  1.000000 )  
               b(2) = (  1.000000  1.000000  1.000000 )  
               b(3) = ( -1.000000  1.000000 -1.000000 )  


     PseudoPot. # 1 for Si read from file:
     ./si_pbe_v1.uspp.F.UPF.txt
     MD5 check sum: a056efeee980c13900f22a371efd63c1
     Pseudo is Ultrasoft + core correction, Zval =  4.0
     Generated by new atomic code, or converted to UPF format
     Using radial grid of  899 points,  6 beta functions with: 
                l(1) =   0
                l(2) =   0
                l(3) =   1
                l(4) =   1
                l(5) =   2
                l(6) =   2
     Q(r) pseudized with  8 coefficients,  rinner =    0.900   0.900   0.900
                                                       0.900   0.900

     atomic species   valence    mass     pseudopotential
        Si             4.00    28.08600     Si( 1.00)

     48 Sym. Ops., with inversion, found



   Cartesian axes

     site n.     atom                  positions (alat units)
         1           Si  tau(   1) = (   0.0000000   0.0000000   0.0000000  )
         2           Si  tau(   2) = (   0.2500000   0.2500000   0.2500000  )

     number of k points=  2600

     Number of k-points >= 100: set verbosity='high' to print them.

     Dense  grid:    17477 G-vectors     FFT dimensions: (  40,  40,  40)

     Smooth grid:     6183 G-vectors     FFT dimensions: (  25,  25,  25)

     Largest allocated arrays     est. size (Mb)     dimensions
        Kohn-Sham Wavefunctions         0.00 Mb     (      56,    4)
        NL pseudopotentials             0.03 Mb     (      56,   36)
        Each V/rho on FFT grid          0.07 Mb     (    4800)
        Each G-vector array             0.01 Mb     (    1092)
        G-vector shells                 0.00 Mb     (     208)
     Largest temporary arrays     est. size (Mb)     dimensions
        Auxiliary wavefunctions         0.01 Mb     (      56,   16)
        Each subspace H/S matrix        0.00 Mb     (       8,    8)
        Each <psi_i|beta_j> matrix      0.00 Mb     (      36,    4)

     The potential is recalculated from file :
     ./silicon/_ph0/silicon.10.364.save/charge-density.dat

     Starting wfc are    8 atomic wfcs

     Band Structure Calculation
     Davidson diagonalization with overlap

     ethr =  1.25E-10,  avg # of iterations = 12.4

     total cpu time spent up to now is        5.8 secs

     End of band structure calculation

     Number of k-points >= 100: set verbosity='high' to print the bands.

     highest occupied level (ev):     5.8505

     Writing output data file silicon.10.364.save

                                                                                

     bravais-lattice index     =            2
     lattice parameter (alat)  =      10.3640  a.u.
     unit-cell volume          =     278.3058 (a.u.)^3
     number of atoms/cell      =            2
     number of atomic types    =            1
     kinetic-energy cut-off    =      30.0000  Ry
     charge density cut-off    =     240.0000  Ry
     convergence threshold     =      1.0E-16
     beta                      =       0.7000
     number of iterations used =            4
     Exchange-correlation      = SLA  PW   PBE  PBE ( 1  4  3  4 0 0)


     celldm(1)=   10.36400  celldm(2)=    0.00000  celldm(3)=    0.00000
     celldm(4)=    0.00000  celldm(5)=    0.00000  celldm(6)=    0.00000

     crystal axes: (cart. coord. in units of alat)
               a(1) = ( -0.5000  0.0000  0.5000 )  
               a(2) = (  0.0000  0.5000  0.5000 )  
               a(3) = ( -0.5000  0.5000  0.0000 )  

     reciprocal axes: (cart. coord. in units 2 pi/alat)
               b(1) = ( -1.0000 -1.0000  1.0000 )  
               b(2) = (  1.0000  1.0000  1.0000 )  
               b(3) = ( -1.0000  1.0000 -1.0000 )  


     Atoms inside the unit cell: 

     Cartesian axes

     site n.  atom      mass           positions (alat units)
        1     Si  28.0860   tau(    1) = (    0.00000    0.00000    0.00000  )
        2     Si  28.0860   tau(    2) = (    0.25000    0.25000    0.25000  )

     Computing dynamical matrix for 
                    q = (  -0.3333333   0.3333333  -0.3333333 )
 
      6 Sym.Ops. (no q -> -q+G )


     G cutoff =  652.9897  (   1092 G-vectors)     FFT grid: ( 40, 40, 40)
     G cutoff =  326.4948  (    390 G-vectors)  smooth grid: ( 25, 25, 25)
     number of k points=  2600

     PseudoPot. # 1 for Si read from file:
     ./si_pbe_v1.uspp.F.UPF.txt
     MD5 check sum: a056efeee980c13900f22a371efd63c1
     Pseudo is Ultrasoft + core correction, Zval =  4.0
     Generated by new atomic code, or converted to UPF format
     Using radial grid of  899 points,  6 beta functions with: 
                l(1) =   0
                l(2) =   0
                l(3) =   1
                l(4) =   1
                l(5) =   2
                l(6) =   2
     Q(r) pseudized with  8 coefficients,  rinner =    0.900   0.900   0.900
                                                       0.900   0.900

     Mode symmetry, C_3v (3m)   point group:


     Atomic displacements:
     There are   4 irreducible representations

     Representation     1      1 modes -A_1  L_1  To be done

     Representation     2      1 modes -A_1  L_1  To be done

     Representation     3      2 modes -E    L_3  To be done

     Representation     4      2 modes -E    L_3  To be done



     Alpha used in Ewald sum =   2.5000
     PHONON       :  1m52.44s CPU     2m 6.94s WALL



     Representation #  1 mode #   1

     Self-consistent Calculation

      iter #   1 total cpu time :   127.7 secs   av.it.:   6.0
      thresh= 1.000E-02 alpha_mix =  0.700 |ddv_scf|^2 =  6.198E-05

      iter #   2 total cpu time :   128.8 secs   av.it.:  10.2
      thresh= 7.873E-04 alpha_mix =  0.700 |ddv_scf|^2 =  4.774E-04

      iter #   3 total cpu time :   129.7 secs   av.it.:   8.4
      thresh= 2.185E-03 alpha_mix =  0.700 |ddv_scf|^2 =  9.659E-08

      iter #   4 total cpu time :   130.6 secs   av.it.:  10.5
      thresh= 3.108E-05 alpha_mix =  0.700 |ddv_scf|^2 =  2.291E-09

      iter #   5 total cpu time :   132.1 secs   av.it.:  10.7
      thresh= 4.786E-06 alpha_mix =  0.700 |ddv_scf|^2 =  6.213E-11

      iter #   6 total cpu time :   132.9 secs   av.it.:  10.9
      thresh= 7.882E-07 alpha_mix =  0.700 |ddv_scf|^2 =  3.754E-12

      iter #   7 total cpu time :   133.5 secs   av.it.:  11.0
      thresh= 1.937E-07 alpha_mix =  0.700 |ddv_scf|^2 =  4.158E-12

      iter #   8 total cpu time :   135.0 secs   av.it.:   8.7
      thresh= 2.039E-07 alpha_mix =  0.700 |ddv_scf|^2 =  1.493E-13

      iter #   9 total cpu time :   135.6 secs   av.it.:  10.1
      thresh= 3.863E-08 alpha_mix =  0.700 |ddv_scf|^2 =  2.685E-13

      iter #  10 total cpu time :   136.8 secs   av.it.:   9.2
      thresh= 5.181E-08 alpha_mix =  0.700 |ddv_scf|^2 =  1.847E-15

      iter #  11 total cpu time :   138.0 secs   av.it.:  10.4
      thresh= 4.298E-09 alpha_mix =  0.700 |ddv_scf|^2 =  3.580E-16

      iter #  12 total cpu time :   138.9 secs   av.it.:  10.0
      thresh= 1.892E-09 alpha_mix =  0.700 |ddv_scf|^2 =  9.575E-18

     End of self-consistent calculation

     Convergence has been achieved 


     Representation #  2 mode #   2

     Self-consistent Calculation

      iter #   1 total cpu time :   141.6 secs   av.it.:   6.0
      thresh= 1.000E-02 alpha_mix =  0.700 |ddv_scf|^2 =  6.198E-05

      iter #   2 total cpu time :   142.8 secs   av.it.:  10.2
      thresh= 7.873E-04 alpha_mix =  0.700 |ddv_scf|^2 =  4.774E-04

      iter #   3 total cpu time :   143.5 secs   av.it.:   8.4
      thresh= 2.185E-03 alpha_mix =  0.700 |ddv_scf|^2 =  9.659E-08

      iter #   4 total cpu time :   145.6 secs   av.it.:  10.5
      thresh= 3.108E-05 alpha_mix =  0.700 |ddv_scf|^2 =  2.291E-09

      iter #   5 total cpu time :   146.2 secs   av.it.:  10.7
      thresh= 4.786E-06 alpha_mix =  0.700 |ddv_scf|^2 =  6.213E-11

      iter #   6 total cpu time :   147.2 secs   av.it.:  10.9
      thresh= 7.882E-07 alpha_mix =  0.700 |ddv_scf|^2 =  3.754E-12

      iter #   7 total cpu time :   148.0 secs   av.it.:  11.0
      thresh= 1.937E-07 alpha_mix =  0.700 |ddv_scf|^2 =  4.158E-12

      iter #   8 total cpu time :   148.8 secs   av.it.:   8.7
      thresh= 2.039E-07 alpha_mix =  0.700 |ddv_scf|^2 =  1.493E-13

      iter #   9 total cpu time :   149.7 secs   av.it.:  10.1
      thresh= 3.863E-08 alpha_mix =  0.700 |ddv_scf|^2 =  2.685E-13

      iter #  10 total cpu time :   151.3 secs   av.it.:   9.2
      thresh= 5.181E-08 alpha_mix =  0.700 |ddv_scf|^2 =  1.847E-15

      iter #  11 total cpu time :   152.1 secs   av.it.:  10.4
      thresh= 4.298E-09 alpha_mix =  0.700 |ddv_scf|^2 =  3.580E-16

      iter #  12 total cpu time :   152.7 secs   av.it.:  10.0
      thresh= 1.892E-09 alpha_mix =  0.700 |ddv_scf|^2 =  9.575E-18

     End of self-consistent calculation

     Convergence has been achieved 


     Representation #  3 modes #   3  4

     Self-consistent Calculation

      iter #   1 total cpu time :   156.9 secs   av.it.:   5.2
      thresh= 1.000E-02 alpha_mix =  0.700 |ddv_scf|^2 =  3.758E-08

      iter #   2 total cpu time :   167.7 secs   av.it.:  11.8
      thresh= 1.939E-05 alpha_mix =  0.700 |ddv_scf|^2 =  2.672E-09

      iter #   3 total cpu time :   169.2 secs   av.it.:  11.6
      thresh= 5.170E-06 alpha_mix =  0.700 |ddv_scf|^2 =  1.229E-10

      iter #   4 total cpu time :   170.5 secs   av.it.:  11.3
      thresh= 1.109E-06 alpha_mix =  0.700 |ddv_scf|^2 =  4.432E-13

      iter #   5 total cpu time :   172.3 secs   av.it.:  11.6
      thresh= 6.657E-08 alpha_mix =  0.700 |ddv_scf|^2 =  2.864E-14

      iter #   6 total cpu time :   173.5 secs   av.it.:  11.4
      thresh= 1.692E-08 alpha_mix =  0.700 |ddv_scf|^2 =  2.059E-16

      iter #   7 total cpu time :   175.2 secs   av.it.:  11.1
      thresh= 1.435E-09 alpha_mix =  0.700 |ddv_scf|^2 =  1.437E-17

     End of self-consistent calculation

     Convergence has been achieved 


     Representation #  4 modes #   5  6

     Self-consistent Calculation

      iter #   1 total cpu time :   176.2 secs   av.it.:   5.3
      thresh= 1.000E-02 alpha_mix =  0.700 |ddv_scf|^2 =  3.758E-08

      iter #   2 total cpu time :   177.5 secs   av.it.:  12.1
      thresh= 1.939E-05 alpha_mix =  0.700 |ddv_scf|^2 =  2.672E-09

      iter #   3 total cpu time :   178.8 secs   av.it.:  11.9
      thresh= 5.169E-06 alpha_mix =  0.700 |ddv_scf|^2 =  1.229E-10

      iter #   4 total cpu time :   180.5 secs   av.it.:  11.5
      thresh= 1.108E-06 alpha_mix =  0.700 |ddv_scf|^2 =  4.434E-13

      iter #   5 total cpu time :   181.8 secs   av.it.:  11.8
      thresh= 6.659E-08 alpha_mix =  0.700 |ddv_scf|^2 =  2.866E-14

      iter #   6 total cpu time :   194.2 secs   av.it.:  11.6
      thresh= 1.693E-08 alpha_mix =  0.700 |ddv_scf|^2 =  2.053E-16

      iter #   7 total cpu time :   195.8 secs   av.it.:  11.3
      thresh= 1.433E-09 alpha_mix =  0.700 |ddv_scf|^2 =  1.434E-17

     End of self-consistent calculation

     Convergence has been achieved 
 
     Number of q in the star =    8
     List of q in the star:
          1  -0.333333333   0.333333333  -0.333333333
          2   0.333333333   0.333333333   0.333333333
          3  -0.333333333  -0.333333333  -0.333333333
          4   0.333333333  -0.333333333   0.333333333
          5   0.333333333  -0.333333333  -0.333333333
          6   0.333333333   0.333333333  -0.333333333
          7  -0.333333333  -0.333333333   0.333333333
          8  -0.333333333   0.333333333   0.333333333

     Diagonalizing the dynamical matrix

     q = (   -0.333333333   0.333333333  -0.333333333 ) 

 **************************************************************************
     freq (    1) =       3.195656 [THz] =     106.595624 [cm-1]
     freq (    2) =       3.195656 [THz] =     106.595624 [cm-1]
     freq (    3) =       8.518566 [THz] =     284.148791 [cm-1]
     freq (    4) =      13.411227 [THz] =     447.350382 [cm-1]
     freq (    5) =      14.226578 [THz] =     474.547549 [cm-1]
     freq (    6) =      14.226578 [THz] =     474.547549 [cm-1]
 **************************************************************************

     Mode symmetry, C_3v (3m)   point group:

     freq (  1 -  2) =        106.6  [cm-1]   --> E    L_3           
     freq (  3 -  3) =        284.1  [cm-1]   --> A_1  L_1           
     freq (  4 -  4) =        447.4  [cm-1]   --> A_1  L_1           
     freq (  5 -  6) =        474.5  [cm-1]   --> E    L_3           

     Calculation of q =    0.5000000  -0.5000000   0.5000000
 
     Parallelization info
     --------------------
     sticks:   dense  smooth     PW     G-vecs:    dense   smooth      PW
     Min          55      27     10                 1091      381      91
     Max          56      28     11                 1093      394      94
     Sum         889     439    169                17477     6183    1471
 


     bravais-lattice index     =            2
     lattice parameter (alat)  =      10.3640  a.u.
     unit-cell volume          =     278.3058 (a.u.)^3
     number of atoms/cell      =            2
     number of atomic types    =            1
     number of electrons       =         8.00
     number of Kohn-Sham states=            4
     kinetic-energy cutoff     =      30.0000  Ry
     charge density cutoff     =     240.0000  Ry
     Exchange-correlation      = SLA  PW   PBE  PBE ( 1  4  3  4 0 0)

     celldm(1)=  10.364000  celldm(2)=   0.000000  celldm(3)=   0.000000
     celldm(4)=   0.000000  celldm(5)=   0.000000  celldm(6)=   0.000000

     crystal axes: (cart. coord. in units of alat)
               a(1) = (  -0.500000   0.000000   0.500000 )  
               a(2) = (   0.000000   0.500000   0.500000 )  
               a(3) = (  -0.500000   0.500000   0.000000 )  

     reciprocal axes: (cart. coord. in units 2 pi/alat)
               b(1) = ( -1.000000 -1.000000  1.000000 )  
               b(2) = (  1.000000  1.000000  1.000000 )  
               b(3) = ( -1.000000  1.000000 -1.000000 )  


     PseudoPot. # 1 for Si read from file:
     ./si_pbe_v1.uspp.F.UPF.txt
     MD5 check sum: a056efeee980c13900f22a371efd63c1
     Pseudo is Ultrasoft + core correction, Zval =  4.0
     Generated by new atomic code, or converted to UPF format
     Using radial grid of  899 points,  6 beta functions with: 
                l(1) =   0
                l(2) =   0
                l(3) =   1
                l(4) =   1
                l(5) =   2
                l(6) =   2
     Q(r) pseudized with  8 coefficients,  rinner =    0.900   0.900   0.900
                                                       0.900   0.900

     atomic species   valence    mass     pseudopotential
        Si             4.00    28.08600     Si( 1.00)

     48 Sym. Ops., with inversion, found



   Cartesian axes

     site n.     atom                  positions (alat units)
         1           Si  tau(   1) = (   0.0000000   0.0000000   0.0000000  )
         2           Si  tau(   2) = (   0.2500000   0.2500000   0.2500000  )

     number of k points=  1300

     Number of k-points >= 100: set verbosity='high' to print them.

     Dense  grid:    17477 G-vectors     FFT dimensions: (  40,  40,  40)

     Smooth grid:     6183 G-vectors     FFT dimensions: (  25,  25,  25)

     Largest allocated arrays     est. size (Mb)     dimensions
        Kohn-Sham Wavefunctions         0.00 Mb     (      56,    4)
        NL pseudopotentials             0.03 Mb     (      56,   36)
        Each V/rho on FFT grid          0.07 Mb     (    4800)
        Each G-vector array             0.01 Mb     (    1092)
        G-vector shells                 0.00 Mb     (     207)
     Largest temporary arrays     est. size (Mb)     dimensions
        Auxiliary wavefunctions         0.01 Mb     (      56,   16)
        Each subspace H/S matrix        0.00 Mb     (       8,    8)
        Each <psi_i|beta_j> matrix      0.00 Mb     (      36,    4)

     The potential is recalculated from file :
     ./silicon/_ph0/silicon.10.364.save/charge-density.dat

     Starting wfc are    8 atomic wfcs

     Band Structure Calculation
     Davidson diagonalization with overlap

     ethr =  1.25E-10,  avg # of iterations = 12.4

     total cpu time spent up to now is        9.1 secs

     End of band structure calculation

     Number of k-points >= 100: set verbosity='high' to print the bands.

     highest occupied level (ev):     5.8505

     Writing output data file silicon.10.364.save

                                                                                

     bravais-lattice index     =            2
     lattice parameter (alat)  =      10.3640  a.u.
     unit-cell volume          =     278.3058 (a.u.)^3
     number of atoms/cell      =            2
     number of atomic types    =            1
     kinetic-energy cut-off    =      30.0000  Ry
     charge density cut-off    =     240.0000  Ry
     convergence threshold     =      1.0E-16
     beta                      =       0.7000
     number of iterations used =            4
     Exchange-correlation      = SLA  PW   PBE  PBE ( 1  4  3  4 0 0)


     celldm(1)=   10.36400  celldm(2)=    0.00000  celldm(3)=    0.00000
     celldm(4)=    0.00000  celldm(5)=    0.00000  celldm(6)=    0.00000

     crystal axes: (cart. coord. in units of alat)
               a(1) = ( -0.5000  0.0000  0.5000 )  
               a(2) = (  0.0000  0.5000  0.5000 )  
               a(3) = ( -0.5000  0.5000  0.0000 )  

     reciprocal axes: (cart. coord. in units 2 pi/alat)
               b(1) = ( -1.0000 -1.0000  1.0000 )  
               b(2) = (  1.0000  1.0000  1.0000 )  
               b(3) = ( -1.0000  1.0000 -1.0000 )  


     Atoms inside the unit cell: 

     Cartesian axes

     site n.  atom      mass           positions (alat units)
        1     Si  28.0860   tau(    1) = (    0.00000    0.00000    0.00000  )
        2     Si  28.0860   tau(    2) = (    0.25000    0.25000    0.25000  )

     Computing dynamical matrix for 
                    q = (   0.5000000  -0.5000000   0.5000000 )
 
     13 Sym.Ops. (with q -> -q+G )


     G cutoff =  652.9897  (   1092 G-vectors)     FFT grid: ( 40, 40, 40)
     G cutoff =  326.4948  (    391 G-vectors)  smooth grid: ( 25, 25, 25)
     number of k points=  1300

     PseudoPot. # 1 for Si read from file:
     ./si_pbe_v1.uspp.F.UPF.txt
     MD5 check sum: a056efeee980c13900f22a371efd63c1
     Pseudo is Ultrasoft + core correction, Zval =  4.0
     Generated by new atomic code, or converted to UPF format
     Using radial grid of  899 points,  6 beta functions with: 
                l(1) =   0
                l(2) =   0
                l(3) =   1
                l(4) =   1
                l(5) =   2
                l(6) =   2
     Q(r) pseudized with  8 coefficients,  rinner =    0.900   0.900   0.900
                                                       0.900   0.900


     Atomic displacements:
     There are   4 irreducible representations

     Representation     1      1 modes -  To be done

     Representation     2      1 modes -  To be done

     Representation     3      2 modes -  To be done

     Representation     4      2 modes -  To be done



     Alpha used in Ewald sum =   2.5000
     PHONON       :  2m58.66s CPU     3m19.54s WALL



     Representation #  1 mode #   1

     Self-consistent Calculation

      iter #   1 total cpu time :   200.6 secs   av.it.:   5.1
      thresh= 1.000E-02 alpha_mix =  0.700 |ddv_scf|^2 =  2.101E-06

      iter #   2 total cpu time :   201.6 secs   av.it.:  10.7
      thresh= 1.449E-04 alpha_mix =  0.700 |ddv_scf|^2 =  1.947E-06

      iter #   3 total cpu time :   202.4 secs   av.it.:   9.9
      thresh= 1.395E-04 alpha_mix =  0.700 |ddv_scf|^2 =  1.162E-09

      iter #   4 total cpu time :   203.7 secs   av.it.:  10.1
      thresh= 3.409E-06 alpha_mix =  0.700 |ddv_scf|^2 =  1.185E-11

      iter #   5 total cpu time :   204.8 secs   av.it.:   9.9
      thresh= 3.443E-07 alpha_mix =  0.700 |ddv_scf|^2 =  1.524E-13

      iter #   6 total cpu time :   205.6 secs   av.it.:  10.0
      thresh= 3.904E-08 alpha_mix =  0.700 |ddv_scf|^2 =  2.216E-15

      iter #   7 total cpu time :   206.7 secs   av.it.:  10.1
      thresh= 4.707E-09 alpha_mix =  0.700 |ddv_scf|^2 =  4.122E-17

     End of self-consistent calculation

     Convergence has been achieved 


     Representation #  2 mode #   2

     Self-consistent Calculation

      iter #   1 total cpu time :   207.3 secs   av.it.:   6.0
      thresh= 1.000E-02 alpha_mix =  0.700 |ddv_scf|^2 =  2.981E-05

      iter #   2 total cpu time :   207.7 secs   av.it.:  10.6
      thresh= 5.459E-04 alpha_mix =  0.700 |ddv_scf|^2 =  9.294E-05

      iter #   3 total cpu time :   208.1 secs   av.it.:   9.3
      thresh= 9.641E-04 alpha_mix =  0.700 |ddv_scf|^2 =  7.101E-09

      iter #   4 total cpu time :   208.5 secs   av.it.:  10.7
      thresh= 8.427E-06 alpha_mix =  0.700 |ddv_scf|^2 =  3.581E-10

      iter #   5 total cpu time :   209.6 secs   av.it.:  10.8
      thresh= 1.892E-06 alpha_mix =  0.700 |ddv_scf|^2 =  1.055E-11

      iter #   6 total cpu time :   210.8 secs   av.it.:  10.6
      thresh= 3.248E-07 alpha_mix =  0.700 |ddv_scf|^2 =  7.848E-14

      iter #   7 total cpu time :   211.7 secs   av.it.:  10.0
      thresh= 2.801E-08 alpha_mix =  0.700 |ddv_scf|^2 =  8.761E-16

      iter #   8 total cpu time :   212.8 secs   av.it.:   9.7
      thresh= 2.960E-09 alpha_mix =  0.700 |ddv_scf|^2 =  3.757E-17

     End of self-consistent calculation

     Convergence has been achieved 


     Representation #  3 modes #   3  4

     Self-consistent Calculation

      iter #   1 total cpu time :   213.5 secs   av.it.:   5.1
      thresh= 1.000E-02 alpha_mix =  0.700 |ddv_scf|^2 =  1.355E-08

      iter #   2 total cpu time :   214.6 secs   av.it.:  11.7
      thresh= 1.164E-05 alpha_mix =  0.700 |ddv_scf|^2 =  7.973E-10

      iter #   3 total cpu time :   215.3 secs   av.it.:  11.2
      thresh= 2.824E-06 alpha_mix =  0.700 |ddv_scf|^2 =  2.723E-11

      iter #   4 total cpu time :   216.0 secs   av.it.:  11.3
      thresh= 5.218E-07 alpha_mix =  0.700 |ddv_scf|^2 =  2.211E-13

      iter #   5 total cpu time :   216.7 secs   av.it.:  11.2
      thresh= 4.702E-08 alpha_mix =  0.700 |ddv_scf|^2 =  2.467E-15

      iter #   6 total cpu time :   217.4 secs   av.it.:  11.2
      thresh= 4.967E-09 alpha_mix =  0.700 |ddv_scf|^2 =  2.600E-17

     End of self-consistent calculation

     Convergence has been achieved 


     Representation #  4 modes #   5  6

     Self-consistent Calculation

      iter #   1 total cpu time :   218.1 secs   av.it.:   5.2
      thresh= 1.000E-02 alpha_mix =  0.700 |ddv_scf|^2 =  6.948E-08

      iter #   2 total cpu time :   219.1 secs   av.it.:  11.8
      thresh= 2.636E-05 alpha_mix =  0.700 |ddv_scf|^2 =  5.580E-09

      iter #   3 total cpu time :   219.9 secs   av.it.:  11.6
      thresh= 7.470E-06 alpha_mix =  0.700 |ddv_scf|^2 =  1.464E-10

      iter #   4 total cpu time :   224.3 secs   av.it.:  10.5
      thresh= 1.210E-06 alpha_mix =  0.700 |ddv_scf|^2 =  2.695E-13

      iter #   5 total cpu time :   225.6 secs   av.it.:  11.2
      thresh= 5.191E-08 alpha_mix =  0.700 |ddv_scf|^2 =  2.475E-15

      iter #   6 total cpu time :   227.9 secs   av.it.:  11.3
      thresh= 4.975E-09 alpha_mix =  0.700 |ddv_scf|^2 =  6.783E-17

     End of self-consistent calculation

     Convergence has been achieved 
 
     Number of q in the star =    4
     List of q in the star:
          1   0.500000000  -0.500000000   0.500000000
          2   0.500000000   0.500000000   0.500000000
          3  -0.500000000   0.500000000   0.500000000
          4   0.500000000   0.500000000  -0.500000000

     Diagonalizing the dynamical matrix

     q = (    0.500000000  -0.500000000   0.500000000 ) 

 **************************************************************************
     freq (    1) =       3.382399 [THz] =     112.824676 [cm-1]
     freq (    2) =       3.382399 [THz] =     112.824676 [cm-1]
     freq (    3) =      11.061248 [THz] =     368.963525 [cm-1]
     freq (    4) =      11.797938 [THz] =     393.536853 [cm-1]
     freq (    5) =      14.145891 [THz] =     471.856140 [cm-1]
     freq (    6) =      14.145891 [THz] =     471.856140 [cm-1]
 **************************************************************************

     Calculation of q =    0.0000000   0.3333333   0.0000000
 
     Parallelization info
     --------------------
     sticks:   dense  smooth     PW     G-vecs:    dense   smooth      PW
     Min          55      27     10                 1091      378      84
     Max          56      28     11                 1093      395      86
     Sum         889     439    163                17477     6183    1363
 


     bravais-lattice index     =            2
     lattice parameter (alat)  =      10.3640  a.u.
     unit-cell volume          =     278.3058 (a.u.)^3
     number of atoms/cell      =            2
     number of atomic types    =            1
     number of electrons       =         8.00
     number of Kohn-Sham states=            4
     kinetic-energy cutoff     =      30.0000  Ry
     charge density cutoff     =     240.0000  Ry
     Exchange-correlation      = SLA  PW   PBE  PBE ( 1  4  3  4 0 0)

     celldm(1)=  10.364000  celldm(2)=   0.000000  celldm(3)=   0.000000
     celldm(4)=   0.000000  celldm(5)=   0.000000  celldm(6)=   0.000000

     crystal axes: (cart. coord. in units of alat)
               a(1) = (  -0.500000   0.000000   0.500000 )  
               a(2) = (   0.000000   0.500000   0.500000 )  
               a(3) = (  -0.500000   0.500000   0.000000 )  

     reciprocal axes: (cart. coord. in units 2 pi/alat)
               b(1) = ( -1.000000 -1.000000  1.000000 )  
               b(2) = (  1.000000  1.000000  1.000000 )  
               b(3) = ( -1.000000  1.000000 -1.000000 )  


     PseudoPot. # 1 for Si read from file:
     ./si_pbe_v1.uspp.F.UPF.txt
     MD5 check sum: a056efeee980c13900f22a371efd63c1
     Pseudo is Ultrasoft + core correction, Zval =  4.0
     Generated by new atomic code, or converted to UPF format
     Using radial grid of  899 points,  6 beta functions with: 
                l(1) =   0
                l(2) =   0
                l(3) =   1
                l(4) =   1
                l(5) =   2
                l(6) =   2
     Q(r) pseudized with  8 coefficients,  rinner =    0.900   0.900   0.900
                                                       0.900   0.900

     atomic species   valence    mass     pseudopotential
        Si             4.00    28.08600     Si( 1.00)

     48 Sym. Ops., with inversion, found



   Cartesian axes

     site n.     atom                  positions (alat units)
         1           Si  tau(   1) = (   0.0000000   0.0000000   0.0000000  )
         2           Si  tau(   2) = (   0.2500000   0.2500000   0.2500000  )

     number of k points=  1872

     Number of k-points >= 100: set verbosity='high' to print them.

     Dense  grid:    17477 G-vectors     FFT dimensions: (  40,  40,  40)

     Smooth grid:     6183 G-vectors     FFT dimensions: (  25,  25,  25)

     Largest allocated arrays     est. size (Mb)     dimensions
        Kohn-Sham Wavefunctions         0.00 Mb     (      56,    4)
        NL pseudopotentials             0.03 Mb     (      56,   36)
        Each V/rho on FFT grid          0.07 Mb     (    4800)
        Each G-vector array             0.01 Mb     (    1092)
        G-vector shells                 0.00 Mb     (     207)
     Largest temporary arrays     est. size (Mb)     dimensions
        Auxiliary wavefunctions         0.01 Mb     (      56,   16)
        Each subspace H/S matrix        0.00 Mb     (       8,    8)
        Each <psi_i|beta_j> matrix      0.00 Mb     (      36,    4)

     The potential is recalculated from file :
     ./silicon/_ph0/silicon.10.364.save/charge-density.dat

     Starting wfc are    8 atomic wfcs

     Band Structure Calculation
     Davidson diagonalization with overlap

     ethr =  1.25E-10,  avg # of iterations = 12.4

     total cpu time spent up to now is       17.0 secs

     End of band structure calculation

     Number of k-points >= 100: set verbosity='high' to print the bands.

     highest occupied level (ev):     5.8505

     Writing output data file silicon.10.364.save

                                                                                

     bravais-lattice index     =            2
     lattice parameter (alat)  =      10.3640  a.u.
     unit-cell volume          =     278.3058 (a.u.)^3
     number of atoms/cell      =            2
     number of atomic types    =            1
     kinetic-energy cut-off    =      30.0000  Ry
     charge density cut-off    =     240.0000  Ry
     convergence threshold     =      1.0E-16
     beta                      =       0.7000
     number of iterations used =            4
     Exchange-correlation      = SLA  PW   PBE  PBE ( 1  4  3  4 0 0)


     celldm(1)=   10.36400  celldm(2)=    0.00000  celldm(3)=    0.00000
     celldm(4)=    0.00000  celldm(5)=    0.00000  celldm(6)=    0.00000

     crystal axes: (cart. coord. in units of alat)
               a(1) = ( -0.5000  0.0000  0.5000 )  
               a(2) = (  0.0000  0.5000  0.5000 )  
               a(3) = ( -0.5000  0.5000  0.0000 )  

     reciprocal axes: (cart. coord. in units 2 pi/alat)
               b(1) = ( -1.0000 -1.0000  1.0000 )  
               b(2) = (  1.0000  1.0000  1.0000 )  
               b(3) = ( -1.0000  1.0000 -1.0000 )  


     Atoms inside the unit cell: 

     Cartesian axes

     site n.  atom      mass           positions (alat units)
        1     Si  28.0860   tau(    1) = (    0.00000    0.00000    0.00000  )
        2     Si  28.0860   tau(    2) = (    0.25000    0.25000    0.25000  )

     Computing dynamical matrix for 
                    q = (   0.0000000   0.3333333   0.0000000 )
 
      8 Sym.Ops. (no q -> -q+G )


     G cutoff =  652.9897  (   1092 G-vectors)     FFT grid: ( 40, 40, 40)
     G cutoff =  326.4948  (    390 G-vectors)  smooth grid: ( 25, 25, 25)
     number of k points=  1872

     PseudoPot. # 1 for Si read from file:
     ./si_pbe_v1.uspp.F.UPF.txt
     MD5 check sum: a056efeee980c13900f22a371efd63c1
     Pseudo is Ultrasoft + core correction, Zval =  4.0
     Generated by new atomic code, or converted to UPF format
     Using radial grid of  899 points,  6 beta functions with: 
                l(1) =   0
                l(2) =   0
                l(3) =   1
                l(4) =   1
                l(5) =   2
                l(6) =   2
     Q(r) pseudized with  8 coefficients,  rinner =    0.900   0.900   0.900
                                                       0.900   0.900

     Mode symmetry, C_4v (4mm)  point group:


     Atomic displacements:
     There are   4 irreducible representations

     Representation     1      1 modes -A_1  G_1 D_1  To be done

     Representation     2      1 modes -B_2  G_4 D_2'  To be done

     Representation     3      2 modes -E    G_5 D_5  To be done

     Representation     4      2 modes -E    G_5 D_5  To be done



     Alpha used in Ewald sum =   2.5000
     PHONON       :  3m32.54s CPU     3m57.96s WALL



     Representation #  1 mode #   1

     Self-consistent Calculation

      iter #   1 total cpu time :   238.7 secs   av.it.:   6.3
      thresh= 1.000E-02 alpha_mix =  0.700 |ddv_scf|^2 =  1.307E-03

      iter #   2 total cpu time :   240.0 secs   av.it.:   9.4
      thresh= 3.616E-03 alpha_mix =  0.700 |ddv_scf|^2 =  3.814E-02

      iter #   3 total cpu time :   240.6 secs   av.it.:   7.7
      thresh= 1.000E-02 alpha_mix =  0.700 |ddv_scf|^2 =  7.373E-08

      iter #   4 total cpu time :   243.9 secs   av.it.:   9.7
      thresh= 2.715E-05 alpha_mix =  0.700 |ddv_scf|^2 =  2.437E-09

      iter #   5 total cpu time :   244.8 secs   av.it.:   8.8
      thresh= 4.937E-06 alpha_mix =  0.700 |ddv_scf|^2 =  5.735E-10

      iter #   6 total cpu time :   245.4 secs   av.it.:   8.3
      thresh= 2.395E-06 alpha_mix =  0.700 |ddv_scf|^2 =  9.903E-14

      iter #   7 total cpu time :   245.9 secs   av.it.:  10.0
      thresh= 3.147E-08 alpha_mix =  0.700 |ddv_scf|^2 =  8.696E-14

      iter #   8 total cpu time :   247.0 secs   av.it.:   7.4
      thresh= 2.949E-08 alpha_mix =  0.700 |ddv_scf|^2 =  3.796E-17

     End of self-consistent calculation

     Convergence has been achieved 


     Representation #  2 mode #   2

     Self-consistent Calculation

      iter #   1 total cpu time :   248.1 secs   av.it.:   5.1
      thresh= 1.000E-02 alpha_mix =  0.700 |ddv_scf|^2 =  2.175E-07

      iter #   2 total cpu time :   248.6 secs   av.it.:  10.9
      thresh= 4.664E-05 alpha_mix =  0.700 |ddv_scf|^2 =  3.808E-08

      iter #   3 total cpu time :   255.7 secs   av.it.:  10.8
      thresh= 1.951E-05 alpha_mix =  0.700 |ddv_scf|^2 =  1.115E-09

      iter #   4 total cpu time :   263.9 secs   av.it.:  10.8
      thresh= 3.340E-06 alpha_mix =  0.700 |ddv_scf|^2 =  4.062E-11

      iter #   5 total cpu time :   264.6 secs   av.it.:  10.8
      thresh= 6.373E-07 alpha_mix =  0.700 |ddv_scf|^2 =  2.086E-13

      iter #   6 total cpu time :   265.2 secs   av.it.:  10.3
      thresh= 4.567E-08 alpha_mix =  0.700 |ddv_scf|^2 =  3.612E-15

      iter #   7 total cpu time :   265.9 secs   av.it.:   9.9
      thresh= 6.010E-09 alpha_mix =  0.700 |ddv_scf|^2 =  9.373E-17

     End of self-consistent calculation

     Convergence has been achieved 


     Representation #  3 modes #   3  4

     Self-consistent Calculation

      iter #   1 total cpu time :   267.4 secs   av.it.:   5.2
      thresh= 1.000E-02 alpha_mix =  0.700 |ddv_scf|^2 =  4.096E-08

      iter #   2 total cpu time :   268.6 secs   av.it.:  12.0
      thresh= 2.024E-05 alpha_mix =  0.700 |ddv_scf|^2 =  3.553E-09

      iter #   3 total cpu time :   276.0 secs   av.it.:  11.8
      thresh= 5.961E-06 alpha_mix =  0.700 |ddv_scf|^2 =  1.367E-10

      iter #   4 total cpu time :   285.7 secs   av.it.:  11.3
      thresh= 1.169E-06 alpha_mix =  0.700 |ddv_scf|^2 =  5.373E-13

      iter #   5 total cpu time :   286.8 secs   av.it.:  11.6
      thresh= 7.330E-08 alpha_mix =  0.700 |ddv_scf|^2 =  2.599E-14

      iter #   6 total cpu time :   287.8 secs   av.it.:  11.7
      thresh= 1.612E-08 alpha_mix =  0.700 |ddv_scf|^2 =  1.954E-16

      iter #   7 total cpu time :   289.2 secs   av.it.:  11.1
      thresh= 1.398E-09 alpha_mix =  0.700 |ddv_scf|^2 =  1.244E-17

     End of self-consistent calculation

     Convergence has been achieved 


     Representation #  4 modes #   5  6

     Self-consistent Calculation

      iter #   1 total cpu time :   290.4 secs   av.it.:   5.3
      thresh= 1.000E-02 alpha_mix =  0.700 |ddv_scf|^2 =  4.829E-08

      iter #   2 total cpu time :   291.4 secs   av.it.:  12.0
      thresh= 2.198E-05 alpha_mix =  0.700 |ddv_scf|^2 =  4.352E-09

      iter #   3 total cpu time :   292.3 secs   av.it.:  11.8
      thresh= 6.597E-06 alpha_mix =  0.700 |ddv_scf|^2 =  1.448E-10

      iter #   4 total cpu time :   293.2 secs   av.it.:  11.5
      thresh= 1.203E-06 alpha_mix =  0.700 |ddv_scf|^2 =  3.833E-13

      iter #   5 total cpu time :   294.4 secs   av.it.:  11.5
      thresh= 6.191E-08 alpha_mix =  0.700 |ddv_scf|^2 =  1.240E-14

      iter #   6 total cpu time :   295.3 secs   av.it.:  11.6
      thresh= 1.114E-08 alpha_mix =  0.700 |ddv_scf|^2 =  1.676E-16

      iter #   7 total cpu time :   296.3 secs   av.it.:  11.2
      thresh= 1.295E-09 alpha_mix =  0.700 |ddv_scf|^2 =  1.043E-17

     End of self-consistent calculation

     Convergence has been achieved 
 
     Number of q in the star =    6
     List of q in the star:
          1   0.000000000   0.333333333   0.000000000
          2   0.333333333   0.000000000   0.000000000
          3   0.000000000   0.000000000   0.333333333
          4   0.000000000  -0.333333333   0.000000000
          5  -0.333333333   0.000000000   0.000000000
          6   0.000000000   0.000000000  -0.333333333

     Diagonalizing the dynamical matrix

     q = (    0.000000000   0.333333333   0.000000000 ) 

 **************************************************************************
     freq (    1) =       2.971542 [THz] =      99.119980 [cm-1]
     freq (    2) =       2.971542 [THz] =      99.119980 [cm-1]
     freq (    3) =       4.806714 [THz] =     160.334707 [cm-1]
     freq (    4) =      14.163992 [THz] =     472.459920 [cm-1]
     freq (    5) =      14.163992 [THz] =     472.459920 [cm-1]
     freq (    6) =      14.689562 [THz] =     489.991062 [cm-1]
 **************************************************************************

     Mode symmetry, C_4v (4mm)  point group:

     freq (  1 -  2) =         99.1  [cm-1]   --> E    G_5 D_5       
     freq (  3 -  3) =        160.3  [cm-1]   --> A_1  G_1 D_1       
     freq (  4 -  5) =        472.5  [cm-1]   --> E    G_5 D_5       
     freq (  6 -  6) =        490.0  [cm-1]   --> B_2  G_4 D_2'      

     Calculation of q =   -0.1666667   0.5000000  -0.1666667
 
     Parallelization info
     --------------------
     sticks:   dense  smooth     PW     G-vecs:    dense   smooth      PW
     Min          55      27     10                 1091      379      90
     Max          56      28     11                 1093      395      94
     Sum         889     439    163                17477     6183    1459
 


     bravais-lattice index     =            2
     lattice parameter (alat)  =      10.3640  a.u.
     unit-cell volume          =     278.3058 (a.u.)^3
     number of atoms/cell      =            2
     number of atomic types    =            1
     number of electrons       =         8.00
     number of Kohn-Sham states=            4
     kinetic-energy cutoff     =      30.0000  Ry
     charge density cutoff     =     240.0000  Ry
     Exchange-correlation      = SLA  PW   PBE  PBE ( 1  4  3  4 0 0)

     celldm(1)=  10.364000  celldm(2)=   0.000000  celldm(3)=   0.000000
     celldm(4)=   0.000000  celldm(5)=   0.000000  celldm(6)=   0.000000

     crystal axes: (cart. coord. in units of alat)
               a(1) = (  -0.500000   0.000000   0.500000 )  
               a(2) = (   0.000000   0.500000   0.500000 )  
               a(3) = (  -0.500000   0.500000   0.000000 )  

     reciprocal axes: (cart. coord. in units 2 pi/alat)
               b(1) = ( -1.000000 -1.000000  1.000000 )  
               b(2) = (  1.000000  1.000000  1.000000 )  
               b(3) = ( -1.000000  1.000000 -1.000000 )  


     PseudoPot. # 1 for Si read from file:
     ./si_pbe_v1.uspp.F.UPF.txt
     MD5 check sum: a056efeee980c13900f22a371efd63c1
     Pseudo is Ultrasoft + core correction, Zval =  4.0
     Generated by new atomic code, or converted to UPF format
     Using radial grid of  899 points,  6 beta functions with: 
                l(1) =   0
                l(2) =   0
                l(3) =   1
                l(4) =   1
                l(5) =   2
                l(6) =   2
     Q(r) pseudized with  8 coefficients,  rinner =    0.900   0.900   0.900
                                                       0.900   0.900

     atomic species   valence    mass     pseudopotential
        Si             4.00    28.08600     Si( 1.00)

     48 Sym. Ops., with inversion, found



   Cartesian axes

     site n.     atom                  positions (alat units)
         1           Si  tau(   1) = (   0.0000000   0.0000000   0.0000000  )
         2           Si  tau(   2) = (   0.2500000   0.2500000   0.2500000  )

     number of k points=  7200

     Number of k-points >= 100: set verbosity='high' to print them.

     Dense  grid:    17477 G-vectors     FFT dimensions: (  40,  40,  40)

     Smooth grid:     6183 G-vectors     FFT dimensions: (  25,  25,  25)

     Largest allocated arrays     est. size (Mb)     dimensions
        Kohn-Sham Wavefunctions         0.00 Mb     (      60,    4)
        NL pseudopotentials             0.03 Mb     (      60,   36)
        Each V/rho on FFT grid          0.07 Mb     (    4800)
        Each G-vector array             0.01 Mb     (    1092)
        G-vector shells                 0.00 Mb     (     210)
     Largest temporary arrays     est. size (Mb)     dimensions
        Auxiliary wavefunctions         0.01 Mb     (      60,   16)
        Each subspace H/S matrix        0.00 Mb     (       8,    8)
        Each <psi_i|beta_j> matrix      0.00 Mb     (      36,    4)

     The potential is recalculated from file :
     ./silicon/_ph0/silicon.10.364.save/charge-density.dat

     Starting wfc are    8 atomic wfcs

     Band Structure Calculation
     Davidson diagonalization with overlap

     ethr =  1.25E-10,  avg # of iterations = 12.3

     total cpu time spent up to now is       24.6 secs

     End of band structure calculation

     Number of k-points >= 100: set verbosity='high' to print the bands.

     highest occupied level (ev):     5.8505

     Writing output data file silicon.10.364.save

                                                                                

     bravais-lattice index     =            2
     lattice parameter (alat)  =      10.3640  a.u.
     unit-cell volume          =     278.3058 (a.u.)^3
     number of atoms/cell      =            2
     number of atomic types    =            1
     kinetic-energy cut-off    =      30.0000  Ry
     charge density cut-off    =     240.0000  Ry
     convergence threshold     =      1.0E-16
     beta                      =       0.7000
     number of iterations used =            4
     Exchange-correlation      = SLA  PW   PBE  PBE ( 1  4  3  4 0 0)


     celldm(1)=   10.36400  celldm(2)=    0.00000  celldm(3)=    0.00000
     celldm(4)=    0.00000  celldm(5)=    0.00000  celldm(6)=    0.00000

     crystal axes: (cart. coord. in units of alat)
               a(1) = ( -0.5000  0.0000  0.5000 )  
               a(2) = (  0.0000  0.5000  0.5000 )  
               a(3) = ( -0.5000  0.5000  0.0000 )  

     reciprocal axes: (cart. coord. in units 2 pi/alat)
               b(1) = ( -1.0000 -1.0000  1.0000 )  
               b(2) = (  1.0000  1.0000  1.0000 )  
               b(3) = ( -1.0000  1.0000 -1.0000 )  


     Atoms inside the unit cell: 

     Cartesian axes

     site n.  atom      mass           positions (alat units)
        1     Si  28.0860   tau(    1) = (    0.00000    0.00000    0.00000  )
        2     Si  28.0860   tau(    2) = (    0.25000    0.25000    0.25000  )

     Computing dynamical matrix for 
                    q = (  -0.1666667   0.5000000  -0.1666667 )
 
      2 Sym.Ops. (no q -> -q+G )


     G cutoff =  652.9897  (   1092 G-vectors)     FFT grid: ( 40, 40, 40)
     G cutoff =  326.4948  (    381 G-vectors)  smooth grid: ( 25, 25, 25)
     number of k points=  7200

     PseudoPot. # 1 for Si read from file:
     ./si_pbe_v1.uspp.F.UPF.txt
     MD5 check sum: a056efeee980c13900f22a371efd63c1
     Pseudo is Ultrasoft + core correction, Zval =  4.0
     Generated by new atomic code, or converted to UPF format
     Using radial grid of  899 points,  6 beta functions with: 
                l(1) =   0
                l(2) =   0
                l(3) =   1
                l(4) =   1
                l(5) =   2
                l(6) =   2
     Q(r) pseudized with  8 coefficients,  rinner =    0.900   0.900   0.900
                                                       0.900   0.900

     Mode symmetry, C_s (m)     point group:


     Atomic displacements:
     There are   6 irreducible representations

     Representation     1      1 modes -A'  To be done

     Representation     2      1 modes -A'  To be done

     Representation     3      1 modes -A'  To be done

     Representation     4      1 modes -A'  To be done

     Representation     5      1 modes -A''  To be done

     Representation     6      1 modes -A''  To be done



     Alpha used in Ewald sum =   2.5000
     PHONON       :  4m40.48s CPU     5m13.65s WALL



     Representation #  1 mode #   1

     Self-consistent Calculation

      iter #   1 total cpu time :   314.9 secs   av.it.:   5.8
      thresh= 1.000E-02 alpha_mix =  0.700 |ddv_scf|^2 =  3.127E-05

      iter #   2 total cpu time :   316.6 secs   av.it.:  10.4
      thresh= 5.592E-04 alpha_mix =  0.700 |ddv_scf|^2 =  3.206E-04

      iter #   3 total cpu time :   317.9 secs   av.it.:   8.4
      thresh= 1.791E-03 alpha_mix =  0.700 |ddv_scf|^2 =  5.523E-08

      iter #   4 total cpu time :   319.4 secs   av.it.:  10.9
      thresh= 2.350E-05 alpha_mix =  0.700 |ddv_scf|^2 =  2.443E-09

      iter #   5 total cpu time :   321.3 secs   av.it.:  10.9
      thresh= 4.943E-06 alpha_mix =  0.700 |ddv_scf|^2 =  1.159E-10

      iter #   6 total cpu time :   323.3 secs   av.it.:  10.9
      thresh= 1.076E-06 alpha_mix =  0.700 |ddv_scf|^2 =  4.355E-12

      iter #   7 total cpu time :   325.6 secs   av.it.:  11.0
      thresh= 2.087E-07 alpha_mix =  0.700 |ddv_scf|^2 =  1.131E-12

      iter #   8 total cpu time :   327.1 secs   av.it.:  10.1
      thresh= 1.063E-07 alpha_mix =  0.700 |ddv_scf|^2 =  2.716E-12

      iter #   9 total cpu time :   328.5 secs   av.it.:   9.2
      thresh= 1.648E-07 alpha_mix =  0.700 |ddv_scf|^2 =  2.220E-13

      iter #  10 total cpu time :   329.9 secs   av.it.:   9.3
      thresh= 4.712E-08 alpha_mix =  0.700 |ddv_scf|^2 =  1.306E-14

      iter #  11 total cpu time :   331.4 secs   av.it.:  10.5
      thresh= 1.143E-08 alpha_mix =  0.700 |ddv_scf|^2 =  8.217E-16

      iter #  12 total cpu time :   333.0 secs   av.it.:  10.9
      thresh= 2.867E-09 alpha_mix =  0.700 |ddv_scf|^2 =  8.923E-17

     End of self-consistent calculation

     Convergence has been achieved 


     Representation #  2 mode #   2

     Self-consistent Calculation

      iter #   1 total cpu time :   335.1 secs   av.it.:   6.0
      thresh= 1.000E-02 alpha_mix =  0.700 |ddv_scf|^2 =  7.361E-05

      iter #   2 total cpu time :   336.6 secs   av.it.:  10.3
      thresh= 8.580E-04 alpha_mix =  0.700 |ddv_scf|^2 =  7.724E-04

      iter #   3 total cpu time :   337.9 secs   av.it.:   8.3
      thresh= 2.779E-03 alpha_mix =  0.700 |ddv_scf|^2 =  3.702E-08

      iter #   4 total cpu time :   339.5 secs   av.it.:  11.1
      thresh= 1.924E-05 alpha_mix =  0.700 |ddv_scf|^2 =  3.599E-09

      iter #   5 total cpu time :   341.7 secs   av.it.:  10.9
      thresh= 5.999E-06 alpha_mix =  0.700 |ddv_scf|^2 =  1.160E-10

      iter #   6 total cpu time :   343.7 secs   av.it.:  11.0
      thresh= 1.077E-06 alpha_mix =  0.700 |ddv_scf|^2 =  9.457E-12

      iter #   7 total cpu time :   346.3 secs   av.it.:  11.0
      thresh= 3.075E-07 alpha_mix =  0.700 |ddv_scf|^2 =  1.443E-13

      iter #   8 total cpu time :   349.1 secs   av.it.:  10.9
      thresh= 3.799E-08 alpha_mix =  0.700 |ddv_scf|^2 =  9.217E-13

      iter #   9 total cpu time :   352.8 secs   av.it.:   8.8
      thresh= 9.600E-08 alpha_mix =  0.700 |ddv_scf|^2 =  1.180E-14

      iter #  10 total cpu time :   354.8 secs   av.it.:  10.2
      thresh= 1.087E-08 alpha_mix =  0.700 |ddv_scf|^2 =  1.790E-14

      iter #  11 total cpu time :   356.3 secs   av.it.:   9.3
      thresh= 1.338E-08 alpha_mix =  0.700 |ddv_scf|^2 =  8.121E-17

     End of self-consistent calculation

     Convergence has been achieved 


     Representation #  3 mode #   3

     Self-consistent Calculation

      iter #   1 total cpu time :   358.0 secs   av.it.:   5.9
      thresh= 1.000E-02 alpha_mix =  0.700 |ddv_scf|^2 =  5.352E-05

      iter #   2 total cpu time :   359.8 secs   av.it.:  10.4
      thresh= 7.316E-04 alpha_mix =  0.700 |ddv_scf|^2 =  5.647E-04

      iter #   3 total cpu time :   361.6 secs   av.it.:   8.3
      thresh= 2.376E-03 alpha_mix =  0.700 |ddv_scf|^2 =  5.200E-08

      iter #   4 total cpu time :   363.7 secs   av.it.:  11.0
      thresh= 2.280E-05 alpha_mix =  0.700 |ddv_scf|^2 =  2.880E-09

      iter #   5 total cpu time :   365.8 secs   av.it.:  10.9
      thresh= 5.367E-06 alpha_mix =  0.700 |ddv_scf|^2 =  1.263E-10

      iter #   6 total cpu time :   368.1 secs   av.it.:  11.1
      thresh= 1.124E-06 alpha_mix =  0.700 |ddv_scf|^2 =  7.808E-12

      iter #   7 total cpu time :   369.7 secs   av.it.:  11.0
      thresh= 2.794E-07 alpha_mix =  0.700 |ddv_scf|^2 =  4.864E-13

      iter #   8 total cpu time :   371.2 secs   av.it.:   9.9
      thresh= 6.975E-08 alpha_mix =  0.700 |ddv_scf|^2 =  9.010E-13

      iter #   9 total cpu time :   372.5 secs   av.it.:   9.1
      thresh= 9.492E-08 alpha_mix =  0.700 |ddv_scf|^2 =  4.863E-14

      iter #  10 total cpu time :   373.9 secs   av.it.:   9.4
      thresh= 2.205E-08 alpha_mix =  0.700 |ddv_scf|^2 =  1.393E-14

      iter #  11 total cpu time :   375.5 secs   av.it.:   9.7
      thresh= 1.180E-08 alpha_mix =  0.700 |ddv_scf|^2 =  4.832E-17

     End of self-consistent calculation

     Convergence has been achieved 


     Representation #  4 mode #   4

     Self-consistent Calculation

      iter #   1 total cpu time :   377.2 secs   av.it.:   5.6
      thresh= 1.000E-02 alpha_mix =  0.700 |ddv_scf|^2 =  1.116E-05

      iter #   2 total cpu time :   379.6 secs   av.it.:  10.7
      thresh= 3.341E-04 alpha_mix =  0.700 |ddv_scf|^2 =  1.128E-04

      iter #   3 total cpu time :   381.1 secs   av.it.:   8.4
      thresh= 1.062E-03 alpha_mix =  0.700 |ddv_scf|^2 =  6.398E-08

      iter #   4 total cpu time :   383.2 secs   av.it.:  10.9
      thresh= 2.529E-05 alpha_mix =  0.700 |ddv_scf|^2 =  1.348E-09

      iter #   5 total cpu time :   385.0 secs   av.it.:  11.0
      thresh= 3.672E-06 alpha_mix =  0.700 |ddv_scf|^2 =  1.215E-10

      iter #   6 total cpu time :   396.5 secs   av.it.:  11.0
      thresh= 1.102E-06 alpha_mix =  0.700 |ddv_scf|^2 =  3.704E-12

      iter #   7 total cpu time :   398.2 secs   av.it.:  11.0
      thresh= 1.925E-07 alpha_mix =  0.700 |ddv_scf|^2 =  4.820E-12

      iter #   8 total cpu time :   399.6 secs   av.it.:   9.2
      thresh= 2.195E-07 alpha_mix =  0.700 |ddv_scf|^2 =  1.712E-12

      iter #   9 total cpu time :   401.0 secs   av.it.:   9.6
      thresh= 1.308E-07 alpha_mix =  0.700 |ddv_scf|^2 =  1.396E-12

      iter #  10 total cpu time :   403.0 secs   av.it.:   9.2
      thresh= 1.181E-07 alpha_mix =  0.700 |ddv_scf|^2 =  4.489E-15

      iter #  11 total cpu time :   404.9 secs   av.it.:  11.1
      thresh= 6.700E-09 alpha_mix =  0.700 |ddv_scf|^2 =  1.510E-15

      iter #  12 total cpu time :   406.6 secs   av.it.:  10.8
      thresh= 3.886E-09 alpha_mix =  0.700 |ddv_scf|^2 =  9.124E-17

     End of self-consistent calculation

     Convergence has been achieved 


     Representation #  5 mode #   5

     Self-consistent Calculation

      iter #   1 total cpu time :   408.4 secs   av.it.:   5.3
      thresh= 1.000E-02 alpha_mix =  0.700 |ddv_scf|^2 =  2.485E-07

      iter #   2 total cpu time :   410.6 secs   av.it.:  11.0
      thresh= 4.985E-05 alpha_mix =  0.700 |ddv_scf|^2 =  3.041E-08

      iter #   3 total cpu time :   412.2 secs   av.it.:  10.8
      thresh= 1.744E-05 alpha_mix =  0.700 |ddv_scf|^2 =  6.523E-10

      iter #   4 total cpu time :   414.0 secs   av.it.:  10.6
      thresh= 2.554E-06 alpha_mix =  0.700 |ddv_scf|^2 =  1.659E-12

      iter #   5 total cpu time :   416.0 secs   av.it.:  10.7
      thresh= 1.288E-07 alpha_mix =  0.700 |ddv_scf|^2 =  8.378E-14

      iter #   6 total cpu time :   418.2 secs   av.it.:  10.7
      thresh= 2.895E-08 alpha_mix =  0.700 |ddv_scf|^2 =  7.943E-16

      iter #   7 total cpu time :   420.0 secs   av.it.:  10.4
      thresh= 2.818E-09 alpha_mix =  0.700 |ddv_scf|^2 =  3.193E-17

     End of self-consistent calculation

     Convergence has been achieved 


     Representation #  6 mode #   6

     Self-consistent Calculation

      iter #   1 total cpu time :   421.6 secs   av.it.:   5.3
      thresh= 1.000E-02 alpha_mix =  0.700 |ddv_scf|^2 =  2.485E-07

      iter #   2 total cpu time :   423.4 secs   av.it.:  11.0
      thresh= 4.985E-05 alpha_mix =  0.700 |ddv_scf|^2 =  3.041E-08

      iter #   3 total cpu time :   425.0 secs   av.it.:  10.8
      thresh= 1.744E-05 alpha_mix =  0.700 |ddv_scf|^2 =  6.523E-10

      iter #   4 total cpu time :   426.6 secs   av.it.:  10.6
      thresh= 2.554E-06 alpha_mix =  0.700 |ddv_scf|^2 =  1.659E-12

      iter #   5 total cpu time :   428.3 secs   av.it.:  10.7
      thresh= 1.288E-07 alpha_mix =  0.700 |ddv_scf|^2 =  8.378E-14

      iter #   6 total cpu time :   430.4 secs   av.it.:  10.7
      thresh= 2.895E-08 alpha_mix =  0.700 |ddv_scf|^2 =  7.943E-16

      iter #   7 total cpu time :   432.1 secs   av.it.:  10.4
      thresh= 2.818E-09 alpha_mix =  0.700 |ddv_scf|^2 =  3.193E-17

     End of self-consistent calculation

     Convergence has been achieved 
 
     Number of q in the star =   24
     List of q in the star:
          1  -0.166666667   0.500000000  -0.166666667
          2   0.166666667   0.500000000   0.166666667
          3  -0.166666667   0.500000000   0.166666667
          4   0.166666667   0.500000000  -0.166666667
          5   0.500000000  -0.166666667   0.166666667
          6   0.166666667  -0.166666667   0.500000000
          7  -0.166666667  -0.500000000  -0.166666667
[...]

     End of self-consistent calculation

     Convergence has been achieved 
 
     Number of q in the star =   24
     List of q in the star:
          1   0.500000000  -0.166666667   0.833333333
          2   0.833333333   0.166666667   0.500000000
          3   0.500000000   0.166666667   0.833333333
          4  -0.833333333  -0.166666667   0.500000000
          5  -0.833333333  -0.166666667  -0.500000000
          6  -0.500000000  -0.166666667  -0.833333333
          7   0.833333333  -0.166666667   0.500000000
          8  -0.500000000  -0.166666667   0.833333333
          9  -0.833333333   0.166666667   0.500000000
         10   0.833333333   0.166666667  -0.500000000
         11   0.833333333  -0.166666667  -0.500000000
         12   0.500000000   0.166666667  -0.833333333
         13  -0.500000000   0.166666667   0.833333333
         14  -0.500000000   0.166666667  -0.833333333
         15  -0.833333333   0.166666667  -0.500000000
         16   0.833333333  -0.500000000   0.166666667
         17   0.833333333   0.500000000  -0.166666667
         18  -0.833333333  -0.500000000  -0.166666667
         19  -0.833333333   0.500000000   0.166666667
         20   0.166666667  -0.500000000   0.833333333
         21  -0.166666667   0.500000000   0.833333333
         22   0.166666667   0.500000000  -0.833333333
         23  -0.166666667  -0.500000000  -0.833333333
         24  -0.500000000   0.833333333   0.166666667

     Diagonalizing the dynamical matrix

     q = (    0.500000000  -0.166666667   0.833333333 ) 

 **************************************************************************
     freq (    1) =       5.167654 [THz] =     172.374374 [cm-1]
     freq (    2) =       6.158073 [THz] =     205.411205 [cm-1]
     freq (    3) =       9.587613 [THz] =     319.808350 [cm-1]
     freq (    4) =      11.009812 [THz] =     367.247787 [cm-1]
     freq (    5) =      13.438987 [THz] =     448.276338 [cm-1]
     freq (    6) =      13.653799 [THz] =     455.441712 [cm-1]
 **************************************************************************

     Calculation of q =   -0.3333333  -1.0000000   0.0000000
 
     Parallelization info
     --------------------
     sticks:   dense  smooth     PW     G-vecs:    dense   smooth      PW
     Min          55      27     11                 1091      381     101
     Max          56      28     12                 1093      393     103
     Sum         889     439    187                17477     6183    1639
 


     bravais-lattice index     =            2
     lattice parameter (alat)  =      10.3640  a.u.
     unit-cell volume          =     278.3058 (a.u.)^3
     number of atoms/cell      =            2
     number of atomic types    =            1
     number of electrons       =         8.00
     number of Kohn-Sham states=            4
     kinetic-energy cutoff     =      30.0000  Ry
     charge density cutoff     =     240.0000  Ry
     Exchange-correlation      = SLA  PW   PBE  PBE ( 1  4  3  4 0 0)

     celldm(1)=  10.364000  celldm(2)=   0.000000  celldm(3)=   0.000000
     celldm(4)=   0.000000  celldm(5)=   0.000000  celldm(6)=   0.000000

     crystal axes: (cart. coord. in units of alat)
               a(1) = (  -0.500000   0.000000   0.500000 )  
               a(2) = (   0.000000   0.500000   0.500000 )  
               a(3) = (  -0.500000   0.500000   0.000000 )  

     reciprocal axes: (cart. coord. in units 2 pi/alat)
               b(1) = ( -1.000000 -1.000000  1.000000 )  
               b(2) = (  1.000000  1.000000  1.000000 )  
               b(3) = ( -1.000000  1.000000 -1.000000 )  


     PseudoPot. # 1 for Si read from file:
     ./si_pbe_v1.uspp.F.UPF.txt
     MD5 check sum: a056efeee980c13900f22a371efd63c1
     Pseudo is Ultrasoft + core correction, Zval =  4.0
     Generated by new atomic code, or converted to UPF format
     Using radial grid of  899 points,  6 beta functions with: 
                l(1) =   0
                l(2) =   0
                l(3) =   1
                l(4) =   1
                l(5) =   2
                l(6) =   2
     Q(r) pseudized with  8 coefficients,  rinner =    0.900   0.900   0.900
                                                       0.900   0.900

     atomic species   valence    mass     pseudopotential
        Si             4.00    28.08600     Si( 1.00)

     48 Sym. Ops., with inversion, found



   Cartesian axes

     site n.     atom                  positions (alat units)
         1           Si  tau(   1) = (   0.0000000   0.0000000   0.0000000  )
         2           Si  tau(   2) = (   0.2500000   0.2500000   0.2500000  )

     number of k points=  3456

     Number of k-points >= 100: set verbosity='high' to print them.

     Dense  grid:    17477 G-vectors     FFT dimensions: (  40,  40,  40)

     Smooth grid:     6183 G-vectors     FFT dimensions: (  25,  25,  25)

     Largest allocated arrays     est. size (Mb)     dimensions
        Kohn-Sham Wavefunctions         0.00 Mb     (      55,    4)
        NL pseudopotentials             0.03 Mb     (      55,   36)
        Each V/rho on FFT grid          0.07 Mb     (    4800)
        Each G-vector array             0.01 Mb     (    1092)
        G-vector shells                 0.00 Mb     (     212)
     Largest temporary arrays     est. size (Mb)     dimensions
        Auxiliary wavefunctions         0.01 Mb     (      55,   16)
        Each subspace H/S matrix        0.00 Mb     (       8,    8)
        Each <psi_i|beta_j> matrix      0.00 Mb     (      36,    4)

     The potential is recalculated from file :
     ./silicon/_ph0/silicon.10.364.save/charge-density.dat

     Starting wfc are    8 atomic wfcs

     Band Structure Calculation
     Davidson diagonalization with overlap

     ethr =  1.25E-10,  avg # of iterations = 12.3

     total cpu time spent up to now is      124.4 secs

     End of band structure calculation

     Number of k-points >= 100: set verbosity='high' to print the bands.

     highest occupied level (ev):     5.8505

     Writing output data file silicon.10.364.save

                                                                                

     bravais-lattice index     =            2
     lattice parameter (alat)  =      10.3640  a.u.
     unit-cell volume          =     278.3058 (a.u.)^3
     number of atoms/cell      =            2
     number of atomic types    =            1
     kinetic-energy cut-off    =      30.0000  Ry
     charge density cut-off    =     240.0000  Ry
     convergence threshold     =      1.0E-16
     beta                      =       0.7000
     number of iterations used =            4
     Exchange-correlation      = SLA  PW   PBE  PBE ( 1  4  3  4 0 0)


     celldm(1)=   10.36400  celldm(2)=    0.00000  celldm(3)=    0.00000
     celldm(4)=    0.00000  celldm(5)=    0.00000  celldm(6)=    0.00000

     crystal axes: (cart. coord. in units of alat)
               a(1) = ( -0.5000  0.0000  0.5000 )  
               a(2) = (  0.0000  0.5000  0.5000 )  
               a(3) = ( -0.5000  0.5000  0.0000 )  

     reciprocal axes: (cart. coord. in units 2 pi/alat)
               b(1) = ( -1.0000 -1.0000  1.0000 )  
               b(2) = (  1.0000  1.0000  1.0000 )  
               b(3) = ( -1.0000  1.0000 -1.0000 )  


     Atoms inside the unit cell: 

     Cartesian axes

     site n.  atom      mass           positions (alat units)
        1     Si  28.0860   tau(    1) = (    0.00000    0.00000    0.00000  )
        2     Si  28.0860   tau(    2) = (    0.25000    0.25000    0.25000  )

     Computing dynamical matrix for 
                    q = (  -0.3333333  -1.0000000   0.0000000 )
 
      4 Sym.Ops. (no q -> -q+G )


     G cutoff =  652.9897  (   1092 G-vectors)     FFT grid: ( 40, 40, 40)
     G cutoff =  326.4948  (    383 G-vectors)  smooth grid: ( 25, 25, 25)
     number of k points=  3456

     PseudoPot. # 1 for Si read from file:
     ./si_pbe_v1.uspp.F.UPF.txt
     MD5 check sum: a056efeee980c13900f22a371efd63c1
     Pseudo is Ultrasoft + core correction, Zval =  4.0
     Generated by new atomic code, or converted to UPF format
     Using radial grid of  899 points,  6 beta functions with: 
                l(1) =   0
                l(2) =   0
                l(3) =   1
                l(4) =   1
                l(5) =   2
                l(6) =   2
     Q(r) pseudized with  8 coefficients,  rinner =    0.900   0.900   0.900
                                                       0.900   0.900


     Atomic displacements:
     There are   3 irreducible representations

     Representation     1      2 modes -  To be done

     Representation     2      2 modes -  To be done

     Representation     3      2 modes -  To be done



     Alpha used in Ewald sum =   2.5000
     PHONON       : 20m 4.72s CPU    22m24.42s WALL



     Representation #  1 modes #   1  2

     Self-consistent Calculation

      iter #   1 total cpu time :  1347.1 secs   av.it.:   5.6
      thresh= 1.000E-02 alpha_mix =  0.700 |ddv_scf|^2 =  3.726E-07

      iter #   2 total cpu time :  1349.6 secs   av.it.:  12.0
      thresh= 6.104E-05 alpha_mix =  0.700 |ddv_scf|^2 =  1.998E-07

      iter #   3 total cpu time :  1352.2 secs   av.it.:  11.7
      thresh= 4.470E-05 alpha_mix =  0.700 |ddv_scf|^2 =  3.157E-09

      iter #   4 total cpu time :  1359.3 secs   av.it.:  11.6
      thresh= 5.619E-06 alpha_mix =  0.700 |ddv_scf|^2 =  3.685E-10

      iter #   5 total cpu time :  1360.9 secs   av.it.:  11.5
      thresh= 1.920E-06 alpha_mix =  0.700 |ddv_scf|^2 =  9.720E-13

      iter #   6 total cpu time :  1367.4 secs   av.it.:  11.9
      thresh= 9.859E-08 alpha_mix =  0.700 |ddv_scf|^2 =  3.359E-14

      iter #   7 total cpu time :  1373.2 secs   av.it.:  11.5
      thresh= 1.833E-08 alpha_mix =  0.700 |ddv_scf|^2 =  2.724E-15

      iter #   8 total cpu time :  1374.9 secs   av.it.:  11.5
      thresh= 5.219E-09 alpha_mix =  0.700 |ddv_scf|^2 =  2.534E-17

     End of self-consistent calculation

     Convergence has been achieved 


     Representation #  2 modes #   3  4

     Self-consistent Calculation

      iter #   1 total cpu time :  1376.6 secs   av.it.:   5.8
      thresh= 1.000E-02 alpha_mix =  0.700 |ddv_scf|^2 =  9.448E-07

      iter #   2 total cpu time :  1378.8 secs   av.it.:  12.0
      thresh= 9.720E-05 alpha_mix =  0.700 |ddv_scf|^2 =  1.177E-06

      iter #   3 total cpu time :  1381.8 secs   av.it.:  11.2
      thresh= 1.085E-04 alpha_mix =  0.700 |ddv_scf|^2 =  4.532E-09

      iter #   4 total cpu time :  1384.6 secs   av.it.:  11.7
      thresh= 6.732E-06 alpha_mix =  0.700 |ddv_scf|^2 =  1.838E-10

      iter #   5 total cpu time :  1386.6 secs   av.it.:  11.6
      thresh= 1.356E-06 alpha_mix =  0.700 |ddv_scf|^2 =  3.640E-13

      iter #   6 total cpu time :  1388.4 secs   av.it.:  11.4
      thresh= 6.033E-08 alpha_mix =  0.700 |ddv_scf|^2 =  2.068E-14

      iter #   7 total cpu time :  1390.7 secs   av.it.:  11.4
      thresh= 1.438E-08 alpha_mix =  0.700 |ddv_scf|^2 =  4.027E-16

      iter #   8 total cpu time :  1392.4 secs   av.it.:  11.9
      thresh= 2.007E-09 alpha_mix =  0.700 |ddv_scf|^2 =  1.155E-16

      iter #   9 total cpu time :  1394.1 secs   av.it.:  11.6
      thresh= 1.075E-09 alpha_mix =  0.700 |ddv_scf|^2 =  7.829E-18

     End of self-consistent calculation

     Convergence has been achieved 


     Representation #  3 modes #   5  6

     Self-consistent Calculation

      iter #   1 total cpu time :  1395.6 secs   av.it.:   5.3
      thresh= 1.000E-02 alpha_mix =  0.700 |ddv_scf|^2 =  3.387E-07

      iter #   2 total cpu time :  1397.3 secs   av.it.:  12.0
      thresh= 5.820E-05 alpha_mix =  0.700 |ddv_scf|^2 =  4.214E-07

      iter #   3 total cpu time :  1398.9 secs   av.it.:  11.3
      thresh= 6.492E-05 alpha_mix =  0.700 |ddv_scf|^2 =  2.072E-09

      iter #   4 total cpu time :  1401.4 secs   av.it.:  11.7
      thresh= 4.552E-06 alpha_mix =  0.700 |ddv_scf|^2 =  2.144E-10

      iter #   5 total cpu time :  1403.0 secs   av.it.:  11.6
      thresh= 1.464E-06 alpha_mix =  0.700 |ddv_scf|^2 =  1.735E-12

      iter #   6 total cpu time :  1404.6 secs   av.it.:  11.9
      thresh= 1.317E-07 alpha_mix =  0.700 |ddv_scf|^2 =  4.524E-14

      iter #   7 total cpu time :  1406.5 secs   av.it.:  11.6
      thresh= 2.127E-08 alpha_mix =  0.700 |ddv_scf|^2 =  2.632E-15

      iter #   8 total cpu time :  1408.2 secs   av.it.:  11.6
      thresh= 5.131E-09 alpha_mix =  0.700 |ddv_scf|^2 =  2.070E-17

     End of self-consistent calculation

     Convergence has been achieved 
 
     Number of q in the star =   12
     List of q in the star:
          1  -0.333333333  -1.000000000   0.000000000
          2   0.000000000  -1.000000000  -0.333333333
          3   0.000000000  -1.000000000   0.333333333
          4   0.333333333  -1.000000000   0.000000000
          5  -1.000000000   0.000000000  -0.333333333
          6   1.000000000   0.000000000   0.333333333
          7   0.000000000   0.333333333   1.000000000
          8   0.000000000  -0.333333333  -1.000000000
          9  -1.000000000  -0.333333333   0.000000000
         10   1.000000000   0.333333333   0.000000000
         11  -0.333333333   0.000000000   1.000000000
         12   0.333333333   0.000000000   1.000000000

     Diagonalizing the dynamical matrix

     q = (   -0.333333333  -1.000000000   0.000000000 ) 

 **************************************************************************
     freq (    1) =       5.645553 [THz] =     188.315372 [cm-1]
     freq (    2) =       5.645553 [THz] =     188.315372 [cm-1]
     freq (    3) =      10.627140 [THz] =     354.483224 [cm-1]
     freq (    4) =      10.627140 [THz] =     354.483224 [cm-1]
     freq (    5) =      13.369693 [THz] =     445.964944 [cm-1]
     freq (    6) =      13.369693 [THz] =     445.964944 [cm-1]
 **************************************************************************
 
     init_run     :      0.80s CPU      1.04s WALL (      15 calls)
     electrons    :     62.79s CPU     65.32s WALL (      15 calls)

     Called by init_run:
     wfcinit      :      0.00s CPU      0.18s WALL (      15 calls)
     potinit      :      0.15s CPU      0.20s WALL (      15 calls)

     Called by electrons:
     c_bands      :     62.78s CPU     65.31s WALL (      15 calls)
     v_of_rho     :      0.04s CPU      0.04s WALL (      16 calls)
     newd         :      0.07s CPU      0.07s WALL (      16 calls)

     Called by c_bands:
     init_us_2    :      1.86s CPU      2.05s WALL (   85132 calls)
     cegterg      :     17.53s CPU     18.32s WALL (    2692 calls)

     Called by sum_band:

     Called by *egterg:
     h_psi        :     13.72s CPU     14.23s WALL (   38985 calls)
     s_psi        :     21.67s CPU     23.85s WALL ( 1799895 calls)
     g_psi        :      0.09s CPU      0.09s WALL (   33601 calls)
     cdiaghg      :      2.73s CPU      2.99s WALL (   36293 calls)

     Called by h_psi:
     add_vuspsi   :     12.59s CPU     14.07s WALL (  881884 calls)

     General routines
     calbec       :     52.62s CPU     57.99s WALL ( 1936855 calls)
     fft          :      1.73s CPU      1.75s WALL (   15555 calls)
     ffts         :      4.58s CPU      4.64s WALL (   10518 calls)
     fftw         :    243.78s CPU    263.65s WALL ( 7887580 calls)
     interpolate  :      0.33s CPU      0.37s WALL (    1794 calls)
     davcio       :     14.82s CPU     19.63s WALL (  383051 calls)
 
     Parallel routines
     fft_scatter  :    145.50s CPU    157.74s WALL ( 7913653 calls)
 
     PHONON       : 21m 4.35s CPU    23m28.43s WALL

     INITIALIZATION: 
     phq_setup    :      0.22s CPU      0.31s WALL (      16 calls)
     phq_init     :     19.61s CPU     20.54s WALL (      16 calls)
 
     phq_init     :     19.61s CPU     20.54s WALL (      16 calls)
     set_drhoc    :      0.60s CPU      0.61s WALL (      48 calls)
     init_vloc    :      0.02s CPU      0.02s WALL (      16 calls)
     init_us_1    :      0.43s CPU      0.44s WALL (      16 calls)
     newd         :      0.07s CPU      0.07s WALL (      16 calls)
     dvanqq       :      0.50s CPU      0.52s WALL (      16 calls)
     drho         :     12.62s CPU     12.94s WALL (      16 calls)
 
     DYNAMICAL MATRIX:
     dynmat0      :      3.16s CPU      3.43s WALL (      16 calls)
     phqscf       :   1137.77s CPU   1236.97s WALL (      16 calls)
     dynmatrix    :      1.93s CPU      2.63s WALL (      16 calls)
 
     phqscf       :   1137.77s CPU   1236.97s WALL (      16 calls)
     solve_linter :   1135.31s CPU   1230.02s WALL (      76 calls)
     drhodv       :      2.19s CPU      2.58s WALL (      76 calls)
 
     dynmat0      :      3.16s CPU      3.43s WALL (      16 calls)
     dynmat_us    :      2.69s CPU      2.75s WALL (      16 calls)
     d2ionq       :      0.00s CPU      0.01s WALL (      16 calls)
     dynmatcc     :      0.44s CPU      0.45s WALL (      16 calls)
 
     dynmat_us    :      2.69s CPU      2.75s WALL (      16 calls)
     addusdynmat  :      0.00s CPU      0.00s WALL (      16 calls)
 
     phqscf       :   1137.77s CPU   1236.97s WALL (      16 calls)
     solve_linter :   1135.31s CPU   1230.02s WALL (      76 calls)
 
     solve_linter :   1135.31s CPU   1230.02s WALL (      76 calls)
     dvqpsi_us    :      9.08s CPU      9.75s WALL (    8172 calls)
     ortho        :      6.04s CPU      6.53s WALL (   75088 calls)
     cgsolve      :    347.58s CPU    379.72s WALL (   75088 calls)
     incdrhoscf   :     32.61s CPU     34.38s WALL (   75088 calls)
     addusddens   :      3.58s CPU      3.68s WALL (     750 calls)
     vpsifft      :     16.80s CPU     18.74s WALL (   66772 calls)
     dv_of_drho   :      1.21s CPU      1.23s WALL (     835 calls)
     mix_pot      :      9.04s CPU     20.20s WALL (     681 calls)
     psymdvscf    :     14.82s CPU     14.87s WALL (     674 calls)
     newdq        :      3.64s CPU      3.70s WALL (     681 calls)
     adddvscf     :      1.41s CPU      1.53s WALL (   66916 calls)
     drhodvus     :      0.05s CPU      0.05s WALL (      76 calls)
 
     dvqpsi_us    :      9.08s CPU      9.75s WALL (    8172 calls)
     dvqpsi_us_on :      2.55s CPU      2.94s WALL (    8172 calls)
 
     cgsolve      :    347.58s CPU    379.72s WALL (   75088 calls)
     ch_psi       :    320.61s CPU    350.30s WALL (  842899 calls)
 
     ch_psi       :    320.61s CPU    350.30s WALL (  842899 calls)
     h_psiq       :    265.68s CPU    289.60s WALL (  842899 calls)
     last         :     51.96s CPU     57.62s WALL (  842899 calls)
 
     h_psiq       :    265.68s CPU    289.60s WALL (  842899 calls)
     firstfft     :    112.65s CPU    121.88s WALL ( 3167307 calls)
     secondfft    :     94.35s CPU    103.48s WALL ( 3167307 calls)
     add_vuspsi   :     12.59s CPU     14.07s WALL (  881884 calls)
 
     incdrhoscf   :     32.61s CPU     34.38s WALL (   75088 calls)
     addusdbec    :      3.02s CPU      3.50s WALL (   83212 calls)
 
     drhodvus     :      0.05s CPU      0.05s WALL (      76 calls)
 
      General routines
     calbec       :     52.62s CPU     57.99s WALL ( 1936855 calls)
     fft          :      1.73s CPU      1.75s WALL (   15555 calls)
     ffts         :      4.58s CPU      4.64s WALL (   10518 calls)
     fftw         :    243.78s CPU    263.65s WALL ( 7887580 calls)
     davcio       :     14.82s CPU     19.63s WALL (  383051 calls)
     write_rec    :      2.90s CPU     44.64s WALL (     757 calls)
 
 
     PHONON       : 21m 4.35s CPU    23m28.43s WALL

 
   This run was terminated on:  15:31:11   7Apr2018            

=------------------------------------------------------------------------------=
   JOB DONE.
=------------------------------------------------------------------------------=
Application 30446320 resources: utime ~509683s, stime ~14906s, Rss ~32324, inblocks ~1110966692, outblocks ~523972342
