
     Program PHONON v.5.4.0 starts on  7Apr2018 at 12:57: 2 

     This program is part of the open-source Quantum ESPRESSO suite
     for quantum simulation of materials; please cite
         "P. Giannozzi et al., J. Phys.:Condens. Matter 21 395502 (2009);
          URL http://www.quantum-espresso.org", 
     in publications or presentations arising from this work. More details at
     http://www.quantum-espresso.org/quote

     Parallel version (MPI & OpenMP), running on     384 processor cores
     Number of MPI processes:               384
     Threads/MPI process:                     1
     K-points division:     npool     =      24
     R & G space division:  proc/nbgrp/npool/nimage =      16

     Reading data from directory:
     ./silicon/silicon.10.292.save

   Info: using nr1, nr2, nr3 values from input

   Info: using nr1, nr2, nr3 values from input

     IMPORTANT: XC functional enforced from input :
     Exchange-correlation      = SLA  PW   PBE  PBE ( 1  4  3  4 0 0)
     Any further DFT definition will be discarded
     Please, verify this is what you really want

 
     Parallelization info
     --------------------
     sticks:   dense  smooth     PW     G-vecs:    dense   smooth      PW
     Min          54      27      9                 1060      369      76
     Max          56      28     10                 1061      377      79
     Sum         871     433    151                16961     5985    1243
 


     Dynamical matrices for ( 6, 6, 6)  uniform grid of q-points
     (  16q-points):
       N         xq(1)         xq(2)         xq(3) 
       1   0.000000000   0.000000000   0.000000000
       2  -0.166666667   0.166666667  -0.166666667
       3  -0.333333333   0.333333333  -0.333333333
       4   0.500000000  -0.500000000   0.500000000
       5   0.000000000   0.333333333   0.000000000
       6  -0.166666667   0.500000000  -0.166666667
       7   0.666666667  -0.333333333   0.666666667
       8   0.500000000  -0.166666667   0.500000000
       9   0.333333333   0.000000000   0.333333333
      10   0.000000000   0.666666667   0.000000000
      11   0.833333333  -0.166666667   0.833333333
      12   0.666666667  -0.000000000   0.666666667
      13   0.000000000  -1.000000000   0.000000000
      14   0.666666667  -0.333333333   1.000000000
      15   0.500000000  -0.166666667   0.833333333
      16  -0.333333333  -1.000000000   0.000000000

     Calculation of q =    0.0000000   0.0000000   0.0000000

                                                                                

     bravais-lattice index     =            2
     lattice parameter (alat)  =      10.2920  a.u.
     unit-cell volume          =     272.5457 (a.u.)^3
     number of atoms/cell      =            2
     number of atomic types    =            1
     kinetic-energy cut-off    =      30.0000  Ry
     charge density cut-off    =     240.0000  Ry
     convergence threshold     =      1.0E-16
     beta                      =       0.7000
     number of iterations used =            4
     Exchange-correlation      = SLA  PW   PBE  PBE ( 1  4  3  4 0 0)


     celldm(1)=   10.29200  celldm(2)=    0.00000  celldm(3)=    0.00000
     celldm(4)=    0.00000  celldm(5)=    0.00000  celldm(6)=    0.00000

     crystal axes: (cart. coord. in units of alat)
               a(1) = ( -0.5000  0.0000  0.5000 )  
               a(2) = (  0.0000  0.5000  0.5000 )  
               a(3) = ( -0.5000  0.5000  0.0000 )  

     reciprocal axes: (cart. coord. in units 2 pi/alat)
               b(1) = ( -1.0000 -1.0000  1.0000 )  
               b(2) = (  1.0000  1.0000  1.0000 )  
               b(3) = ( -1.0000  1.0000 -1.0000 )  


     Atoms inside the unit cell: 

     Cartesian axes

     site n.  atom      mass           positions (alat units)
        1     Si  28.0860   tau(    1) = (    0.00000    0.00000    0.00000  )
        2     Si  28.0860   tau(    2) = (    0.25000    0.25000    0.25000  )

     Computing dynamical matrix for 
                    q = (   0.0000000   0.0000000   0.0000000 )
 
     49 Sym.Ops. (with q -> -q+G )


     G cutoff =  643.9484  (   1061 G-vectors)     FFT grid: ( 36, 36, 36)
     G cutoff =  321.9742  (    375 G-vectors)  smooth grid: ( 25, 25, 25)
     number of k points=   182

     PseudoPot. # 1 for Si read from file:
     ./si_pbe_v1.uspp.F.UPF.txt
     MD5 check sum: a056efeee980c13900f22a371efd63c1
     Pseudo is Ultrasoft + core correction, Zval =  4.0
     Generated by new atomic code, or converted to UPF format
     Using radial grid of  899 points,  6 beta functions with: 
                l(1) =   0
                l(2) =   0
                l(3) =   1
                l(4) =   1
                l(5) =   2
                l(6) =   2
     Q(r) pseudized with  8 coefficients,  rinner =    0.900   0.900   0.900
                                                       0.900   0.900

     Mode symmetry, O_h (m-3m)  point group:


     Electric field:
     Dielectric constant
     Born effective charges in two ways 


     Atomic displacements:
     There are   2 irreducible representations

     Representation     1      3 modes -T_2g G_25' G_5+  To be done

     Representation     2      3 modes -T_1u G_15  G_4-  To be done



     Alpha used in Ewald sum =   2.5000
     PHONON       :     1.84s CPU         3.22s WALL


     Electric Fields Calculation

      iter #   1 total cpu time :     4.0 secs   av.it.:   6.5
      thresh= 1.000E-02 alpha_mix =  0.700 |ddv_scf|^2 =  7.594E-08

      iter #   2 total cpu time :     5.4 secs   av.it.:  12.2
      thresh= 2.756E-05 alpha_mix =  0.700 |ddv_scf|^2 =  4.289E-09

      iter #   3 total cpu time :     5.9 secs   av.it.:  12.0
      thresh= 6.549E-06 alpha_mix =  0.700 |ddv_scf|^2 =  2.718E-10

      iter #   4 total cpu time :     6.3 secs   av.it.:  11.3
      thresh= 1.649E-06 alpha_mix =  0.700 |ddv_scf|^2 =  1.731E-12

      iter #   5 total cpu time :     7.0 secs   av.it.:  11.3
      thresh= 1.316E-07 alpha_mix =  0.700 |ddv_scf|^2 =  1.643E-15

      iter #   6 total cpu time :     7.5 secs   av.it.:  11.2
      thresh= 4.053E-09 alpha_mix =  0.700 |ddv_scf|^2 =  1.091E-16

      iter #   7 total cpu time :     8.8 secs   av.it.:  11.8
      thresh= 1.044E-09 alpha_mix =  0.700 |ddv_scf|^2 =  1.679E-19

     End of electric fields calculation

          Dielectric constant in cartesian axis 

          (      12.926297542      -0.000000000       0.000000000 )
          (       0.000000000      12.926297542       0.000000000 )
          (      -0.000000000      -0.000000000      12.926297542 )

          Effective charges (d Force / dE) in cartesian axis

           atom      1   Si 
      Ex  (        0.01878        0.00000        0.00000 )
      Ey  (       -0.00000        0.01878       -0.00000 )
      Ez  (        0.00000       -0.00000        0.01878 )
           atom      2   Si 
      Ex  (        0.01878       -0.00000        0.00000 )
      Ey  (       -0.00000        0.01878       -0.00000 )
      Ez  (        0.00000       -0.00000        0.01878 )


     Representation #  1 modes #   1  2  3

     Self-consistent Calculation

      iter #   1 total cpu time :    11.2 secs   av.it.:   5.1
      thresh= 1.000E-02 alpha_mix =  0.700 |ddv_scf|^2 =  1.324E-08

      iter #   2 total cpu time :    13.0 secs   av.it.:  12.0
      thresh= 1.150E-05 alpha_mix =  0.700 |ddv_scf|^2 =  5.439E-10

      iter #   3 total cpu time :    13.5 secs   av.it.:  11.8
      thresh= 2.332E-06 alpha_mix =  0.700 |ddv_scf|^2 =  3.697E-11

      iter #   4 total cpu time :    14.0 secs   av.it.:  10.9
      thresh= 6.080E-07 alpha_mix =  0.700 |ddv_scf|^2 =  9.086E-14

      iter #   5 total cpu time :    14.5 secs   av.it.:  11.8
      thresh= 3.014E-08 alpha_mix =  0.700 |ddv_scf|^2 =  7.740E-16

      iter #   6 total cpu time :    15.9 secs   av.it.:  11.7
      thresh= 2.782E-09 alpha_mix =  0.700 |ddv_scf|^2 =  1.262E-17

     End of self-consistent calculation

     Convergence has been achieved 


     Representation #  2 modes #   4  5  6

     Self-consistent Calculation

      iter #   1 total cpu time :    16.5 secs   av.it.:   5.2
      thresh= 1.000E-02 alpha_mix =  0.700 |ddv_scf|^2 =  1.046E-08

      iter #   2 total cpu time :    17.1 secs   av.it.:  12.0
      thresh= 1.023E-05 alpha_mix =  0.700 |ddv_scf|^2 =  6.175E-10

      iter #   3 total cpu time :    17.6 secs   av.it.:  11.7
      thresh= 2.485E-06 alpha_mix =  0.700 |ddv_scf|^2 =  3.819E-11

      iter #   4 total cpu time :    18.5 secs   av.it.:  11.7
      thresh= 6.180E-07 alpha_mix =  0.700 |ddv_scf|^2 =  1.474E-13

      iter #   5 total cpu time :    19.0 secs   av.it.:  11.5
      thresh= 3.840E-08 alpha_mix =  0.700 |ddv_scf|^2 =  3.695E-16

      iter #   6 total cpu time :    22.0 secs   av.it.:  12.0
      thresh= 1.922E-09 alpha_mix =  0.700 |ddv_scf|^2 =  3.042E-17

     End of self-consistent calculation

     Convergence has been achieved 
 
     Number of q in the star =    1
     List of q in the star:
          1   0.000000000   0.000000000   0.000000000

          Dielectric constant in cartesian axis 

          (      12.926297542      -0.000000000       0.000000000 )
          (       0.000000000      12.926297542       0.000000000 )
          (      -0.000000000      -0.000000000      12.926297542 )

          Effective charges (d Force / dE) in cartesian axis

           atom      1   Si 
      Ex  (        0.01878        0.00000        0.00000 )
      Ey  (       -0.00000        0.01878       -0.00000 )
      Ez  (        0.00000       -0.00000        0.01878 )
           atom      2   Si 
      Ex  (        0.01878       -0.00000        0.00000 )
      Ey  (       -0.00000        0.01878       -0.00000 )
      Ez  (        0.00000       -0.00000        0.01878 )

          Effective charges (d P / du) in cartesian axis 

           atom      1   Si 
      Px  (       -0.00054        0.00000        0.00000 )
      Py  (        0.00000       -0.00054        0.00000 )
      Pz  (        0.00000       -0.00000       -0.00054 )
           atom      2   Si 
      Px  (       -0.00054       -0.00000        0.00000 )
      Py  (        0.00000       -0.00054        0.00000 )
      Pz  (        0.00000        0.00000       -0.00054 )

     Diagonalizing the dynamical matrix

     q = (    0.000000000   0.000000000   0.000000000 ) 

 **************************************************************************
     freq (    1) =      -0.109977 [THz] =      -3.668442 [cm-1]
     freq (    2) =      -0.109977 [THz] =      -3.668442 [cm-1]
     freq (    3) =      -0.109977 [THz] =      -3.668442 [cm-1]
     freq (    4) =      15.260675 [THz] =     509.041337 [cm-1]
     freq (    5) =      15.260675 [THz] =     509.041337 [cm-1]
     freq (    6) =      15.260675 [THz] =     509.041337 [cm-1]
 **************************************************************************

     Mode symmetry, O_h (m-3m)  point group:

     freq (  1 -  3) =         -3.7  [cm-1]   --> T_1u G_15  G_4- I  
     freq (  4 -  6) =        509.0  [cm-1]   --> T_2g G_25' G_5+ R  

     Calculation of q =   -0.1666667   0.1666667  -0.1666667
 
     Parallelization info
     --------------------
     sticks:   dense  smooth     PW     G-vecs:    dense   smooth      PW
     Min          54      27     10                 1060      371      80
     Max          56      28     11                 1061      378      82
     Sum         871     433    163                16961     5985    1291
 


     bravais-lattice index     =            2
     lattice parameter (alat)  =      10.2920  a.u.
     unit-cell volume          =     272.5457 (a.u.)^3
     number of atoms/cell      =            2
     number of atomic types    =            1
     number of electrons       =         8.00
     number of Kohn-Sham states=            4
     kinetic-energy cutoff     =      30.0000  Ry
     charge density cutoff     =     240.0000  Ry
     Exchange-correlation      = SLA  PW   PBE  PBE ( 1  4  3  4 0 0)

     celldm(1)=  10.292000  celldm(2)=   0.000000  celldm(3)=   0.000000
     celldm(4)=   0.000000  celldm(5)=   0.000000  celldm(6)=   0.000000

     crystal axes: (cart. coord. in units of alat)
               a(1) = (  -0.500000   0.000000   0.500000 )  
               a(2) = (   0.000000   0.500000   0.500000 )  
               a(3) = (  -0.500000   0.500000   0.000000 )  

     reciprocal axes: (cart. coord. in units 2 pi/alat)
               b(1) = ( -1.000000 -1.000000  1.000000 )  
               b(2) = (  1.000000  1.000000  1.000000 )  
               b(3) = ( -1.000000  1.000000 -1.000000 )  


     PseudoPot. # 1 for Si read from file:
     ./si_pbe_v1.uspp.F.UPF.txt
     MD5 check sum: a056efeee980c13900f22a371efd63c1
     Pseudo is Ultrasoft + core correction, Zval =  4.0
     Generated by new atomic code, or converted to UPF format
     Using radial grid of  899 points,  6 beta functions with: 
                l(1) =   0
                l(2) =   0
                l(3) =   1
                l(4) =   1
                l(5) =   2
                l(6) =   2
     Q(r) pseudized with  8 coefficients,  rinner =    0.900   0.900   0.900
                                                       0.900   0.900

     atomic species   valence    mass     pseudopotential
        Si             4.00    28.08600     Si( 1.00)

     48 Sym. Ops., with inversion, found



   Cartesian axes

     site n.     atom                  positions (alat units)
         1           Si  tau(   1) = (   0.0000000   0.0000000   0.0000000  )
         2           Si  tau(   2) = (   0.2500000   0.2500000   0.2500000  )

     number of k points=  2600

     Number of k-points >= 100: set verbosity='high' to print them.

     Dense  grid:    16961 G-vectors     FFT dimensions: (  36,  36,  36)

     Smooth grid:     5985 G-vectors     FFT dimensions: (  25,  25,  25)

     Largest allocated arrays     est. size (Mb)     dimensions
        Kohn-Sham Wavefunctions         0.00 Mb     (      53,    4)
        NL pseudopotentials             0.03 Mb     (      53,   36)
        Each V/rho on FFT grid          0.06 Mb     (    3888)
        Each G-vector array             0.01 Mb     (    1061)
        G-vector shells                 0.00 Mb     (     204)
     Largest temporary arrays     est. size (Mb)     dimensions
        Auxiliary wavefunctions         0.01 Mb     (      53,   16)
        Each subspace H/S matrix        0.00 Mb     (       8,    8)
        Each <psi_i|beta_j> matrix      0.00 Mb     (      36,    4)

     The potential is recalculated from file :
     ./silicon/_ph0/silicon.10.292.save/charge-density.dat

     Starting wfc are    8 atomic wfcs

     Band Structure Calculation
     Davidson diagonalization with overlap

     ethr =  1.25E-10,  avg # of iterations = 12.4

     total cpu time spent up to now is        1.6 secs

     End of band structure calculation

     Number of k-points >= 100: set verbosity='high' to print the bands.

     highest occupied level (ev):     6.0642

     Writing output data file silicon.10.292.save

                                                                                

     bravais-lattice index     =            2
     lattice parameter (alat)  =      10.2920  a.u.
     unit-cell volume          =     272.5457 (a.u.)^3
     number of atoms/cell      =            2
     number of atomic types    =            1
     kinetic-energy cut-off    =      30.0000  Ry
     charge density cut-off    =     240.0000  Ry
     convergence threshold     =      1.0E-16
     beta                      =       0.7000
     number of iterations used =            4
     Exchange-correlation      = SLA  PW   PBE  PBE ( 1  4  3  4 0 0)


     celldm(1)=   10.29200  celldm(2)=    0.00000  celldm(3)=    0.00000
     celldm(4)=    0.00000  celldm(5)=    0.00000  celldm(6)=    0.00000

     crystal axes: (cart. coord. in units of alat)
               a(1) = ( -0.5000  0.0000  0.5000 )  
               a(2) = (  0.0000  0.5000  0.5000 )  
               a(3) = ( -0.5000  0.5000  0.0000 )  

     reciprocal axes: (cart. coord. in units 2 pi/alat)
               b(1) = ( -1.0000 -1.0000  1.0000 )  
               b(2) = (  1.0000  1.0000  1.0000 )  
               b(3) = ( -1.0000  1.0000 -1.0000 )  


     Atoms inside the unit cell: 

     Cartesian axes

     site n.  atom      mass           positions (alat units)
        1     Si  28.0860   tau(    1) = (    0.00000    0.00000    0.00000  )
        2     Si  28.0860   tau(    2) = (    0.25000    0.25000    0.25000  )

     Computing dynamical matrix for 
                    q = (  -0.1666667   0.1666667  -0.1666667 )
 
      6 Sym.Ops. (no q -> -q+G )


     G cutoff =  643.9484  (   1061 G-vectors)     FFT grid: ( 36, 36, 36)
     G cutoff =  321.9742  (    376 G-vectors)  smooth grid: ( 25, 25, 25)
     number of k points=  2600

     PseudoPot. # 1 for Si read from file:
     ./si_pbe_v1.uspp.F.UPF.txt
     MD5 check sum: a056efeee980c13900f22a371efd63c1
     Pseudo is Ultrasoft + core correction, Zval =  4.0
     Generated by new atomic code, or converted to UPF format
     Using radial grid of  899 points,  6 beta functions with: 
                l(1) =   0
                l(2) =   0
                l(3) =   1
                l(4) =   1
                l(5) =   2
                l(6) =   2
     Q(r) pseudized with  8 coefficients,  rinner =    0.900   0.900   0.900
                                                       0.900   0.900

     Mode symmetry, C_3v (3m)   point group:


     Atomic displacements:
     There are   4 irreducible representations

     Representation     1      1 modes -A_1  L_1  To be done

     Representation     2      1 modes -A_1  L_1  To be done

     Representation     3      2 modes -E    L_3  To be done

     Representation     4      2 modes -E    L_3  To be done



     Alpha used in Ewald sum =   2.5000
     PHONON       :    25.51s CPU        32.52s WALL



     Representation #  1 mode #   1

     Self-consistent Calculation

      iter #   1 total cpu time :    33.7 secs   av.it.:   6.1
      thresh= 1.000E-02 alpha_mix =  0.700 |ddv_scf|^2 =  1.098E-03

      iter #   2 total cpu time :    39.8 secs   av.it.:   9.1
      thresh= 3.314E-03 alpha_mix =  0.700 |ddv_scf|^2 =  3.395E-02

      iter #   3 total cpu time :    40.7 secs   av.it.:   7.2
      thresh= 1.000E-02 alpha_mix =  0.700 |ddv_scf|^2 =  3.406E-07

      iter #   4 total cpu time :    41.3 secs   av.it.:   9.8
      thresh= 5.836E-05 alpha_mix =  0.700 |ddv_scf|^2 =  6.181E-09

      iter #   5 total cpu time :    41.9 secs   av.it.:  10.4
      thresh= 7.862E-06 alpha_mix =  0.700 |ddv_scf|^2 =  9.621E-10

      iter #   6 total cpu time :    42.4 secs   av.it.:   9.5
      thresh= 3.102E-06 alpha_mix =  0.700 |ddv_scf|^2 =  1.411E-09

      iter #   7 total cpu time :    42.9 secs   av.it.:   7.1
      thresh= 3.756E-06 alpha_mix =  0.700 |ddv_scf|^2 =  6.042E-11

      iter #   8 total cpu time :    43.4 secs   av.it.:   8.9
      thresh= 7.773E-07 alpha_mix =  0.700 |ddv_scf|^2 =  1.157E-12

      iter #   9 total cpu time :    43.9 secs   av.it.:   8.2
      thresh= 1.075E-07 alpha_mix =  0.700 |ddv_scf|^2 =  4.179E-14

      iter #  10 total cpu time :    44.5 secs   av.it.:   9.0
      thresh= 2.044E-08 alpha_mix =  0.700 |ddv_scf|^2 =  9.897E-15

      iter #  11 total cpu time :    45.1 secs   av.it.:   9.2
      thresh= 9.948E-09 alpha_mix =  0.700 |ddv_scf|^2 =  4.764E-16

      iter #  12 total cpu time :    45.7 secs   av.it.:   9.7
      thresh= 2.183E-09 alpha_mix =  0.700 |ddv_scf|^2 =  1.080E-17

     End of self-consistent calculation

     Convergence has been achieved 


     Representation #  2 mode #   2

     Self-consistent Calculation

      iter #   1 total cpu time :    49.1 secs   av.it.:   6.1
      thresh= 1.000E-02 alpha_mix =  0.700 |ddv_scf|^2 =  1.098E-03

      iter #   2 total cpu time :    49.7 secs   av.it.:   9.1
      thresh= 3.314E-03 alpha_mix =  0.700 |ddv_scf|^2 =  3.395E-02

      iter #   3 total cpu time :    50.2 secs   av.it.:   7.2
      thresh= 1.000E-02 alpha_mix =  0.700 |ddv_scf|^2 =  3.406E-07

      iter #   4 total cpu time :    50.8 secs   av.it.:   9.8
      thresh= 5.836E-05 alpha_mix =  0.700 |ddv_scf|^2 =  6.181E-09

      iter #   5 total cpu time :    51.3 secs   av.it.:  10.4
      thresh= 7.862E-06 alpha_mix =  0.700 |ddv_scf|^2 =  9.621E-10

      iter #   6 total cpu time :    51.9 secs   av.it.:   9.5
      thresh= 3.102E-06 alpha_mix =  0.700 |ddv_scf|^2 =  1.411E-09

      iter #   7 total cpu time :    52.3 secs   av.it.:   7.1
      thresh= 3.756E-06 alpha_mix =  0.700 |ddv_scf|^2 =  6.042E-11

      iter #   8 total cpu time :    52.9 secs   av.it.:   8.9
      thresh= 7.773E-07 alpha_mix =  0.700 |ddv_scf|^2 =  1.157E-12

      iter #   9 total cpu time :    53.8 secs   av.it.:   8.2
      thresh= 1.075E-07 alpha_mix =  0.700 |ddv_scf|^2 =  4.179E-14

      iter #  10 total cpu time :    54.4 secs   av.it.:   9.0
      thresh= 2.044E-08 alpha_mix =  0.700 |ddv_scf|^2 =  9.897E-15

      iter #  11 total cpu time :    54.9 secs   av.it.:   9.2
      thresh= 9.948E-09 alpha_mix =  0.700 |ddv_scf|^2 =  4.764E-16

      iter #  12 total cpu time :    55.5 secs   av.it.:   9.7
      thresh= 2.183E-09 alpha_mix =  0.700 |ddv_scf|^2 =  1.080E-17

     End of self-consistent calculation

     Convergence has been achieved 


     Representation #  3 modes #   3  4

     Self-consistent Calculation

      iter #   1 total cpu time :    56.4 secs   av.it.:   5.3
      thresh= 1.000E-02 alpha_mix =  0.700 |ddv_scf|^2 =  3.222E-08

      iter #   2 total cpu time :    57.7 secs   av.it.:  11.8
      thresh= 1.795E-05 alpha_mix =  0.700 |ddv_scf|^2 =  1.823E-09

      iter #   3 total cpu time :    59.0 secs   av.it.:  11.5
      thresh= 4.269E-06 alpha_mix =  0.700 |ddv_scf|^2 =  1.108E-10

      iter #   4 total cpu time :    60.3 secs   av.it.:  11.2
      thresh= 1.052E-06 alpha_mix =  0.700 |ddv_scf|^2 =  4.707E-13

      iter #   5 total cpu time :    61.6 secs   av.it.:  11.6
      thresh= 6.861E-08 alpha_mix =  0.700 |ddv_scf|^2 =  3.093E-14

      iter #   6 total cpu time :    63.1 secs   av.it.:  11.4
      thresh= 1.759E-08 alpha_mix =  0.700 |ddv_scf|^2 =  1.764E-16

      iter #   7 total cpu time :    64.5 secs   av.it.:  10.9
      thresh= 1.328E-09 alpha_mix =  0.700 |ddv_scf|^2 =  1.481E-17

     End of self-consistent calculation

     Convergence has been achieved 


     Representation #  4 modes #   5  6

     Self-consistent Calculation

      iter #   1 total cpu time :    80.8 secs   av.it.:   5.3
      thresh= 1.000E-02 alpha_mix =  0.700 |ddv_scf|^2 =  3.222E-08

      iter #   2 total cpu time :    82.3 secs   av.it.:  12.0
      thresh= 1.795E-05 alpha_mix =  0.700 |ddv_scf|^2 =  1.824E-09

      iter #   3 total cpu time :    83.7 secs   av.it.:  11.8
      thresh= 4.271E-06 alpha_mix =  0.700 |ddv_scf|^2 =  1.108E-10

      iter #   4 total cpu time :    85.0 secs   av.it.:  11.5
      thresh= 1.052E-06 alpha_mix =  0.700 |ddv_scf|^2 =  4.706E-13

      iter #   5 total cpu time :    86.3 secs   av.it.:  11.8
      thresh= 6.860E-08 alpha_mix =  0.700 |ddv_scf|^2 =  3.090E-14

      iter #   6 total cpu time :    89.1 secs   av.it.:  11.7
      thresh= 1.758E-08 alpha_mix =  0.700 |ddv_scf|^2 =  1.760E-16

      iter #   7 total cpu time :    90.4 secs   av.it.:  11.1
      thresh= 1.327E-09 alpha_mix =  0.700 |ddv_scf|^2 =  1.477E-17

     End of self-consistent calculation

     Convergence has been achieved 
 
     Number of q in the star =    8
     List of q in the star:
          1  -0.166666667   0.166666667  -0.166666667
          2   0.166666667   0.166666667   0.166666667
          3  -0.166666667  -0.166666667  -0.166666667
          4   0.166666667  -0.166666667   0.166666667
          5   0.166666667  -0.166666667  -0.166666667
          6   0.166666667   0.166666667  -0.166666667
          7  -0.166666667  -0.166666667   0.166666667
          8  -0.166666667   0.166666667   0.166666667

     Diagonalizing the dynamical matrix

     q = (   -0.166666667   0.166666667  -0.166666667 ) 

 **************************************************************************
     freq (    1) =       2.219069 [THz] =      74.020175 [cm-1]
     freq (    2) =       2.219069 [THz] =      74.020175 [cm-1]
     freq (    3) =       4.711465 [THz] =     157.157557 [cm-1]
     freq (    4) =      14.874648 [THz] =     496.164855 [cm-1]
     freq (    5) =      14.904733 [THz] =     497.168379 [cm-1]
     freq (    6) =      14.904733 [THz] =     497.168379 [cm-1]
 **************************************************************************

     Mode symmetry, C_3v (3m)   point group:

     freq (  1 -  2) =         74.0  [cm-1]   --> E    L_3           
     freq (  3 -  3) =        157.2  [cm-1]   --> A_1  L_1           
     freq (  4 -  4) =        496.2  [cm-1]   --> A_1  L_1           
     freq (  5 -  6) =        497.2  [cm-1]   --> E    L_3           

     Calculation of q =   -0.3333333   0.3333333  -0.3333333
 
     Parallelization info
     --------------------
     sticks:   dense  smooth     PW     G-vecs:    dense   smooth      PW
     Min          54      27     10                 1060      371      87
     Max          56      28     11                 1061      380      90
     Sum         871     433    163                16961     5985    1411
 


     bravais-lattice index     =            2
     lattice parameter (alat)  =      10.2920  a.u.
     unit-cell volume          =     272.5457 (a.u.)^3
     number of atoms/cell      =            2
     number of atomic types    =            1
     number of electrons       =         8.00
     number of Kohn-Sham states=            4
     kinetic-energy cutoff     =      30.0000  Ry
     charge density cutoff     =     240.0000  Ry
     Exchange-correlation      = SLA  PW   PBE  PBE ( 1  4  3  4 0 0)

     celldm(1)=  10.292000  celldm(2)=   0.000000  celldm(3)=   0.000000
     celldm(4)=   0.000000  celldm(5)=   0.000000  celldm(6)=   0.000000

     crystal axes: (cart. coord. in units of alat)
               a(1) = (  -0.500000   0.000000   0.500000 )  
               a(2) = (   0.000000   0.500000   0.500000 )  
               a(3) = (  -0.500000   0.500000   0.000000 )  

     reciprocal axes: (cart. coord. in units 2 pi/alat)
               b(1) = ( -1.000000 -1.000000  1.000000 )  
               b(2) = (  1.000000  1.000000  1.000000 )  
               b(3) = ( -1.000000  1.000000 -1.000000 )  


     PseudoPot. # 1 for Si read from file:
     ./si_pbe_v1.uspp.F.UPF.txt
     MD5 check sum: a056efeee980c13900f22a371efd63c1
     Pseudo is Ultrasoft + core correction, Zval =  4.0
     Generated by new atomic code, or converted to UPF format
     Using radial grid of  899 points,  6 beta functions with: 
                l(1) =   0
                l(2) =   0
                l(3) =   1
                l(4) =   1
                l(5) =   2
                l(6) =   2
     Q(r) pseudized with  8 coefficients,  rinner =    0.900   0.900   0.900
                                                       0.900   0.900

     atomic species   valence    mass     pseudopotential
        Si             4.00    28.08600     Si( 1.00)

     48 Sym. Ops., with inversion, found



   Cartesian axes

     site n.     atom                  positions (alat units)
         1           Si  tau(   1) = (   0.0000000   0.0000000   0.0000000  )
         2           Si  tau(   2) = (   0.2500000   0.2500000   0.2500000  )

     number of k points=  2600

     Number of k-points >= 100: set verbosity='high' to print them.

     Dense  grid:    16961 G-vectors     FFT dimensions: (  36,  36,  36)

     Smooth grid:     5985 G-vectors     FFT dimensions: (  25,  25,  25)

     Largest allocated arrays     est. size (Mb)     dimensions
        Kohn-Sham Wavefunctions         0.00 Mb     (      54,    4)
        NL pseudopotentials             0.03 Mb     (      54,   36)
        Each V/rho on FFT grid          0.06 Mb     (    3888)
        Each G-vector array             0.01 Mb     (    1061)
        G-vector shells                 0.00 Mb     (     205)
     Largest temporary arrays     est. size (Mb)     dimensions
        Auxiliary wavefunctions         0.01 Mb     (      54,   16)
        Each subspace H/S matrix        0.00 Mb     (       8,    8)
        Each <psi_i|beta_j> matrix      0.00 Mb     (      36,    4)

     The potential is recalculated from file :
     ./silicon/_ph0/silicon.10.292.save/charge-density.dat

     Starting wfc are    8 atomic wfcs

     Band Structure Calculation
     Davidson diagonalization with overlap

     ethr =  1.25E-10,  avg # of iterations = 12.4

     total cpu time spent up to now is        6.1 secs

     End of band structure calculation

     Number of k-points >= 100: set verbosity='high' to print the bands.

     highest occupied level (ev):     6.0642

     Writing output data file silicon.10.292.save

                                                                                

     bravais-lattice index     =            2
     lattice parameter (alat)  =      10.2920  a.u.
     unit-cell volume          =     272.5457 (a.u.)^3
     number of atoms/cell      =            2
     number of atomic types    =            1
     kinetic-energy cut-off    =      30.0000  Ry
     charge density cut-off    =     240.0000  Ry
     convergence threshold     =      1.0E-16
     beta                      =       0.7000
     number of iterations used =            4
     Exchange-correlation      = SLA  PW   PBE  PBE ( 1  4  3  4 0 0)


     celldm(1)=   10.29200  celldm(2)=    0.00000  celldm(3)=    0.00000
     celldm(4)=    0.00000  celldm(5)=    0.00000  celldm(6)=    0.00000

     crystal axes: (cart. coord. in units of alat)
               a(1) = ( -0.5000  0.0000  0.5000 )  
               a(2) = (  0.0000  0.5000  0.5000 )  
               a(3) = ( -0.5000  0.5000  0.0000 )  

     reciprocal axes: (cart. coord. in units 2 pi/alat)
               b(1) = ( -1.0000 -1.0000  1.0000 )  
               b(2) = (  1.0000  1.0000  1.0000 )  
               b(3) = ( -1.0000  1.0000 -1.0000 )  


     Atoms inside the unit cell: 

     Cartesian axes

     site n.  atom      mass           positions (alat units)
        1     Si  28.0860   tau(    1) = (    0.00000    0.00000    0.00000  )
        2     Si  28.0860   tau(    2) = (    0.25000    0.25000    0.25000  )

     Computing dynamical matrix for 
                    q = (  -0.3333333   0.3333333  -0.3333333 )
 
      6 Sym.Ops. (no q -> -q+G )


     G cutoff =  643.9484  (   1061 G-vectors)     FFT grid: ( 36, 36, 36)
     G cutoff =  321.9742  (    376 G-vectors)  smooth grid: ( 25, 25, 25)
     number of k points=  2600

     PseudoPot. # 1 for Si read from file:
     ./si_pbe_v1.uspp.F.UPF.txt
     MD5 check sum: a056efeee980c13900f22a371efd63c1
     Pseudo is Ultrasoft + core correction, Zval =  4.0
     Generated by new atomic code, or converted to UPF format
     Using radial grid of  899 points,  6 beta functions with: 
                l(1) =   0
                l(2) =   0
                l(3) =   1
                l(4) =   1
                l(5) =   2
                l(6) =   2
     Q(r) pseudized with  8 coefficients,  rinner =    0.900   0.900   0.900
                                                       0.900   0.900

     Mode symmetry, C_3v (3m)   point group:


     Atomic displacements:
     There are   4 irreducible representations

     Representation     1      1 modes -A_1  L_1  To be done

     Representation     2      1 modes -A_1  L_1  To be done

     Representation     3      2 modes -E    L_3  To be done

     Representation     4      2 modes -E    L_3  To be done



     Alpha used in Ewald sum =   2.5000
     PHONON       :  1m23.95s CPU     1m35.90s WALL



     Representation #  1 mode #   1

     Self-consistent Calculation

      iter #   1 total cpu time :    96.4 secs   av.it.:   6.0
      thresh= 1.000E-02 alpha_mix =  0.700 |ddv_scf|^2 =  7.032E-05

      iter #   2 total cpu time :    97.1 secs   av.it.:  10.1
      thresh= 8.386E-04 alpha_mix =  0.700 |ddv_scf|^2 =  5.377E-04

      iter #   3 total cpu time :    97.6 secs   av.it.:   8.4
      thresh= 2.319E-03 alpha_mix =  0.700 |ddv_scf|^2 =  1.077E-07

      iter #   4 total cpu time :    98.3 secs   av.it.:  10.4
      thresh= 3.282E-05 alpha_mix =  0.700 |ddv_scf|^2 =  2.445E-09

      iter #   5 total cpu time :    99.0 secs   av.it.:  10.6
      thresh= 4.945E-06 alpha_mix =  0.700 |ddv_scf|^2 =  6.644E-11

      iter #   6 total cpu time :    99.6 secs   av.it.:  10.8
      thresh= 8.151E-07 alpha_mix =  0.700 |ddv_scf|^2 =  3.917E-12

      iter #   7 total cpu time :   100.2 secs   av.it.:  10.9
      thresh= 1.979E-07 alpha_mix =  0.700 |ddv_scf|^2 =  5.204E-12

      iter #   8 total cpu time :   100.7 secs   av.it.:   8.6
      thresh= 2.281E-07 alpha_mix =  0.700 |ddv_scf|^2 =  1.751E-13

      iter #   9 total cpu time :   101.3 secs   av.it.:  10.1
      thresh= 4.184E-08 alpha_mix =  0.700 |ddv_scf|^2 =  3.064E-13

      iter #  10 total cpu time :   101.9 secs   av.it.:   9.1
      thresh= 5.535E-08 alpha_mix =  0.700 |ddv_scf|^2 =  1.937E-15

      iter #  11 total cpu time :   102.6 secs   av.it.:  10.3
      thresh= 4.401E-09 alpha_mix =  0.700 |ddv_scf|^2 =  4.000E-16

      iter #  12 total cpu time :   103.2 secs   av.it.:  10.0
      thresh= 2.000E-09 alpha_mix =  0.700 |ddv_scf|^2 =  1.155E-17

     End of self-consistent calculation

     Convergence has been achieved 


     Representation #  2 mode #   2

     Self-consistent Calculation

      iter #   1 total cpu time :   103.8 secs   av.it.:   6.0
      thresh= 1.000E-02 alpha_mix =  0.700 |ddv_scf|^2 =  7.032E-05

      iter #   2 total cpu time :   104.4 secs   av.it.:  10.1
      thresh= 8.386E-04 alpha_mix =  0.700 |ddv_scf|^2 =  5.377E-04

      iter #   3 total cpu time :   105.0 secs   av.it.:   8.4
      thresh= 2.319E-03 alpha_mix =  0.700 |ddv_scf|^2 =  1.077E-07

      iter #   4 total cpu time :   106.1 secs   av.it.:  10.4
      thresh= 3.282E-05 alpha_mix =  0.700 |ddv_scf|^2 =  2.445E-09

      iter #   5 total cpu time :   106.7 secs   av.it.:  10.6
      thresh= 4.945E-06 alpha_mix =  0.700 |ddv_scf|^2 =  6.644E-11

      iter #   6 total cpu time :   107.4 secs   av.it.:  10.8
      thresh= 8.151E-07 alpha_mix =  0.700 |ddv_scf|^2 =  3.917E-12

      iter #   7 total cpu time :   108.1 secs   av.it.:  10.9
      thresh= 1.979E-07 alpha_mix =  0.700 |ddv_scf|^2 =  5.204E-12

      iter #   8 total cpu time :   109.0 secs   av.it.:   8.6
      thresh= 2.281E-07 alpha_mix =  0.700 |ddv_scf|^2 =  1.751E-13

      iter #   9 total cpu time :   109.6 secs   av.it.:  10.1
      thresh= 4.184E-08 alpha_mix =  0.700 |ddv_scf|^2 =  3.064E-13

      iter #  10 total cpu time :   110.1 secs   av.it.:   9.1
      thresh= 5.535E-08 alpha_mix =  0.700 |ddv_scf|^2 =  1.937E-15

      iter #  11 total cpu time :   114.5 secs   av.it.:  10.3
      thresh= 4.401E-09 alpha_mix =  0.700 |ddv_scf|^2 =  4.000E-16

      iter #  12 total cpu time :   115.9 secs   av.it.:  10.0
      thresh= 2.000E-09 alpha_mix =  0.700 |ddv_scf|^2 =  1.155E-17

     End of self-consistent calculation

     Convergence has been achieved 


     Representation #  3 modes #   3  4

     Self-consistent Calculation

      iter #   1 total cpu time :   116.8 secs   av.it.:   5.3
      thresh= 1.000E-02 alpha_mix =  0.700 |ddv_scf|^2 =  4.204E-08

      iter #   2 total cpu time :   118.2 secs   av.it.:  11.8
      thresh= 2.050E-05 alpha_mix =  0.700 |ddv_scf|^2 =  2.986E-09

      iter #   3 total cpu time :   119.5 secs   av.it.:  11.5
      thresh= 5.464E-06 alpha_mix =  0.700 |ddv_scf|^2 =  1.380E-10

      iter #   4 total cpu time :   120.9 secs   av.it.:  11.2
      thresh= 1.175E-06 alpha_mix =  0.700 |ddv_scf|^2 =  4.863E-13

      iter #   5 total cpu time :   122.1 secs   av.it.:  11.4
      thresh= 6.973E-08 alpha_mix =  0.700 |ddv_scf|^2 =  3.150E-14

      iter #   6 total cpu time :   123.5 secs   av.it.:  11.3
      thresh= 1.775E-08 alpha_mix =  0.700 |ddv_scf|^2 =  2.177E-16

      iter #   7 total cpu time :   124.9 secs   av.it.:  11.0
      thresh= 1.476E-09 alpha_mix =  0.700 |ddv_scf|^2 =  1.512E-17

     End of self-consistent calculation

     Convergence has been achieved 


     Representation #  4 modes #   5  6

     Self-consistent Calculation

      iter #   1 total cpu time :   126.1 secs   av.it.:   5.3
      thresh= 1.000E-02 alpha_mix =  0.700 |ddv_scf|^2 =  4.204E-08

      iter #   2 total cpu time :   127.5 secs   av.it.:  12.1
      thresh= 2.050E-05 alpha_mix =  0.700 |ddv_scf|^2 =  2.985E-09

      iter #   3 total cpu time :   128.9 secs   av.it.:  11.9
      thresh= 5.464E-06 alpha_mix =  0.700 |ddv_scf|^2 =  1.379E-10

      iter #   4 total cpu time :   130.7 secs   av.it.:  11.5
      thresh= 1.174E-06 alpha_mix =  0.700 |ddv_scf|^2 =  4.867E-13

      iter #   5 total cpu time :   132.1 secs   av.it.:  11.7
      thresh= 6.976E-08 alpha_mix =  0.700 |ddv_scf|^2 =  3.153E-14

      iter #   6 total cpu time :   133.5 secs   av.it.:  11.5
      thresh= 1.776E-08 alpha_mix =  0.700 |ddv_scf|^2 =  2.171E-16

      iter #   7 total cpu time :   134.8 secs   av.it.:  11.2
      thresh= 1.473E-09 alpha_mix =  0.700 |ddv_scf|^2 =  1.509E-17

     End of self-consistent calculation

     Convergence has been achieved 
 
     Number of q in the star =    8
     List of q in the star:
          1  -0.333333333   0.333333333  -0.333333333
          2   0.333333333   0.333333333   0.333333333
          3  -0.333333333  -0.333333333  -0.333333333
          4   0.333333333  -0.333333333   0.333333333
          5   0.333333333  -0.333333333  -0.333333333
          6   0.333333333   0.333333333  -0.333333333
          7  -0.333333333  -0.333333333   0.333333333
          8  -0.333333333   0.333333333   0.333333333

     Diagonalizing the dynamical matrix

     q = (   -0.333333333   0.333333333  -0.333333333 ) 

 **************************************************************************
     freq (    1) =       3.124914 [THz] =     104.235894 [cm-1]
     freq (    2) =       3.124914 [THz] =     104.235894 [cm-1]
     freq (    3) =       8.688344 [THz] =     289.811948 [cm-1]
     freq (    4) =      13.713838 [THz] =     457.444390 [cm-1]
     freq (    5) =      14.581589 [THz] =     486.389462 [cm-1]
     freq (    6) =      14.581589 [THz] =     486.389462 [cm-1]
 **************************************************************************

     Mode symmetry, C_3v (3m)   point group:

     freq (  1 -  2) =        104.2  [cm-1]   --> E    L_3           
     freq (  3 -  3) =        289.8  [cm-1]   --> A_1  L_1           
     freq (  4 -  4) =        457.4  [cm-1]   --> A_1  L_1           
     freq (  5 -  6) =        486.4  [cm-1]   --> E    L_3           

     Calculation of q =    0.5000000  -0.5000000   0.5000000
 
     Parallelization info
     --------------------
     sticks:   dense  smooth     PW     G-vecs:    dense   smooth      PW
     Min          54      27     10                 1060      369      90
     Max          56      28     11                 1061      378      94
     Sum         871     433    163                16961     5985    1459
 


     bravais-lattice index     =            2
     lattice parameter (alat)  =      10.2920  a.u.
     unit-cell volume          =     272.5457 (a.u.)^3
     number of atoms/cell      =            2
     number of atomic types    =            1
     number of electrons       =         8.00
     number of Kohn-Sham states=            4
     kinetic-energy cutoff     =      30.0000  Ry
     charge density cutoff     =     240.0000  Ry
     Exchange-correlation      = SLA  PW   PBE  PBE ( 1  4  3  4 0 0)

     celldm(1)=  10.292000  celldm(2)=   0.000000  celldm(3)=   0.000000
     celldm(4)=   0.000000  celldm(5)=   0.000000  celldm(6)=   0.000000

     crystal axes: (cart. coord. in units of alat)
               a(1) = (  -0.500000   0.000000   0.500000 )  
               a(2) = (   0.000000   0.500000   0.500000 )  
               a(3) = (  -0.500000   0.500000   0.000000 )  

     reciprocal axes: (cart. coord. in units 2 pi/alat)
               b(1) = ( -1.000000 -1.000000  1.000000 )  
               b(2) = (  1.000000  1.000000  1.000000 )  
               b(3) = ( -1.000000  1.000000 -1.000000 )  


     PseudoPot. # 1 for Si read from file:
     ./si_pbe_v1.uspp.F.UPF.txt
     MD5 check sum: a056efeee980c13900f22a371efd63c1
     Pseudo is Ultrasoft + core correction, Zval =  4.0
     Generated by new atomic code, or converted to UPF format
     Using radial grid of  899 points,  6 beta functions with: 
                l(1) =   0
                l(2) =   0
                l(3) =   1
                l(4) =   1
                l(5) =   2
                l(6) =   2
     Q(r) pseudized with  8 coefficients,  rinner =    0.900   0.900   0.900
                                                       0.900   0.900

     atomic species   valence    mass     pseudopotential
        Si             4.00    28.08600     Si( 1.00)

     48 Sym. Ops., with inversion, found



   Cartesian axes

     site n.     atom                  positions (alat units)
         1           Si  tau(   1) = (   0.0000000   0.0000000   0.0000000  )
         2           Si  tau(   2) = (   0.2500000   0.2500000   0.2500000  )

     number of k points=  1300

     Number of k-points >= 100: set verbosity='high' to print them.

     Dense  grid:    16961 G-vectors     FFT dimensions: (  36,  36,  36)

     Smooth grid:     5985 G-vectors     FFT dimensions: (  25,  25,  25)

     Largest allocated arrays     est. size (Mb)     dimensions
        Kohn-Sham Wavefunctions         0.00 Mb     (      57,    4)
        NL pseudopotentials             0.03 Mb     (      57,   36)
        Each V/rho on FFT grid          0.06 Mb     (    3888)
        Each G-vector array             0.01 Mb     (    1061)
        G-vector shells                 0.00 Mb     (     205)
     Largest temporary arrays     est. size (Mb)     dimensions
        Auxiliary wavefunctions         0.01 Mb     (      57,   16)
        Each subspace H/S matrix        0.00 Mb     (       8,    8)
        Each <psi_i|beta_j> matrix      0.00 Mb     (      36,    4)

     The potential is recalculated from file :
     ./silicon/_ph0/silicon.10.292.save/charge-density.dat

     Starting wfc are    8 atomic wfcs

     Band Structure Calculation
     Davidson diagonalization with overlap

     ethr =  1.25E-10,  avg # of iterations = 12.4

     total cpu time spent up to now is        9.5 secs

     End of band structure calculation

     Number of k-points >= 100: set verbosity='high' to print the bands.

     highest occupied level (ev):     6.0642

     Writing output data file silicon.10.292.save

                                                                                

     bravais-lattice index     =            2
     lattice parameter (alat)  =      10.2920  a.u.
     unit-cell volume          =     272.5457 (a.u.)^3
     number of atoms/cell      =            2
     number of atomic types    =            1
     kinetic-energy cut-off    =      30.0000  Ry
     charge density cut-off    =     240.0000  Ry
     convergence threshold     =      1.0E-16
     beta                      =       0.7000
     number of iterations used =            4
     Exchange-correlation      = SLA  PW   PBE  PBE ( 1  4  3  4 0 0)


     celldm(1)=   10.29200  celldm(2)=    0.00000  celldm(3)=    0.00000
     celldm(4)=    0.00000  celldm(5)=    0.00000  celldm(6)=    0.00000

     crystal axes: (cart. coord. in units of alat)
               a(1) = ( -0.5000  0.0000  0.5000 )  
               a(2) = (  0.0000  0.5000  0.5000 )  
               a(3) = ( -0.5000  0.5000  0.0000 )  

     reciprocal axes: (cart. coord. in units 2 pi/alat)
               b(1) = ( -1.0000 -1.0000  1.0000 )  
               b(2) = (  1.0000  1.0000  1.0000 )  
               b(3) = ( -1.0000  1.0000 -1.0000 )  


     Atoms inside the unit cell: 

     Cartesian axes

     site n.  atom      mass           positions (alat units)
        1     Si  28.0860   tau(    1) = (    0.00000    0.00000    0.00000  )
        2     Si  28.0860   tau(    2) = (    0.25000    0.25000    0.25000  )

     Computing dynamical matrix for 
                    q = (   0.5000000  -0.5000000   0.5000000 )
 
     13 Sym.Ops. (with q -> -q+G )


     G cutoff =  643.9484  (   1061 G-vectors)     FFT grid: ( 36, 36, 36)
     G cutoff =  321.9742  (    378 G-vectors)  smooth grid: ( 25, 25, 25)
     number of k points=  1300

     PseudoPot. # 1 for Si read from file:
     ./si_pbe_v1.uspp.F.UPF.txt
     MD5 check sum: a056efeee980c13900f22a371efd63c1
     Pseudo is Ultrasoft + core correction, Zval =  4.0
     Generated by new atomic code, or converted to UPF format
     Using radial grid of  899 points,  6 beta functions with: 
                l(1) =   0
                l(2) =   0
                l(3) =   1
                l(4) =   1
                l(5) =   2
                l(6) =   2
     Q(r) pseudized with  8 coefficients,  rinner =    0.900   0.900   0.900
                                                       0.900   0.900


     Atomic displacements:
     There are   4 irreducible representations

     Representation     1      1 modes -  To be done

     Representation     2      1 modes -  To be done

     Representation     3      2 modes -  To be done

     Representation     4      2 modes -  To be done



     Alpha used in Ewald sum =   2.5000
     PHONON       :  2m 1.80s CPU     2m17.68s WALL



     Representation #  1 mode #   1

     Self-consistent Calculation

      iter #   1 total cpu time :   138.0 secs   av.it.:   5.1
      thresh= 1.000E-02 alpha_mix =  0.700 |ddv_scf|^2 =  2.380E-06

      iter #   2 total cpu time :   138.7 secs   av.it.:  10.7
      thresh= 1.543E-04 alpha_mix =  0.700 |ddv_scf|^2 =  2.163E-06

      iter #   3 total cpu time :   139.1 secs   av.it.:   9.8
      thresh= 1.471E-04 alpha_mix =  0.700 |ddv_scf|^2 =  1.325E-09

      iter #   4 total cpu time :   139.4 secs   av.it.:  10.0
      thresh= 3.640E-06 alpha_mix =  0.700 |ddv_scf|^2 =  1.321E-11

      iter #   5 total cpu time :   139.8 secs   av.it.:   9.8
      thresh= 3.635E-07 alpha_mix =  0.700 |ddv_scf|^2 =  1.691E-13

      iter #   6 total cpu time :   140.3 secs   av.it.:   9.9
      thresh= 4.112E-08 alpha_mix =  0.700 |ddv_scf|^2 =  2.424E-15

      iter #   7 total cpu time :   140.6 secs   av.it.:  10.0
      thresh= 4.924E-09 alpha_mix =  0.700 |ddv_scf|^2 =  4.465E-17

     End of self-consistent calculation

     Convergence has been achieved 


     Representation #  2 mode #   2

     Self-consistent Calculation

      iter #   1 total cpu time :   141.8 secs   av.it.:   6.0
      thresh= 1.000E-02 alpha_mix =  0.700 |ddv_scf|^2 =  3.384E-05

      iter #   2 total cpu time :   153.2 secs   av.it.:  10.6
      thresh= 5.817E-04 alpha_mix =  0.700 |ddv_scf|^2 =  1.050E-04

      iter #   3 total cpu time :   153.5 secs   av.it.:   9.2
      thresh= 1.025E-03 alpha_mix =  0.700 |ddv_scf|^2 =  7.185E-09

      iter #   4 total cpu time :   153.9 secs   av.it.:  10.6
      thresh= 8.476E-06 alpha_mix =  0.700 |ddv_scf|^2 =  3.640E-10

      iter #   5 total cpu time :   154.3 secs   av.it.:  10.8
      thresh= 1.908E-06 alpha_mix =  0.700 |ddv_scf|^2 =  1.120E-11

      iter #   6 total cpu time :   154.7 secs   av.it.:  10.5
      thresh= 3.347E-07 alpha_mix =  0.700 |ddv_scf|^2 =  8.461E-14

      iter #   7 total cpu time :   155.0 secs   av.it.:   9.9
      thresh= 2.909E-08 alpha_mix =  0.700 |ddv_scf|^2 =  9.423E-16

      iter #   8 total cpu time :   155.4 secs   av.it.:   9.7
      thresh= 3.070E-09 alpha_mix =  0.700 |ddv_scf|^2 =  3.526E-17

     End of self-consistent calculation

     Convergence has been achieved 


     Representation #  3 modes #   3  4

     Self-consistent Calculation

      iter #   1 total cpu time :   155.9 secs   av.it.:   5.1
      thresh= 1.000E-02 alpha_mix =  0.700 |ddv_scf|^2 =  1.522E-08

      iter #   2 total cpu time :   156.7 secs   av.it.:  11.6
      thresh= 1.234E-05 alpha_mix =  0.700 |ddv_scf|^2 =  9.008E-10

      iter #   3 total cpu time :   157.4 secs   av.it.:  11.2
      thresh= 3.001E-06 alpha_mix =  0.700 |ddv_scf|^2 =  3.006E-11

      iter #   4 total cpu time :   158.1 secs   av.it.:  11.2
      thresh= 5.483E-07 alpha_mix =  0.700 |ddv_scf|^2 =  2.452E-13

      iter #   5 total cpu time :   158.8 secs   av.it.:  11.1
      thresh= 4.952E-08 alpha_mix =  0.700 |ddv_scf|^2 =  2.677E-15

      iter #   6 total cpu time :   159.5 secs   av.it.:  11.2
      thresh= 5.174E-09 alpha_mix =  0.700 |ddv_scf|^2 =  2.718E-17

     End of self-consistent calculation

     Convergence has been achieved 


     Representation #  4 modes #   5  6

     Self-consistent Calculation

      iter #   1 total cpu time :   160.2 secs   av.it.:   5.2
      thresh= 1.000E-02 alpha_mix =  0.700 |ddv_scf|^2 =  7.770E-08

      iter #   2 total cpu time :   161.0 secs   av.it.:  11.7
      thresh= 2.787E-05 alpha_mix =  0.700 |ddv_scf|^2 =  6.222E-09

      iter #   3 total cpu time :   161.7 secs   av.it.:  11.5
      thresh= 7.888E-06 alpha_mix =  0.700 |ddv_scf|^2 =  1.642E-10

      iter #   4 total cpu time :   162.4 secs   av.it.:  10.4
      thresh= 1.281E-06 alpha_mix =  0.700 |ddv_scf|^2 =  2.934E-13

      iter #   5 total cpu time :   163.0 secs   av.it.:  11.1
      thresh= 5.416E-08 alpha_mix =  0.700 |ddv_scf|^2 =  2.653E-15

      iter #   6 total cpu time :   164.0 secs   av.it.:  11.2
      thresh= 5.151E-09 alpha_mix =  0.700 |ddv_scf|^2 =  7.058E-17

     End of self-consistent calculation

     Convergence has been achieved 
 
     Number of q in the star =    4
     List of q in the star:
          1   0.500000000  -0.500000000   0.500000000
          2   0.500000000   0.500000000   0.500000000
          3  -0.500000000   0.500000000   0.500000000
          4   0.500000000   0.500000000  -0.500000000

     Diagonalizing the dynamical matrix

     q = (    0.500000000  -0.500000000   0.500000000 ) 

 **************************************************************************
     freq (    1) =       3.276247 [THz] =     109.283852 [cm-1]
     freq (    2) =       3.276247 [THz] =     109.283852 [cm-1]
     freq (    3) =      11.145704 [THz] =     371.780667 [cm-1]
     freq (    4) =      12.205409 [THz] =     407.128625 [cm-1]
     freq (    5) =      14.514036 [THz] =     484.136119 [cm-1]
     freq (    6) =      14.514036 [THz] =     484.136119 [cm-1]
 **************************************************************************

     Calculation of q =    0.0000000   0.3333333   0.0000000
 
     Parallelization info
     --------------------
     sticks:   dense  smooth     PW     G-vecs:    dense   smooth      PW
     Min          54      27     10                 1060      371      84
     Max          56      28     11                 1061      377      86
     Sum         871     433    163                16961     5985    1363
 


     bravais-lattice index     =            2
     lattice parameter (alat)  =      10.2920  a.u.
     unit-cell volume          =     272.5457 (a.u.)^3
     number of atoms/cell      =            2
     number of atomic types    =            1
     number of electrons       =         8.00
     number of Kohn-Sham states=            4
     kinetic-energy cutoff     =      30.0000  Ry
     charge density cutoff     =     240.0000  Ry
     Exchange-correlation      = SLA  PW   PBE  PBE ( 1  4  3  4 0 0)

     celldm(1)=  10.292000  celldm(2)=   0.000000  celldm(3)=   0.000000
     celldm(4)=   0.000000  celldm(5)=   0.000000  celldm(6)=   0.000000

     crystal axes: (cart. coord. in units of alat)
               a(1) = (  -0.500000   0.000000   0.500000 )  
               a(2) = (   0.000000   0.500000   0.500000 )  
               a(3) = (  -0.500000   0.500000   0.000000 )  

     reciprocal axes: (cart. coord. in units 2 pi/alat)
               b(1) = ( -1.000000 -1.000000  1.000000 )  
               b(2) = (  1.000000  1.000000  1.000000 )  
               b(3) = ( -1.000000  1.000000 -1.000000 )  


     PseudoPot. # 1 for Si read from file:
     ./si_pbe_v1.uspp.F.UPF.txt
     MD5 check sum: a056efeee980c13900f22a371efd63c1
     Pseudo is Ultrasoft + core correction, Zval =  4.0
     Generated by new atomic code, or converted to UPF format
     Using radial grid of  899 points,  6 beta functions with: 
                l(1) =   0
                l(2) =   0
                l(3) =   1
                l(4) =   1
                l(5) =   2
                l(6) =   2
     Q(r) pseudized with  8 coefficients,  rinner =    0.900   0.900   0.900
                                                       0.900   0.900

     atomic species   valence    mass     pseudopotential
        Si             4.00    28.08600     Si( 1.00)

     48 Sym. Ops., with inversion, found



   Cartesian axes

     site n.     atom                  positions (alat units)
         1           Si  tau(   1) = (   0.0000000   0.0000000   0.0000000  )
         2           Si  tau(   2) = (   0.2500000   0.2500000   0.2500000  )

     number of k points=  1872

     Number of k-points >= 100: set verbosity='high' to print them.

     Dense  grid:    16961 G-vectors     FFT dimensions: (  36,  36,  36)

     Smooth grid:     5985 G-vectors     FFT dimensions: (  25,  25,  25)

     Largest allocated arrays     est. size (Mb)     dimensions
        Kohn-Sham Wavefunctions         0.00 Mb     (      55,    4)
        NL pseudopotentials             0.03 Mb     (      55,   36)
        Each V/rho on FFT grid          0.06 Mb     (    3888)
        Each G-vector array             0.01 Mb     (    1061)
        G-vector shells                 0.00 Mb     (     204)
     Largest temporary arrays     est. size (Mb)     dimensions
        Auxiliary wavefunctions         0.01 Mb     (      55,   16)
        Each subspace H/S matrix        0.00 Mb     (       8,    8)
        Each <psi_i|beta_j> matrix      0.00 Mb     (      36,    4)

     The potential is recalculated from file :
     ./silicon/_ph0/silicon.10.292.save/charge-density.dat

     Starting wfc are    8 atomic wfcs

     Band Structure Calculation
     Davidson diagonalization with overlap

     ethr =  1.25E-10,  avg # of iterations = 12.3

     total cpu time spent up to now is       11.9 secs

     End of band structure calculation

     Number of k-points >= 100: set verbosity='high' to print the bands.

     highest occupied level (ev):     6.0642

     Writing output data file silicon.10.292.save

                                                                                

     bravais-lattice index     =            2
     lattice parameter (alat)  =      10.2920  a.u.
     unit-cell volume          =     272.5457 (a.u.)^3
     number of atoms/cell      =            2
     number of atomic types    =            1
     kinetic-energy cut-off    =      30.0000  Ry
     charge density cut-off    =     240.0000  Ry
     convergence threshold     =      1.0E-16
     beta                      =       0.7000
     number of iterations used =            4
     Exchange-correlation      = SLA  PW   PBE  PBE ( 1  4  3  4 0 0)


     celldm(1)=   10.29200  celldm(2)=    0.00000  celldm(3)=    0.00000
     celldm(4)=    0.00000  celldm(5)=    0.00000  celldm(6)=    0.00000

     crystal axes: (cart. coord. in units of alat)
               a(1) = ( -0.5000  0.0000  0.5000 )  
               a(2) = (  0.0000  0.5000  0.5000 )  
               a(3) = ( -0.5000  0.5000  0.0000 )  

     reciprocal axes: (cart. coord. in units 2 pi/alat)
               b(1) = ( -1.0000 -1.0000  1.0000 )  
               b(2) = (  1.0000  1.0000  1.0000 )  
               b(3) = ( -1.0000  1.0000 -1.0000 )  


     Atoms inside the unit cell: 

     Cartesian axes

     site n.  atom      mass           positions (alat units)
        1     Si  28.0860   tau(    1) = (    0.00000    0.00000    0.00000  )
        2     Si  28.0860   tau(    2) = (    0.25000    0.25000    0.25000  )

     Computing dynamical matrix for 
                    q = (   0.0000000   0.3333333   0.0000000 )
 
      8 Sym.Ops. (no q -> -q+G )


     G cutoff =  643.9484  (   1061 G-vectors)     FFT grid: ( 36, 36, 36)
     G cutoff =  321.9742  (    375 G-vectors)  smooth grid: ( 25, 25, 25)
     number of k points=  1872

     PseudoPot. # 1 for Si read from file:
     ./si_pbe_v1.uspp.F.UPF.txt
     MD5 check sum: a056efeee980c13900f22a371efd63c1
     Pseudo is Ultrasoft + core correction, Zval =  4.0
     Generated by new atomic code, or converted to UPF format
     Using radial grid of  899 points,  6 beta functions with: 
                l(1) =   0
                l(2) =   0
                l(3) =   1
                l(4) =   1
                l(5) =   2
                l(6) =   2
     Q(r) pseudized with  8 coefficients,  rinner =    0.900   0.900   0.900
                                                       0.900   0.900

     Mode symmetry, C_4v (4mm)  point group:


     Atomic displacements:
     There are   4 irreducible representations

     Representation     1      1 modes -A_1  G_1 D_1  To be done

     Representation     2      1 modes -B_2  G_4 D_2'  To be done

     Representation     3      2 modes -E    G_5 D_5  To be done

     Representation     4      2 modes -E    G_5 D_5  To be done



     Alpha used in Ewald sum =   2.5000
     PHONON       :  2m29.00s CPU     2m47.93s WALL



     Representation #  1 mode #   1

     Self-consistent Calculation

      iter #   1 total cpu time :   168.7 secs   av.it.:   6.3
      thresh= 1.000E-02 alpha_mix =  0.700 |ddv_scf|^2 =  1.479E-03

      iter #   2 total cpu time :   169.6 secs   av.it.:   9.3
      thresh= 3.846E-03 alpha_mix =  0.700 |ddv_scf|^2 =  4.270E-02

      iter #   3 total cpu time :   170.0 secs   av.it.:   7.7
      thresh= 1.000E-02 alpha_mix =  0.700 |ddv_scf|^2 =  8.208E-08

      iter #   4 total cpu time :   170.4 secs   av.it.:   9.6
      thresh= 2.865E-05 alpha_mix =  0.700 |ddv_scf|^2 =  2.750E-09

      iter #   5 total cpu time :   170.9 secs   av.it.:   8.7
      thresh= 5.244E-06 alpha_mix =  0.700 |ddv_scf|^2 =  6.235E-10

      iter #   6 total cpu time :   171.3 secs   av.it.:   8.2
      thresh= 2.497E-06 alpha_mix =  0.700 |ddv_scf|^2 =  1.117E-13

      iter #   7 total cpu time :   171.8 secs   av.it.:  10.0
      thresh= 3.342E-08 alpha_mix =  0.700 |ddv_scf|^2 =  8.770E-14

      iter #   8 total cpu time :   172.3 secs   av.it.:   7.3
      thresh= 2.961E-08 alpha_mix =  0.700 |ddv_scf|^2 =  8.126E-17

     End of self-consistent calculation

     Convergence has been achieved 


     Representation #  2 mode #   2

     Self-consistent Calculation

      iter #   1 total cpu time :   173.6 secs   av.it.:   5.1
      thresh= 1.000E-02 alpha_mix =  0.700 |ddv_scf|^2 =  2.430E-07

      iter #   2 total cpu time :   174.9 secs   av.it.:  10.9
      thresh= 4.930E-05 alpha_mix =  0.700 |ddv_scf|^2 =  4.104E-08

      iter #   3 total cpu time :   176.5 secs   av.it.:  10.8
      thresh= 2.026E-05 alpha_mix =  0.700 |ddv_scf|^2 =  1.182E-09

      iter #   4 total cpu time :   177.0 secs   av.it.:  10.7
      thresh= 3.438E-06 alpha_mix =  0.700 |ddv_scf|^2 =  4.159E-11

      iter #   5 total cpu time :   177.4 secs   av.it.:  10.8
      thresh= 6.449E-07 alpha_mix =  0.700 |ddv_scf|^2 =  2.237E-13

      iter #   6 total cpu time :   177.9 secs   av.it.:  10.2
      thresh= 4.729E-08 alpha_mix =  0.700 |ddv_scf|^2 =  3.803E-15

      iter #   7 total cpu time :   178.4 secs   av.it.:   9.8
      thresh= 6.166E-09 alpha_mix =  0.700 |ddv_scf|^2 =  9.660E-17

     End of self-consistent calculation

     Convergence has been achieved 


     Representation #  3 modes #   3  4

     Self-consistent Calculation

      iter #   1 total cpu time :   180.2 secs   av.it.:   5.2
      thresh= 1.000E-02 alpha_mix =  0.700 |ddv_scf|^2 =  4.588E-08

      iter #   2 total cpu time :   181.2 secs   av.it.:  12.0
      thresh= 2.142E-05 alpha_mix =  0.700 |ddv_scf|^2 =  3.977E-09

      iter #   3 total cpu time :   182.1 secs   av.it.:  11.7
      thresh= 6.306E-06 alpha_mix =  0.700 |ddv_scf|^2 =  1.533E-10

      iter #   4 total cpu time :   183.0 secs   av.it.:  11.2
      thresh= 1.238E-06 alpha_mix =  0.700 |ddv_scf|^2 =  5.832E-13

      iter #   5 total cpu time :   184.0 secs   av.it.:  11.4
      thresh= 7.637E-08 alpha_mix =  0.700 |ddv_scf|^2 =  2.849E-14

      iter #   6 total cpu time :   185.3 secs   av.it.:  11.5
      thresh= 1.688E-08 alpha_mix =  0.700 |ddv_scf|^2 =  2.086E-16

      iter #   7 total cpu time :   188.9 secs   av.it.:  11.1
      thresh= 1.444E-09 alpha_mix =  0.700 |ddv_scf|^2 =  1.304E-17

     End of self-consistent calculation

     Convergence has been achieved 


     Representation #  4 modes #   5  6

     Self-consistent Calculation

      iter #   1 total cpu time :   190.5 secs   av.it.:   5.3
      thresh= 1.000E-02 alpha_mix =  0.700 |ddv_scf|^2 =  5.415E-08

      iter #   2 total cpu time :   191.5 secs   av.it.:  11.9
      thresh= 2.327E-05 alpha_mix =  0.700 |ddv_scf|^2 =  4.867E-09

      iter #   3 total cpu time :   192.5 secs   av.it.:  11.7
      thresh= 6.977E-06 alpha_mix =  0.700 |ddv_scf|^2 =  1.628E-10

      iter #   4 total cpu time :   193.5 secs   av.it.:  11.4
      thresh= 1.276E-06 alpha_mix =  0.700 |ddv_scf|^2 =  4.229E-13

      iter #   5 total cpu time :   194.5 secs   av.it.:  11.3
      thresh= 6.503E-08 alpha_mix =  0.700 |ddv_scf|^2 =  1.343E-14

      iter #   6 total cpu time :   196.3 secs   av.it.:  11.5
      thresh= 1.159E-08 alpha_mix =  0.700 |ddv_scf|^2 =  1.777E-16

      iter #   7 total cpu time :   197.3 secs   av.it.:  11.1
      thresh= 1.333E-09 alpha_mix =  0.700 |ddv_scf|^2 =  1.063E-17

     End of self-consistent calculation

     Convergence has been achieved 
 
     Number of q in the star =    6
     List of q in the star:
          1   0.000000000   0.333333333   0.000000000
          2   0.333333333   0.000000000   0.000000000
          3   0.000000000   0.000000000   0.333333333
          4   0.000000000  -0.333333333   0.000000000
          5  -0.333333333   0.000000000   0.000000000
          6   0.000000000   0.000000000  -0.333333333

     Diagonalizing the dynamical matrix

     q = (    0.000000000   0.333333333   0.000000000 ) 

 **************************************************************************
     freq (    1) =       2.965492 [THz] =      98.918165 [cm-1]
     freq (    2) =       2.965492 [THz] =      98.918165 [cm-1]
     freq (    3) =       4.917734 [THz] =     164.037940 [cm-1]
     freq (    4) =      14.503627 [THz] =     483.788934 [cm-1]
     freq (    5) =      14.503627 [THz] =     483.788934 [cm-1]
     freq (    6) =      14.994243 [THz] =     500.154107 [cm-1]
 **************************************************************************

     Mode symmetry, C_4v (4mm)  point group:

     freq (  1 -  2) =         98.9  [cm-1]   --> E    G_5 D_5       
     freq (  3 -  3) =        164.0  [cm-1]   --> A_1  G_1 D_1       
     freq (  4 -  5) =        483.8  [cm-1]   --> E    G_5 D_5       
     freq (  6 -  6) =        500.2  [cm-1]   --> B_2  G_4 D_2'      

     Calculation of q =   -0.1666667   0.5000000  -0.1666667
 
     Parallelization info
     --------------------
     sticks:   dense  smooth     PW     G-vecs:    dense   smooth      PW
     Min          54      27     10                 1060      371      87
     Max          56      28     11                 1061      380      90
     Sum         871     433    163                16961     5985    1411
 


     bravais-lattice index     =            2
     lattice parameter (alat)  =      10.2920  a.u.
     unit-cell volume          =     272.5457 (a.u.)^3
     number of atoms/cell      =            2
     number of atomic types    =            1
     number of electrons       =         8.00
     number of Kohn-Sham states=            4
     kinetic-energy cutoff     =      30.0000  Ry
     charge density cutoff     =     240.0000  Ry
     Exchange-correlation      = SLA  PW   PBE  PBE ( 1  4  3  4 0 0)

     celldm(1)=  10.292000  celldm(2)=   0.000000  celldm(3)=   0.000000
     celldm(4)=   0.000000  celldm(5)=   0.000000  celldm(6)=   0.000000

     crystal axes: (cart. coord. in units of alat)
               a(1) = (  -0.500000   0.000000   0.500000 )  
               a(2) = (   0.000000   0.500000   0.500000 )  
               a(3) = (  -0.500000   0.500000   0.000000 )  

     reciprocal axes: (cart. coord. in units 2 pi/alat)
               b(1) = ( -1.000000 -1.000000  1.000000 )  
               b(2) = (  1.000000  1.000000  1.000000 )  
               b(3) = ( -1.000000  1.000000 -1.000000 )  


     PseudoPot. # 1 for Si read from file:
     ./si_pbe_v1.uspp.F.UPF.txt
     MD5 check sum: a056efeee980c13900f22a371efd63c1
     Pseudo is Ultrasoft + core correction, Zval =  4.0
     Generated by new atomic code, or converted to UPF format
     Using radial grid of  899 points,  6 beta functions with: 
                l(1) =   0
                l(2) =   0
                l(3) =   1
                l(4) =   1
                l(5) =   2
                l(6) =   2
     Q(r) pseudized with  8 coefficients,  rinner =    0.900   0.900   0.900
                                                       0.900   0.900

     atomic species   valence    mass     pseudopotential
        Si             4.00    28.08600     Si( 1.00)

     48 Sym. Ops., with inversion, found



   Cartesian axes

     site n.     atom                  positions (alat units)
         1           Si  tau(   1) = (   0.0000000   0.0000000   0.0000000  )
         2           Si  tau(   2) = (   0.2500000   0.2500000   0.2500000  )

     number of k points=  7200

     Number of k-points >= 100: set verbosity='high' to print them.

     Dense  grid:    16961 G-vectors     FFT dimensions: (  36,  36,  36)

     Smooth grid:     5985 G-vectors     FFT dimensions: (  25,  25,  25)

     Largest allocated arrays     est. size (Mb)     dimensions
        Kohn-Sham Wavefunctions         0.00 Mb     (      55,    4)
        NL pseudopotentials             0.03 Mb     (      55,   36)
        Each V/rho on FFT grid          0.06 Mb     (    3888)
        Each G-vector array             0.01 Mb     (    1061)
        G-vector shells                 0.00 Mb     (     205)
     Largest temporary arrays     est. size (Mb)     dimensions
        Auxiliary wavefunctions         0.01 Mb     (      55,   16)
        Each subspace H/S matrix        0.00 Mb     (       8,    8)
        Each <psi_i|beta_j> matrix      0.00 Mb     (      36,    4)

     The potential is recalculated from file :
     ./silicon/_ph0/silicon.10.292.save/charge-density.dat

     Starting wfc are    8 atomic wfcs

     Band Structure Calculation
     Davidson diagonalization with overlap

     ethr =  1.25E-10,  avg # of iterations = 12.3

     total cpu time spent up to now is       22.0 secs

     End of band structure calculation

     Number of k-points >= 100: set verbosity='high' to print the bands.

     highest occupied level (ev):     6.0642

     Writing output data file silicon.10.292.save

                                                                                

     bravais-lattice index     =            2
     lattice parameter (alat)  =      10.2920  a.u.
     unit-cell volume          =     272.5457 (a.u.)^3
     number of atoms/cell      =            2
     number of atomic types    =            1
     kinetic-energy cut-off    =      30.0000  Ry
     charge density cut-off    =     240.0000  Ry
     convergence threshold     =      1.0E-16
     beta                      =       0.7000
     number of iterations used =            4
     Exchange-correlation      = SLA  PW   PBE  PBE ( 1  4  3  4 0 0)


     celldm(1)=   10.29200  celldm(2)=    0.00000  celldm(3)=    0.00000
     celldm(4)=    0.00000  celldm(5)=    0.00000  celldm(6)=    0.00000

     crystal axes: (cart. coord. in units of alat)
               a(1) = ( -0.5000  0.0000  0.5000 )  
               a(2) = (  0.0000  0.5000  0.5000 )  
               a(3) = ( -0.5000  0.5000  0.0000 )  

     reciprocal axes: (cart. coord. in units 2 pi/alat)
               b(1) = ( -1.0000 -1.0000  1.0000 )  
               b(2) = (  1.0000  1.0000  1.0000 )  
               b(3) = ( -1.0000  1.0000 -1.0000 )  


     Atoms inside the unit cell: 

     Cartesian axes

     site n.  atom      mass           positions (alat units)
        1     Si  28.0860   tau(    1) = (    0.00000    0.00000    0.00000  )
        2     Si  28.0860   tau(    2) = (    0.25000    0.25000    0.25000  )

     Computing dynamical matrix for 
                    q = (  -0.1666667   0.5000000  -0.1666667 )
 
      2 Sym.Ops. (no q -> -q+G )


     G cutoff =  643.9484  (   1061 G-vectors)     FFT grid: ( 36, 36, 36)
     G cutoff =  321.9742  (    376 G-vectors)  smooth grid: ( 25, 25, 25)
     number of k points=  7200

     PseudoPot. # 1 for Si read from file:
     ./si_pbe_v1.uspp.F.UPF.txt
     MD5 check sum: a056efeee980c13900f22a371efd63c1
     Pseudo is Ultrasoft + core correction, Zval =  4.0
     Generated by new atomic code, or converted to UPF format
     Using radial grid of  899 points,  6 beta functions with: 
                l(1) =   0
                l(2) =   0
                l(3) =   1
                l(4) =   1
                l(5) =   2
                l(6) =   2
     Q(r) pseudized with  8 coefficients,  rinner =    0.900   0.900   0.900
                                                       0.900   0.900

     Mode symmetry, C_s (m)     point group:


     Atomic displacements:
     There are   6 irreducible representations

     Representation     1      1 modes -A'  To be done

     Representation     2      1 modes -A'  To be done

     Representation     3      1 modes -A'  To be done

     Representation     4      1 modes -A'  To be done

     Representation     5      1 modes -A''  To be done

     Representation     6      1 modes -A''  To be done



     Alpha used in Ewald sum =   2.5000
     PHONON       :  3m 8.19s CPU     3m32.94s WALL



     Representation #  1 mode #   1

     Self-consistent Calculation

      iter #   1 total cpu time :   214.2 secs   av.it.:   5.8
      thresh= 1.000E-02 alpha_mix =  0.700 |ddv_scf|^2 =  3.545E-05

      iter #   2 total cpu time :   216.1 secs   av.it.:  10.3
      thresh= 5.954E-04 alpha_mix =  0.700 |ddv_scf|^2 =  3.603E-04

      iter #   3 total cpu time :   217.4 secs   av.it.:   8.3
      thresh= 1.898E-03 alpha_mix =  0.700 |ddv_scf|^2 =  6.103E-08

      iter #   4 total cpu time :   219.3 secs   av.it.:  10.9
      thresh= 2.470E-05 alpha_mix =  0.700 |ddv_scf|^2 =  2.636E-09

      iter #   5 total cpu time :   221.0 secs   av.it.:  10.8
      thresh= 5.134E-06 alpha_mix =  0.700 |ddv_scf|^2 =  1.250E-10

      iter #   6 total cpu time :   222.7 secs   av.it.:  10.9
      thresh= 1.118E-06 alpha_mix =  0.700 |ddv_scf|^2 =  4.560E-12

      iter #   7 total cpu time :   224.5 secs   av.it.:  11.0
      thresh= 2.135E-07 alpha_mix =  0.700 |ddv_scf|^2 =  4.003E-13

      iter #   8 total cpu time :   226.4 secs   av.it.:  10.7
      thresh= 6.327E-08 alpha_mix =  0.700 |ddv_scf|^2 =  1.784E-12

      iter #   9 total cpu time :   228.1 secs   av.it.:   8.8
      thresh= 1.336E-07 alpha_mix =  0.700 |ddv_scf|^2 =  3.305E-14

      iter #  10 total cpu time :   238.9 secs   av.it.:  10.0
      thresh= 1.818E-08 alpha_mix =  0.700 |ddv_scf|^2 =  3.623E-14

      iter #  11 total cpu time :   240.9 secs   av.it.:   9.7
      thresh= 1.903E-08 alpha_mix =  0.700 |ddv_scf|^2 =  2.159E-16

      iter #  12 total cpu time :   242.5 secs   av.it.:  11.0
      thresh= 1.469E-09 alpha_mix =  0.700 |ddv_scf|^2 =  6.720E-17

     End of self-consistent calculation

     Convergence has been achieved 


     Representation #  2 mode #   2

     Self-consistent Calculation

      iter #   1 total cpu time :   244.7 secs   av.it.:   6.0
      thresh= 1.000E-02 alpha_mix =  0.700 |ddv_scf|^2 =  8.346E-05

      iter #   2 total cpu time :   254.7 secs   av.it.:  10.2
      thresh= 9.136E-04 alpha_mix =  0.700 |ddv_scf|^2 =  8.683E-04

      iter #   3 total cpu time :   256.6 secs   av.it.:   8.2
      thresh= 2.947E-03 alpha_mix =  0.700 |ddv_scf|^2 =  4.101E-08

      iter #   4 total cpu time :   260.6 secs   av.it.:  11.0
      thresh= 2.025E-05 alpha_mix =  0.700 |ddv_scf|^2 =  3.848E-09

      iter #   5 total cpu time :   262.1 secs   av.it.:  10.9
      thresh= 6.203E-06 alpha_mix =  0.700 |ddv_scf|^2 =  1.250E-10

      iter #   6 total cpu time :   263.7 secs   av.it.:  11.0
      thresh= 1.118E-06 alpha_mix =  0.700 |ddv_scf|^2 =  1.021E-11

      iter #   7 total cpu time :   265.3 secs   av.it.:  10.9
      thresh= 3.195E-07 alpha_mix =  0.700 |ddv_scf|^2 =  1.877E-13

      iter #   8 total cpu time :   266.9 secs   av.it.:  10.8
      thresh= 4.333E-08 alpha_mix =  0.700 |ddv_scf|^2 =  1.242E-12

      iter #   9 total cpu time :   268.3 secs   av.it.:   8.7
      thresh= 1.115E-07 alpha_mix =  0.700 |ddv_scf|^2 =  1.519E-14

      iter #  10 total cpu time :   269.9 secs   av.it.:  10.0
      thresh= 1.232E-08 alpha_mix =  0.700 |ddv_scf|^2 =  2.035E-14

      iter #  11 total cpu time :   271.4 secs   av.it.:   9.3
      thresh= 1.427E-08 alpha_mix =  0.700 |ddv_scf|^2 =  7.864E-17

     End of self-consistent calculation

     Convergence has been achieved 


     Representation #  3 mode #   3

     Self-consistent Calculation

      iter #   1 total cpu time :   272.9 secs   av.it.:   5.9
      thresh= 1.000E-02 alpha_mix =  0.700 |ddv_scf|^2 =  6.068E-05

      iter #   2 total cpu time :   274.5 secs   av.it.:  10.3
      thresh= 7.790E-04 alpha_mix =  0.700 |ddv_scf|^2 =  6.350E-04

      iter #   3 total cpu time :   275.8 secs   av.it.:   8.2
      thresh= 2.520E-03 alpha_mix =  0.700 |ddv_scf|^2 =  5.831E-08

      iter #   4 total cpu time :   277.5 secs   av.it.:  10.9
      thresh= 2.415E-05 alpha_mix =  0.700 |ddv_scf|^2 =  3.127E-09

      iter #   5 total cpu time :   279.1 secs   av.it.:  10.8
      thresh= 5.592E-06 alpha_mix =  0.700 |ddv_scf|^2 =  1.329E-10

      iter #   6 total cpu time :   281.5 secs   av.it.:  11.0
      thresh= 1.153E-06 alpha_mix =  0.700 |ddv_scf|^2 =  8.311E-12

      iter #   7 total cpu time :   283.3 secs   av.it.:  11.0
      thresh= 2.883E-07 alpha_mix =  0.700 |ddv_scf|^2 =  9.461E-14

      iter #   8 total cpu time :   284.9 secs   av.it.:  10.8
      thresh= 3.076E-08 alpha_mix =  0.700 |ddv_scf|^2 =  5.488E-13

      iter #   9 total cpu time :   287.3 secs   av.it.:   8.7
      thresh= 7.408E-08 alpha_mix =  0.700 |ddv_scf|^2 =  6.515E-15

      iter #  10 total cpu time :   289.0 secs   av.it.:  10.4
      thresh= 8.071E-09 alpha_mix =  0.700 |ddv_scf|^2 =  4.327E-15

      iter #  11 total cpu time :   290.5 secs   av.it.:   9.1
      thresh= 6.578E-09 alpha_mix =  0.700 |ddv_scf|^2 =  8.870E-16

      iter #  12 total cpu time :   292.4 secs   av.it.:   9.4
      thresh= 2.978E-09 alpha_mix =  0.700 |ddv_scf|^2 =  3.608E-18

     End of self-consistent calculation

     Convergence has been achieved 


     Representation #  4 mode #   4

     Self-consistent Calculation

      iter #   1 total cpu time :   294.8 secs   av.it.:   5.6
      thresh= 1.000E-02 alpha_mix =  0.700 |ddv_scf|^2 =  1.266E-05

      iter #   2 total cpu time :   296.4 secs   av.it.:  10.6
      thresh= 3.558E-04 alpha_mix =  0.700 |ddv_scf|^2 =  1.268E-04

      iter #   3 total cpu time :   297.7 secs   av.it.:   8.3
      thresh= 1.126E-03 alpha_mix =  0.700 |ddv_scf|^2 =  7.098E-08

      iter #   4 total cpu time :   299.4 secs   av.it.:  10.8
      thresh= 2.664E-05 alpha_mix =  0.700 |ddv_scf|^2 =  1.444E-09

      iter #   5 total cpu time :   301.1 secs   av.it.:  11.0
      thresh= 3.799E-06 alpha_mix =  0.700 |ddv_scf|^2 =  1.279E-10

      iter #   6 total cpu time :   302.8 secs   av.it.:  11.0
      thresh= 1.131E-06 alpha_mix =  0.700 |ddv_scf|^2 =  3.789E-12

      iter #   7 total cpu time :   304.4 secs   av.it.:  11.0
      thresh= 1.946E-07 alpha_mix =  0.700 |ddv_scf|^2 =  3.912E-12

      iter #   8 total cpu time :   306.2 secs   av.it.:   9.2
      thresh= 1.978E-07 alpha_mix =  0.700 |ddv_scf|^2 =  1.768E-12

      iter #   9 total cpu time :   307.7 secs   av.it.:   9.4
      thresh= 1.329E-07 alpha_mix =  0.700 |ddv_scf|^2 =  1.296E-12

      iter #  10 total cpu time :   309.1 secs   av.it.:   9.0
      thresh= 1.139E-07 alpha_mix =  0.700 |ddv_scf|^2 =  4.063E-15

      iter #  11 total cpu time :   310.7 secs   av.it.:  11.0
      thresh= 6.375E-09 alpha_mix =  0.700 |ddv_scf|^2 =  1.380E-15

      iter #  12 total cpu time :   312.4 secs   av.it.:  10.7
      thresh= 3.715E-09 alpha_mix =  0.700 |ddv_scf|^2 =  8.754E-17

     End of self-consistent calculation

     Convergence has been achieved 


     Representation #  5 mode #   5

     Self-consistent Calculation

      iter #   1 total cpu time :   313.9 secs   av.it.:   5.3
      thresh= 1.000E-02 alpha_mix =  0.700 |ddv_scf|^2 =  2.791E-07

      iter #   2 total cpu time :   316.1 secs   av.it.:  11.0
      thresh= 5.283E-05 alpha_mix =  0.700 |ddv_scf|^2 =  3.406E-08

      iter #   3 total cpu time :   317.9 secs   av.it.:  10.8
      thresh= 1.846E-05 alpha_mix =  0.700 |ddv_scf|^2 =  7.328E-10

      iter #   4 total cpu time :   319.5 secs   av.it.:  10.5
      thresh= 2.707E-06 alpha_mix =  0.700 |ddv_scf|^2 =  1.827E-12

      iter #   5 total cpu time :   321.4 secs   av.it.:  10.6
      thresh= 1.352E-07 alpha_mix =  0.700 |ddv_scf|^2 =  9.129E-14

      iter #   6 total cpu time :   323.1 secs   av.it.:  10.6
      thresh= 3.021E-08 alpha_mix =  0.700 |ddv_scf|^2 =  8.455E-16

      iter #   7 total cpu time :   324.6 secs   av.it.:  10.3
      thresh= 2.908E-09 alpha_mix =  0.700 |ddv_scf|^2 =  3.217E-17

     End of self-consistent calculation

     Convergence has been achieved 


     Representation #  6 mode #   6

     Self-consistent Calculation

      iter #   1 total cpu time :   326.3 secs   av.it.:   5.3
      thresh= 1.000E-02 alpha_mix =  0.700 |ddv_scf|^2 =  2.791E-07

      iter #   2 total cpu time :   328.3 secs   av.it.:  11.0
      thresh= 5.283E-05 alpha_mix =  0.700 |ddv_scf|^2 =  3.406E-08

      iter #   3 total cpu time :   329.9 secs   av.it.:  10.8
      thresh= 1.846E-05 alpha_mix =  0.700 |ddv_scf|^2 =  7.328E-10

      iter #   4 total cpu time :   331.6 secs   av.it.:  10.5
      thresh= 2.707E-06 alpha_mix =  0.700 |ddv_scf|^2 =  1.827E-12

      iter #   5 total cpu time :   333.2 secs   av.it.:  10.6
      thresh= 1.352E-07 alpha_mix =  0.700 |ddv_scf|^2 =  9.130E-14

      iter #   6 total cpu time :   335.4 secs   av.it.:  10.6
      thresh= 3.022E-08 alpha_mix =  0.700 |ddv_scf|^2 =  8.456E-16

      iter #   7 total cpu time :   338.5 secs   av.it.:  10.3
      thresh= 2.908E-09 alpha_mix =  0.700 |ddv_scf|^2 =  3.219E-17

     End of self-consistent calculation

     Convergence has been achieved 
 
     Number of q in the star =   24
     List of q in the star:
          1  -0.166666667   0.500000000  -0.166666667
          2   0.166666667   0.500000000   0.166666667
          3  -0.166666667   0.500000000   0.166666667
          4   0.166666667   0.500000000  -0.166666667
          5   0.500000000  -0.166666667   0.166666667
[...]

     End of self-consistent calculation

     Convergence has been achieved 
 
     Number of q in the star =   24
     List of q in the star:
          1   0.500000000  -0.166666667   0.833333333
          2   0.833333333   0.166666667   0.500000000
          3   0.500000000   0.166666667   0.833333333
          4  -0.833333333  -0.166666667   0.500000000
          5  -0.833333333  -0.166666667  -0.500000000
          6  -0.500000000  -0.166666667  -0.833333333
          7   0.833333333  -0.166666667   0.500000000
          8  -0.500000000  -0.166666667   0.833333333
          9  -0.833333333   0.166666667   0.500000000
         10   0.833333333   0.166666667  -0.500000000
         11   0.833333333  -0.166666667  -0.500000000
         12   0.500000000   0.166666667  -0.833333333
         13  -0.500000000   0.166666667   0.833333333
         14  -0.500000000   0.166666667  -0.833333333
         15  -0.833333333   0.166666667  -0.500000000
         16   0.833333333  -0.500000000   0.166666667
         17   0.833333333   0.500000000  -0.166666667
         18  -0.833333333  -0.500000000  -0.166666667
         19  -0.833333333   0.500000000   0.166666667
         20   0.166666667  -0.500000000   0.833333333
         21  -0.166666667   0.500000000   0.833333333
         22   0.166666667   0.500000000  -0.833333333
         23  -0.166666667  -0.500000000  -0.833333333
         24  -0.500000000   0.833333333   0.166666667

     Diagonalizing the dynamical matrix

     q = (    0.500000000  -0.166666667   0.833333333 ) 

 **************************************************************************
     freq (    1) =       5.107894 [THz] =     170.381007 [cm-1]
     freq (    2) =       6.120368 [THz] =     204.153507 [cm-1]
     freq (    3) =       9.768443 [THz] =     325.840176 [cm-1]
     freq (    4) =      11.325065 [THz] =     377.763510 [cm-1]
     freq (    5) =      13.839719 [THz] =     461.643323 [cm-1]
     freq (    6) =      14.068281 [THz] =     469.267340 [cm-1]
 **************************************************************************

     Calculation of q =   -0.3333333  -1.0000000   0.0000000
 
     Parallelization info
     --------------------
     sticks:   dense  smooth     PW     G-vecs:    dense   smooth      PW
     Min          54      27     11                 1060      369      99
     Max          56      28     13                 1061      378     101
     Sum         871     433    187                16961     5985    1591
 


     bravais-lattice index     =            2
     lattice parameter (alat)  =      10.2920  a.u.
     unit-cell volume          =     272.5457 (a.u.)^3
     number of atoms/cell      =            2
     number of atomic types    =            1
     number of electrons       =         8.00
     number of Kohn-Sham states=            4
     kinetic-energy cutoff     =      30.0000  Ry
     charge density cutoff     =     240.0000  Ry
     Exchange-correlation      = SLA  PW   PBE  PBE ( 1  4  3  4 0 0)

     celldm(1)=  10.292000  celldm(2)=   0.000000  celldm(3)=   0.000000
     celldm(4)=   0.000000  celldm(5)=   0.000000  celldm(6)=   0.000000

     crystal axes: (cart. coord. in units of alat)
               a(1) = (  -0.500000   0.000000   0.500000 )  
               a(2) = (   0.000000   0.500000   0.500000 )  
               a(3) = (  -0.500000   0.500000   0.000000 )  

     reciprocal axes: (cart. coord. in units 2 pi/alat)
               b(1) = ( -1.000000 -1.000000  1.000000 )  
               b(2) = (  1.000000  1.000000  1.000000 )  
               b(3) = ( -1.000000  1.000000 -1.000000 )  


     PseudoPot. # 1 for Si read from file:
     ./si_pbe_v1.uspp.F.UPF.txt
     MD5 check sum: a056efeee980c13900f22a371efd63c1
     Pseudo is Ultrasoft + core correction, Zval =  4.0
     Generated by new atomic code, or converted to UPF format
     Using radial grid of  899 points,  6 beta functions with: 
                l(1) =   0
                l(2) =   0
                l(3) =   1
                l(4) =   1
                l(5) =   2
                l(6) =   2
     Q(r) pseudized with  8 coefficients,  rinner =    0.900   0.900   0.900
                                                       0.900   0.900

     atomic species   valence    mass     pseudopotential
        Si             4.00    28.08600     Si( 1.00)

     48 Sym. Ops., with inversion, found



   Cartesian axes

     site n.     atom                  positions (alat units)
         1           Si  tau(   1) = (   0.0000000   0.0000000   0.0000000  )
         2           Si  tau(   2) = (   0.2500000   0.2500000   0.2500000  )

     number of k points=  3456

     Number of k-points >= 100: set verbosity='high' to print them.

     Dense  grid:    16961 G-vectors     FFT dimensions: (  36,  36,  36)

     Smooth grid:     5985 G-vectors     FFT dimensions: (  25,  25,  25)

     Largest allocated arrays     est. size (Mb)     dimensions
        Kohn-Sham Wavefunctions         0.00 Mb     (      57,    4)
        NL pseudopotentials             0.03 Mb     (      57,   36)
        Each V/rho on FFT grid          0.06 Mb     (    3888)
        Each G-vector array             0.01 Mb     (    1061)
        G-vector shells                 0.00 Mb     (     205)
     Largest temporary arrays     est. size (Mb)     dimensions
        Auxiliary wavefunctions         0.01 Mb     (      57,   16)
        Each subspace H/S matrix        0.00 Mb     (       8,    8)
        Each <psi_i|beta_j> matrix      0.00 Mb     (      36,    4)

     The potential is recalculated from file :
     ./silicon/_ph0/silicon.10.292.save/charge-density.dat

     Starting wfc are    8 atomic wfcs

     Band Structure Calculation
     Davidson diagonalization with overlap

     ethr =  1.25E-10,  avg # of iterations = 12.3

     total cpu time spent up to now is      105.0 secs

     End of band structure calculation

     Number of k-points >= 100: set verbosity='high' to print the bands.

     highest occupied level (ev):     6.0642

     Writing output data file silicon.10.292.save

                                                                                

     bravais-lattice index     =            2
     lattice parameter (alat)  =      10.2920  a.u.
     unit-cell volume          =     272.5457 (a.u.)^3
     number of atoms/cell      =            2
     number of atomic types    =            1
     kinetic-energy cut-off    =      30.0000  Ry
     charge density cut-off    =     240.0000  Ry
     convergence threshold     =      1.0E-16
     beta                      =       0.7000
     number of iterations used =            4
     Exchange-correlation      = SLA  PW   PBE  PBE ( 1  4  3  4 0 0)


     celldm(1)=   10.29200  celldm(2)=    0.00000  celldm(3)=    0.00000
     celldm(4)=    0.00000  celldm(5)=    0.00000  celldm(6)=    0.00000

     crystal axes: (cart. coord. in units of alat)
               a(1) = ( -0.5000  0.0000  0.5000 )  
               a(2) = (  0.0000  0.5000  0.5000 )  
               a(3) = ( -0.5000  0.5000  0.0000 )  

     reciprocal axes: (cart. coord. in units 2 pi/alat)
               b(1) = ( -1.0000 -1.0000  1.0000 )  
               b(2) = (  1.0000  1.0000  1.0000 )  
               b(3) = ( -1.0000  1.0000 -1.0000 )  


     Atoms inside the unit cell: 

     Cartesian axes

     site n.  atom      mass           positions (alat units)
        1     Si  28.0860   tau(    1) = (    0.00000    0.00000    0.00000  )
        2     Si  28.0860   tau(    2) = (    0.25000    0.25000    0.25000  )

     Computing dynamical matrix for 
                    q = (  -0.3333333  -1.0000000   0.0000000 )
 
      4 Sym.Ops. (no q -> -q+G )


     G cutoff =  643.9484  (   1061 G-vectors)     FFT grid: ( 36, 36, 36)
     G cutoff =  321.9742  (    375 G-vectors)  smooth grid: ( 25, 25, 25)
     number of k points=  3456

     PseudoPot. # 1 for Si read from file:
     ./si_pbe_v1.uspp.F.UPF.txt
     MD5 check sum: a056efeee980c13900f22a371efd63c1
     Pseudo is Ultrasoft + core correction, Zval =  4.0
     Generated by new atomic code, or converted to UPF format
     Using radial grid of  899 points,  6 beta functions with: 
                l(1) =   0
                l(2) =   0
                l(3) =   1
                l(4) =   1
                l(5) =   2
                l(6) =   2
     Q(r) pseudized with  8 coefficients,  rinner =    0.900   0.900   0.900
                                                       0.900   0.900


     Atomic displacements:
     There are   3 irreducible representations

     Representation     1      2 modes -  To be done

     Representation     2      2 modes -  To be done

     Representation     3      2 modes -  To be done



     Alpha used in Ewald sum =   2.5000
     PHONON       : 17m12.80s CPU    19m 3.59s WALL



     Representation #  1 modes #   1  2

     Self-consistent Calculation

      iter #   1 total cpu time :  1144.8 secs   av.it.:   5.6
      thresh= 1.000E-02 alpha_mix =  0.700 |ddv_scf|^2 =  4.215E-07

      iter #   2 total cpu time :  1146.5 secs   av.it.:  12.0
      thresh= 6.493E-05 alpha_mix =  0.700 |ddv_scf|^2 =  2.245E-07

      iter #   3 total cpu time :  1148.1 secs   av.it.:  11.6
      thresh= 4.739E-05 alpha_mix =  0.700 |ddv_scf|^2 =  3.240E-09

      iter #   4 total cpu time :  1149.6 secs   av.it.:  11.5
      thresh= 5.692E-06 alpha_mix =  0.700 |ddv_scf|^2 =  4.242E-10

      iter #   5 total cpu time :  1151.2 secs   av.it.:  11.4
      thresh= 2.060E-06 alpha_mix =  0.700 |ddv_scf|^2 =  1.021E-12

      iter #   6 total cpu time :  1153.3 secs   av.it.:  11.8
      thresh= 1.011E-07 alpha_mix =  0.700 |ddv_scf|^2 =  3.612E-14

      iter #   7 total cpu time :  1155.0 secs   av.it.:  11.4
      thresh= 1.901E-08 alpha_mix =  0.700 |ddv_scf|^2 =  2.877E-15

      iter #   8 total cpu time :  1156.6 secs   av.it.:  11.4
      thresh= 5.364E-09 alpha_mix =  0.700 |ddv_scf|^2 =  2.899E-17

     End of self-consistent calculation

     Convergence has been achieved 


     Representation #  2 modes #   3  4

     Self-consistent Calculation

      iter #   1 total cpu time :  1158.1 secs   av.it.:   5.8
      thresh= 1.000E-02 alpha_mix =  0.700 |ddv_scf|^2 =  1.069E-06

      iter #   2 total cpu time :  1159.8 secs   av.it.:  11.9
      thresh= 1.034E-04 alpha_mix =  0.700 |ddv_scf|^2 =  1.312E-06

      iter #   3 total cpu time :  1162.6 secs   av.it.:  11.1
      thresh= 1.146E-04 alpha_mix =  0.700 |ddv_scf|^2 =  4.800E-09

      iter #   4 total cpu time :  1164.2 secs   av.it.:  11.6
      thresh= 6.928E-06 alpha_mix =  0.700 |ddv_scf|^2 =  2.078E-10

      iter #   5 total cpu time :  1166.1 secs   av.it.:  11.5
      thresh= 1.442E-06 alpha_mix =  0.700 |ddv_scf|^2 =  3.982E-13

      iter #   6 total cpu time :  1170.2 secs   av.it.:  11.3
      thresh= 6.310E-08 alpha_mix =  0.700 |ddv_scf|^2 =  2.065E-14

      iter #   7 total cpu time :  1172.3 secs   av.it.:  11.2
      thresh= 1.437E-08 alpha_mix =  0.700 |ddv_scf|^2 =  3.082E-16

      iter #   8 total cpu time :  1174.3 secs   av.it.:  11.9
      thresh= 1.755E-09 alpha_mix =  0.700 |ddv_scf|^2 =  1.184E-16

      iter #   9 total cpu time :  1177.6 secs   av.it.:  11.5
      thresh= 1.088E-09 alpha_mix =  0.700 |ddv_scf|^2 =  8.297E-18

     End of self-consistent calculation

     Convergence has been achieved 


     Representation #  3 modes #   5  6

     Self-consistent Calculation

      iter #   1 total cpu time :  1179.7 secs   av.it.:   5.3
      thresh= 1.000E-02 alpha_mix =  0.700 |ddv_scf|^2 =  3.814E-07

      iter #   2 total cpu time :  1181.4 secs   av.it.:  12.0
      thresh= 6.176E-05 alpha_mix =  0.700 |ddv_scf|^2 =  4.651E-07

      iter #   3 total cpu time :  1183.5 secs   av.it.:  11.2
      thresh= 6.820E-05 alpha_mix =  0.700 |ddv_scf|^2 =  2.284E-09

      iter #   4 total cpu time :  1185.2 secs   av.it.:  11.6
      thresh= 4.779E-06 alpha_mix =  0.700 |ddv_scf|^2 =  2.413E-10

      iter #   5 total cpu time :  1186.9 secs   av.it.:  11.5
      thresh= 1.553E-06 alpha_mix =  0.700 |ddv_scf|^2 =  1.817E-12

      iter #   6 total cpu time :  1189.1 secs   av.it.:  11.8
      thresh= 1.348E-07 alpha_mix =  0.700 |ddv_scf|^2 =  4.851E-14

      iter #   7 total cpu time :  1190.8 secs   av.it.:  11.5
      thresh= 2.202E-08 alpha_mix =  0.700 |ddv_scf|^2 =  2.840E-15

      iter #   8 total cpu time :  1192.6 secs   av.it.:  11.5
      thresh= 5.329E-09 alpha_mix =  0.700 |ddv_scf|^2 =  2.206E-17

     End of self-consistent calculation

     Convergence has been achieved 
 
     Number of q in the star =   12
     List of q in the star:
          1  -0.333333333  -1.000000000   0.000000000
          2   0.000000000  -1.000000000  -0.333333333
          3   0.000000000  -1.000000000   0.333333333
          4   0.333333333  -1.000000000   0.000000000
          5  -1.000000000   0.000000000  -0.333333333
          6   1.000000000   0.000000000   0.333333333
          7   0.000000000   0.333333333   1.000000000
          8   0.000000000  -0.333333333  -1.000000000
          9  -1.000000000  -0.333333333   0.000000000
         10   1.000000000   0.333333333   0.000000000
         11  -0.333333333   0.000000000   1.000000000
         12   0.333333333   0.000000000   1.000000000

     Diagonalizing the dynamical matrix

     q = (   -0.333333333  -1.000000000   0.000000000 ) 

 **************************************************************************
     freq (    1) =       5.571748 [THz] =     185.853496 [cm-1]
     freq (    2) =       5.571748 [THz] =     185.853496 [cm-1]
     freq (    3) =      10.878628 [THz] =     362.871986 [cm-1]
     freq (    4) =      10.878628 [THz] =     362.871986 [cm-1]
     freq (    5) =      13.791616 [THz] =     460.038791 [cm-1]
     freq (    6) =      13.791616 [THz] =     460.038791 [cm-1]
 **************************************************************************
 
     init_run     :      0.74s CPU      0.98s WALL (      15 calls)
     electrons    :     46.38s CPU     48.61s WALL (      15 calls)

     Called by init_run:
     wfcinit      :      0.01s CPU      0.16s WALL (      15 calls)
     potinit      :      0.13s CPU      0.18s WALL (      15 calls)

     Called by electrons:
     c_bands      :     46.37s CPU     48.60s WALL (      15 calls)
     v_of_rho     :      0.04s CPU      0.04s WALL (      16 calls)
     newd         :      0.05s CPU      0.07s WALL (      16 calls)

     Called by c_bands:
     init_us_2    :      1.79s CPU      1.99s WALL (   85138 calls)
     cegterg      :     17.47s CPU     18.06s WALL (    2692 calls)

     Called by sum_band:

     Called by *egterg:
     h_psi        :     13.59s CPU     13.88s WALL (   38934 calls)
     s_psi        :     21.33s CPU     23.27s WALL ( 1792390 calls)
     g_psi        :      0.06s CPU      0.08s WALL (   33550 calls)
     cdiaghg      :      2.83s CPU      2.97s WALL (   36242 calls)

     Called by h_psi:
     add_vuspsi   :     12.53s CPU     13.73s WALL (  878103 calls)

     General routines
     calbec       :     57.28s CPU     60.68s WALL ( 1929356 calls)
     fft          :      1.46s CPU      1.51s WALL (   15555 calls)
     ffts         :      0.68s CPU      0.78s WALL (   10518 calls)
     fftw         :    233.21s CPU    254.08s WALL ( 7850484 calls)
     interpolate  :      0.36s CPU      0.40s WALL (    1794 calls)
     davcio       :     14.92s CPU     18.06s WALL (  383081 calls)
 
     Parallel routines
     fft_scatter  :    133.72s CPU    146.04s WALL ( 7876557 calls)
 
     PHONON       : 17m58.59s CPU    19m52.83s WALL

     INITIALIZATION: 
     phq_setup    :      0.20s CPU      0.39s WALL (      16 calls)
     phq_init     :     15.08s CPU     15.75s WALL (      16 calls)
 
     phq_init     :     15.08s CPU     15.75s WALL (      16 calls)
     set_drhoc    :      0.58s CPU      0.60s WALL (      48 calls)
     init_vloc    :      0.02s CPU      0.02s WALL (      16 calls)
     init_us_1    :      0.43s CPU      0.44s WALL (      16 calls)
     newd         :      0.05s CPU      0.07s WALL (      16 calls)
     dvanqq       :      0.50s CPU      0.50s WALL (      16 calls)
     drho         :      5.98s CPU      6.22s WALL (      16 calls)
 
     DYNAMICAL MATRIX:
     dynmat0      :      1.99s CPU      2.20s WALL (      16 calls)
     phqscf       :    975.88s CPU   1053.79s WALL (      16 calls)
     dynmatrix    :      0.71s CPU      0.97s WALL (      16 calls)
 
     phqscf       :    975.88s CPU   1053.79s WALL (      16 calls)
     solve_linter :    973.26s CPU   1047.15s WALL (      76 calls)
     drhodv       :      2.31s CPU      2.72s WALL (      76 calls)
 
     dynmat0      :      1.99s CPU      2.20s WALL (      16 calls)
     dynmat_us    :      1.52s CPU      1.60s WALL (      16 calls)
     d2ionq       :      0.00s CPU      0.01s WALL (      16 calls)
     dynmatcc     :      0.43s CPU      0.43s WALL (      16 calls)
 
     dynmat_us    :      1.52s CPU      1.60s WALL (      16 calls)
     addusdynmat  :      0.00s CPU      0.00s WALL (      16 calls)
 
     phqscf       :    975.88s CPU   1053.79s WALL (      16 calls)
     solve_linter :    973.26s CPU   1047.15s WALL (      76 calls)
 
     solve_linter :    973.26s CPU   1047.15s WALL (      76 calls)
     dvqpsi_us    :      5.16s CPU      5.79s WALL (    8172 calls)
     ortho        :      5.48s CPU      6.02s WALL (   75094 calls)
     cgsolve      :    341.67s CPU    372.55s WALL (   75094 calls)
     incdrhoscf   :     25.35s CPU     26.98s WALL (   75094 calls)
     addusddens   :      3.46s CPU      3.56s WALL (     750 calls)
     vpsifft      :     17.07s CPU     18.74s WALL (   66778 calls)
     dv_of_drho   :      1.01s CPU      1.01s WALL (     835 calls)
     mix_pot      :      3.48s CPU     14.45s WALL (     681 calls)
     psymdvscf    :     10.44s CPU     10.51s WALL (     674 calls)
     newdq        :      3.56s CPU      3.56s WALL (     681 calls)
     adddvscf     :      1.40s CPU      1.48s WALL (   66922 calls)
     drhodvus     :      0.04s CPU      0.05s WALL (      76 calls)
 
     dvqpsi_us    :      5.16s CPU      5.79s WALL (    8172 calls)
     dvqpsi_us_on :      2.78s CPU      2.94s WALL (    8172 calls)
 
     cgsolve      :    341.67s CPU    372.55s WALL (   75094 calls)
     ch_psi       :    314.62s CPU    342.99s WALL (  839169 calls)
 
     ch_psi       :    314.62s CPU    342.99s WALL (  839169 calls)
     h_psiq       :    258.56s CPU    282.99s WALL (  839169 calls)
     last         :     53.44s CPU     57.08s WALL (  839169 calls)
 
     h_psiq       :    258.56s CPU    282.99s WALL (  839169 calls)
     firstfft     :    107.22s CPU    118.19s WALL ( 3148812 calls)
     secondfft    :     93.78s CPU    102.16s WALL ( 3148812 calls)
     add_vuspsi   :     12.53s CPU     13.73s WALL (  878103 calls)
 
     incdrhoscf   :     25.35s CPU     26.98s WALL (   75094 calls)
     addusdbec    :      3.18s CPU      3.44s WALL (   83218 calls)
 
     drhodvus     :      0.04s CPU      0.05s WALL (      76 calls)
 
      General routines
     calbec       :     57.28s CPU     60.68s WALL ( 1929356 calls)
     fft          :      1.46s CPU      1.51s WALL (   15555 calls)
     ffts         :      0.68s CPU      0.78s WALL (   10518 calls)
     fftw         :    233.21s CPU    254.08s WALL ( 7850484 calls)
     davcio       :     14.92s CPU     18.06s WALL (  383081 calls)
     write_rec    :      3.23s CPU     28.39s WALL (     757 calls)
 
 
     PHONON       : 17m58.59s CPU    19m52.83s WALL

 
   This run was terminated on:  13:16:55   7Apr2018            

=------------------------------------------------------------------------------=
   JOB DONE.
=------------------------------------------------------------------------------=
Application 30445753 resources: utime ~431454s, stime ~14794s, Rss ~32952, inblocks ~1040634073, outblocks ~476883731
