
     Program PHONON v.5.4.0 starts on  7Apr2018 at 12:37:11 

     This program is part of the open-source Quantum ESPRESSO suite
     for quantum simulation of materials; please cite
         "P. Giannozzi et al., J. Phys.:Condens. Matter 21 395502 (2009);
          URL http://www.quantum-espresso.org", 
     in publications or presentations arising from this work. More details at
     http://www.quantum-espresso.org/quote

     Parallel version (MPI & OpenMP), running on     384 processor cores
     Number of MPI processes:               384
     Threads/MPI process:                     1
     K-points division:     npool     =      24
     R & G space division:  proc/nbgrp/npool/nimage =      16

     Reading data from directory:
     ./silicon/silicon.10.280.save

   Info: using nr1, nr2, nr3 values from input

   Info: using nr1, nr2, nr3 values from input

     IMPORTANT: XC functional enforced from input :
     Exchange-correlation      = SLA  PW   PBE  PBE ( 1  4  3  4 0 0)
     Any further DFT definition will be discarded
     Please, verify this is what you really want

 
     Parallelization info
     --------------------
     sticks:   dense  smooth     PW     G-vecs:    dense   smooth      PW
     Min          53      27      9                 1054      368      76
     Max          54      28     10                 1057      377      79
     Sum         859     433    151                16889     5985    1243
 


     Dynamical matrices for ( 6, 6, 6)  uniform grid of q-points
     (  16q-points):
       N         xq(1)         xq(2)         xq(3) 
       1   0.000000000   0.000000000   0.000000000
       2  -0.166666667   0.166666667  -0.166666667
       3  -0.333333333   0.333333333  -0.333333333
       4   0.500000000  -0.500000000   0.500000000
       5   0.000000000   0.333333333   0.000000000
       6  -0.166666667   0.500000000  -0.166666667
       7   0.666666667  -0.333333333   0.666666667
       8   0.500000000  -0.166666667   0.500000000
       9   0.333333333   0.000000000   0.333333333
      10   0.000000000   0.666666667   0.000000000
      11   0.833333333  -0.166666667   0.833333333
      12   0.666666667  -0.000000000   0.666666667
      13   0.000000000  -1.000000000   0.000000000
      14   0.666666667  -0.333333333   1.000000000
      15   0.500000000  -0.166666667   0.833333333
      16  -0.333333333  -1.000000000   0.000000000

     Calculation of q =    0.0000000   0.0000000   0.0000000

                                                                                

     bravais-lattice index     =            2
     lattice parameter (alat)  =      10.2800  a.u.
     unit-cell volume          =     271.5935 (a.u.)^3
     number of atoms/cell      =            2
     number of atomic types    =            1
     kinetic-energy cut-off    =      30.0000  Ry
     charge density cut-off    =     240.0000  Ry
     convergence threshold     =      1.0E-16
     beta                      =       0.7000
     number of iterations used =            4
     Exchange-correlation      = SLA  PW   PBE  PBE ( 1  4  3  4 0 0)


     celldm(1)=   10.28000  celldm(2)=    0.00000  celldm(3)=    0.00000
     celldm(4)=    0.00000  celldm(5)=    0.00000  celldm(6)=    0.00000

     crystal axes: (cart. coord. in units of alat)
               a(1) = ( -0.5000  0.0000  0.5000 )  
               a(2) = (  0.0000  0.5000  0.5000 )  
               a(3) = ( -0.5000  0.5000  0.0000 )  

     reciprocal axes: (cart. coord. in units 2 pi/alat)
               b(1) = ( -1.0000 -1.0000  1.0000 )  
               b(2) = (  1.0000  1.0000  1.0000 )  
               b(3) = ( -1.0000  1.0000 -1.0000 )  


     Atoms inside the unit cell: 

     Cartesian axes

     site n.  atom      mass           positions (alat units)
        1     Si  28.0860   tau(    1) = (    0.00000    0.00000    0.00000  )
        2     Si  28.0860   tau(    2) = (    0.25000    0.25000    0.25000  )

     Computing dynamical matrix for 
                    q = (   0.0000000   0.0000000   0.0000000 )
 
     49 Sym.Ops. (with q -> -q+G )


     G cutoff =  642.4476  (   1057 G-vectors)     FFT grid: ( 36, 36, 36)
     G cutoff =  321.2238  (    372 G-vectors)  smooth grid: ( 25, 25, 25)
     number of k points=   182

     PseudoPot. # 1 for Si read from file:
     ./si_pbe_v1.uspp.F.UPF.txt
     MD5 check sum: a056efeee980c13900f22a371efd63c1
     Pseudo is Ultrasoft + core correction, Zval =  4.0
     Generated by new atomic code, or converted to UPF format
     Using radial grid of  899 points,  6 beta functions with: 
                l(1) =   0
                l(2) =   0
                l(3) =   1
                l(4) =   1
                l(5) =   2
                l(6) =   2
     Q(r) pseudized with  8 coefficients,  rinner =    0.900   0.900   0.900
                                                       0.900   0.900

     Mode symmetry, O_h (m-3m)  point group:


     Electric field:
     Dielectric constant
     Born effective charges in two ways 


     Atomic displacements:
     There are   2 irreducible representations

     Representation     1      3 modes -T_2g G_25' G_5+  To be done

     Representation     2      3 modes -T_1u G_15  G_4-  To be done



     Alpha used in Ewald sum =   2.5000
     PHONON       :     2.02s CPU         2.81s WALL


     Electric Fields Calculation

      iter #   1 total cpu time :     3.5 secs   av.it.:   6.4
      thresh= 1.000E-02 alpha_mix =  0.700 |ddv_scf|^2 =  7.599E-08

      iter #   2 total cpu time :     4.1 secs   av.it.:  12.2
      thresh= 2.757E-05 alpha_mix =  0.700 |ddv_scf|^2 =  4.271E-09

      iter #   3 total cpu time :     4.5 secs   av.it.:  12.0
      thresh= 6.535E-06 alpha_mix =  0.700 |ddv_scf|^2 =  2.694E-10

      iter #   4 total cpu time :     4.9 secs   av.it.:  11.3
      thresh= 1.641E-06 alpha_mix =  0.700 |ddv_scf|^2 =  1.702E-12

      iter #   5 total cpu time :     5.4 secs   av.it.:  11.3
      thresh= 1.304E-07 alpha_mix =  0.700 |ddv_scf|^2 =  1.611E-15

      iter #   6 total cpu time :     6.0 secs   av.it.:  11.2
      thresh= 4.014E-09 alpha_mix =  0.700 |ddv_scf|^2 =  1.074E-16

      iter #   7 total cpu time :     6.5 secs   av.it.:  11.7
      thresh= 1.036E-09 alpha_mix =  0.700 |ddv_scf|^2 =  1.613E-19

     End of electric fields calculation

          Dielectric constant in cartesian axis 

          (      12.912868401      -0.000000000       0.000000000 )
          (      -0.000000000      12.912868401      -0.000000000 )
          (       0.000000000      -0.000000000      12.912868401 )

          Effective charges (d Force / dE) in cartesian axis

           atom      1   Si 
      Ex  (        0.01858       -0.00000       -0.00000 )
      Ey  (       -0.00000        0.01858        0.00000 )
      Ez  (       -0.00000        0.00000        0.01858 )
           atom      2   Si 
      Ex  (        0.01858       -0.00000        0.00000 )
      Ey  (       -0.00000        0.01858        0.00000 )
      Ez  (       -0.00000       -0.00000        0.01858 )


     Representation #  1 modes #   1  2  3

     Self-consistent Calculation

      iter #   1 total cpu time :     7.4 secs   av.it.:   5.1
      thresh= 1.000E-02 alpha_mix =  0.700 |ddv_scf|^2 =  1.324E-08

      iter #   2 total cpu time :     7.9 secs   av.it.:  12.0
      thresh= 1.151E-05 alpha_mix =  0.700 |ddv_scf|^2 =  5.444E-10

      iter #   3 total cpu time :     8.4 secs   av.it.:  11.8
      thresh= 2.333E-06 alpha_mix =  0.700 |ddv_scf|^2 =  3.701E-11

      iter #   4 total cpu time :     8.9 secs   av.it.:  10.9
      thresh= 6.083E-07 alpha_mix =  0.700 |ddv_scf|^2 =  9.053E-14

      iter #   5 total cpu time :     9.4 secs   av.it.:  11.8
      thresh= 3.009E-08 alpha_mix =  0.700 |ddv_scf|^2 =  7.720E-16

      iter #   6 total cpu time :     9.9 secs   av.it.:  11.7
      thresh= 2.778E-09 alpha_mix =  0.700 |ddv_scf|^2 =  1.245E-17

     End of self-consistent calculation

     Convergence has been achieved 


     Representation #  2 modes #   4  5  6

     Self-consistent Calculation

      iter #   1 total cpu time :    10.7 secs   av.it.:   5.2
      thresh= 1.000E-02 alpha_mix =  0.700 |ddv_scf|^2 =  1.047E-08

      iter #   2 total cpu time :    11.2 secs   av.it.:  12.0
      thresh= 1.023E-05 alpha_mix =  0.700 |ddv_scf|^2 =  6.185E-10

      iter #   3 total cpu time :    11.7 secs   av.it.:  11.7
      thresh= 2.487E-06 alpha_mix =  0.700 |ddv_scf|^2 =  3.821E-11

      iter #   4 total cpu time :    12.2 secs   av.it.:  11.7
      thresh= 6.181E-07 alpha_mix =  0.700 |ddv_scf|^2 =  1.472E-13

      iter #   5 total cpu time :    12.7 secs   av.it.:  11.5
      thresh= 3.837E-08 alpha_mix =  0.700 |ddv_scf|^2 =  3.658E-16

      iter #   6 total cpu time :    13.3 secs   av.it.:  12.0
      thresh= 1.913E-09 alpha_mix =  0.700 |ddv_scf|^2 =  3.004E-17

     End of self-consistent calculation

     Convergence has been achieved 
 
     Number of q in the star =    1
     List of q in the star:
          1   0.000000000   0.000000000   0.000000000

          Dielectric constant in cartesian axis 

          (      12.912868401      -0.000000000       0.000000000 )
          (      -0.000000000      12.912868401      -0.000000000 )
          (       0.000000000      -0.000000000      12.912868401 )

          Effective charges (d Force / dE) in cartesian axis

           atom      1   Si 
      Ex  (        0.01858       -0.00000       -0.00000 )
      Ey  (       -0.00000        0.01858        0.00000 )
      Ez  (       -0.00000        0.00000        0.01858 )
           atom      2   Si 
      Ex  (        0.01858       -0.00000        0.00000 )
      Ey  (       -0.00000        0.01858        0.00000 )
      Ez  (       -0.00000       -0.00000        0.01858 )

          Effective charges (d P / du) in cartesian axis 

           atom      1   Si 
      Px  (       -0.00054        0.00000        0.00000 )
      Py  (       -0.00000       -0.00054        0.00000 )
      Pz  (        0.00000        0.00000       -0.00054 )
           atom      2   Si 
      Px  (       -0.00054       -0.00000        0.00000 )
      Py  (       -0.00000       -0.00054        0.00000 )
      Pz  (       -0.00000        0.00000       -0.00054 )

     Diagonalizing the dynamical matrix

     q = (    0.000000000   0.000000000   0.000000000 ) 

 **************************************************************************
     freq (    1) =      -0.108620 [THz] =      -3.623188 [cm-1]
     freq (    2) =      -0.108620 [THz] =      -3.623188 [cm-1]
     freq (    3) =      -0.108620 [THz] =      -3.623188 [cm-1]
     freq (    4) =      15.313423 [THz] =     510.800820 [cm-1]
     freq (    5) =      15.313423 [THz] =     510.800820 [cm-1]
     freq (    6) =      15.313423 [THz] =     510.800820 [cm-1]
 **************************************************************************

     Mode symmetry, O_h (m-3m)  point group:

     freq (  1 -  3) =         -3.6  [cm-1]   --> T_1u G_15  G_4- I  
     freq (  4 -  6) =        510.8  [cm-1]   --> T_2g G_25' G_5+ R  

     Calculation of q =   -0.1666667   0.1666667  -0.1666667
 
     Parallelization info
     --------------------
     sticks:   dense  smooth     PW     G-vecs:    dense   smooth      PW
     Min          53      27     10                 1054      369      80
     Max          54      28     11                 1057      379      82
     Sum         859     433    163                16889     5985    1291
 


     bravais-lattice index     =            2
     lattice parameter (alat)  =      10.2800  a.u.
     unit-cell volume          =     271.5935 (a.u.)^3
     number of atoms/cell      =            2
     number of atomic types    =            1
     number of electrons       =         8.00
     number of Kohn-Sham states=            4
     kinetic-energy cutoff     =      30.0000  Ry
     charge density cutoff     =     240.0000  Ry
     Exchange-correlation      = SLA  PW   PBE  PBE ( 1  4  3  4 0 0)

     celldm(1)=  10.280000  celldm(2)=   0.000000  celldm(3)=   0.000000
     celldm(4)=   0.000000  celldm(5)=   0.000000  celldm(6)=   0.000000

     crystal axes: (cart. coord. in units of alat)
               a(1) = (  -0.500000   0.000000   0.500000 )  
               a(2) = (   0.000000   0.500000   0.500000 )  
               a(3) = (  -0.500000   0.500000   0.000000 )  

     reciprocal axes: (cart. coord. in units 2 pi/alat)
               b(1) = ( -1.000000 -1.000000  1.000000 )  
               b(2) = (  1.000000  1.000000  1.000000 )  
               b(3) = ( -1.000000  1.000000 -1.000000 )  


     PseudoPot. # 1 for Si read from file:
     ./si_pbe_v1.uspp.F.UPF.txt
     MD5 check sum: a056efeee980c13900f22a371efd63c1
     Pseudo is Ultrasoft + core correction, Zval =  4.0
     Generated by new atomic code, or converted to UPF format
     Using radial grid of  899 points,  6 beta functions with: 
                l(1) =   0
                l(2) =   0
                l(3) =   1
                l(4) =   1
                l(5) =   2
                l(6) =   2
     Q(r) pseudized with  8 coefficients,  rinner =    0.900   0.900   0.900
                                                       0.900   0.900

     atomic species   valence    mass     pseudopotential
        Si             4.00    28.08600     Si( 1.00)

     48 Sym. Ops., with inversion, found



   Cartesian axes

     site n.     atom                  positions (alat units)
         1           Si  tau(   1) = (   0.0000000   0.0000000   0.0000000  )
         2           Si  tau(   2) = (   0.2500000   0.2500000   0.2500000  )

     number of k points=  2600

     Number of k-points >= 100: set verbosity='high' to print them.

     Dense  grid:    16889 G-vectors     FFT dimensions: (  36,  36,  36)

     Smooth grid:     5985 G-vectors     FFT dimensions: (  25,  25,  25)

     Largest allocated arrays     est. size (Mb)     dimensions
        Kohn-Sham Wavefunctions         0.00 Mb     (      53,    4)
        NL pseudopotentials             0.03 Mb     (      53,   36)
        Each V/rho on FFT grid          0.06 Mb     (    3888)
        Each G-vector array             0.01 Mb     (    1057)
        G-vector shells                 0.00 Mb     (     200)
     Largest temporary arrays     est. size (Mb)     dimensions
        Auxiliary wavefunctions         0.01 Mb     (      53,   16)
        Each subspace H/S matrix        0.00 Mb     (       8,    8)
        Each <psi_i|beta_j> matrix      0.00 Mb     (      36,    4)

     The potential is recalculated from file :
     ./silicon/_ph0/silicon.10.280.save/charge-density.dat

     Starting wfc are    8 atomic wfcs

     Band Structure Calculation
     Davidson diagonalization with overlap

     ethr =  1.25E-10,  avg # of iterations = 12.3

     total cpu time spent up to now is        1.6 secs

     End of band structure calculation

     Number of k-points >= 100: set verbosity='high' to print the bands.

     highest occupied level (ev):     6.1003

     Writing output data file silicon.10.280.save

                                                                                

     bravais-lattice index     =            2
     lattice parameter (alat)  =      10.2800  a.u.
     unit-cell volume          =     271.5935 (a.u.)^3
     number of atoms/cell      =            2
     number of atomic types    =            1
     kinetic-energy cut-off    =      30.0000  Ry
     charge density cut-off    =     240.0000  Ry
     convergence threshold     =      1.0E-16
     beta                      =       0.7000
     number of iterations used =            4
     Exchange-correlation      = SLA  PW   PBE  PBE ( 1  4  3  4 0 0)


     celldm(1)=   10.28000  celldm(2)=    0.00000  celldm(3)=    0.00000
     celldm(4)=    0.00000  celldm(5)=    0.00000  celldm(6)=    0.00000

     crystal axes: (cart. coord. in units of alat)
               a(1) = ( -0.5000  0.0000  0.5000 )  
               a(2) = (  0.0000  0.5000  0.5000 )  
               a(3) = ( -0.5000  0.5000  0.0000 )  

     reciprocal axes: (cart. coord. in units 2 pi/alat)
               b(1) = ( -1.0000 -1.0000  1.0000 )  
               b(2) = (  1.0000  1.0000  1.0000 )  
               b(3) = ( -1.0000  1.0000 -1.0000 )  


     Atoms inside the unit cell: 

     Cartesian axes

     site n.  atom      mass           positions (alat units)
        1     Si  28.0860   tau(    1) = (    0.00000    0.00000    0.00000  )
        2     Si  28.0860   tau(    2) = (    0.25000    0.25000    0.25000  )

     Computing dynamical matrix for 
                    q = (  -0.1666667   0.1666667  -0.1666667 )
 
      6 Sym.Ops. (no q -> -q+G )


     G cutoff =  642.4476  (   1057 G-vectors)     FFT grid: ( 36, 36, 36)
     G cutoff =  321.2238  (    373 G-vectors)  smooth grid: ( 25, 25, 25)
     number of k points=  2600

     PseudoPot. # 1 for Si read from file:
     ./si_pbe_v1.uspp.F.UPF.txt
     MD5 check sum: a056efeee980c13900f22a371efd63c1
     Pseudo is Ultrasoft + core correction, Zval =  4.0
     Generated by new atomic code, or converted to UPF format
     Using radial grid of  899 points,  6 beta functions with: 
                l(1) =   0
                l(2) =   0
                l(3) =   1
                l(4) =   1
                l(5) =   2
                l(6) =   2
     Q(r) pseudized with  8 coefficients,  rinner =    0.900   0.900   0.900
                                                       0.900   0.900

     Mode symmetry, C_3v (3m)   point group:


     Atomic displacements:
     There are   4 irreducible representations

     Representation     1      1 modes -A_1  L_1  To be done

     Representation     2      1 modes -A_1  L_1  To be done

     Representation     3      2 modes -E    L_3  To be done

     Representation     4      2 modes -E    L_3  To be done



     Alpha used in Ewald sum =   2.5000
     PHONON       :    16.78s CPU        21.15s WALL



     Representation #  1 mode #   1

     Self-consistent Calculation

      iter #   1 total cpu time :    21.7 secs   av.it.:   6.1
      thresh= 1.000E-02 alpha_mix =  0.700 |ddv_scf|^2 =  1.102E-03

      iter #   2 total cpu time :    22.7 secs   av.it.:   9.1
      thresh= 3.319E-03 alpha_mix =  0.700 |ddv_scf|^2 =  3.402E-02

      iter #   3 total cpu time :    23.1 secs   av.it.:   7.2
      thresh= 1.000E-02 alpha_mix =  0.700 |ddv_scf|^2 =  3.405E-07

      iter #   4 total cpu time :    23.7 secs   av.it.:   9.8
      thresh= 5.835E-05 alpha_mix =  0.700 |ddv_scf|^2 =  6.149E-09

      iter #   5 total cpu time :    24.2 secs   av.it.:  10.4
      thresh= 7.841E-06 alpha_mix =  0.700 |ddv_scf|^2 =  9.636E-10

      iter #   6 total cpu time :    25.6 secs   av.it.:   9.5
      thresh= 3.104E-06 alpha_mix =  0.700 |ddv_scf|^2 =  1.397E-09

      iter #   7 total cpu time :    26.1 secs   av.it.:   7.1
      thresh= 3.738E-06 alpha_mix =  0.700 |ddv_scf|^2 =  5.942E-11

      iter #   8 total cpu time :    26.5 secs   av.it.:   8.9
      thresh= 7.708E-07 alpha_mix =  0.700 |ddv_scf|^2 =  1.154E-12

      iter #   9 total cpu time :    27.0 secs   av.it.:   8.2
      thresh= 1.074E-07 alpha_mix =  0.700 |ddv_scf|^2 =  4.135E-14

      iter #  10 total cpu time :    27.5 secs   av.it.:   8.9
      thresh= 2.033E-08 alpha_mix =  0.700 |ddv_scf|^2 =  9.797E-15

      iter #  11 total cpu time :    27.9 secs   av.it.:   9.2
      thresh= 9.898E-09 alpha_mix =  0.700 |ddv_scf|^2 =  4.622E-16

      iter #  12 total cpu time :    28.5 secs   av.it.:   9.7
      thresh= 2.150E-09 alpha_mix =  0.700 |ddv_scf|^2 =  1.094E-17

     End of self-consistent calculation

     Convergence has been achieved 


     Representation #  2 mode #   2

     Self-consistent Calculation

      iter #   1 total cpu time :    30.1 secs   av.it.:   6.1
      thresh= 1.000E-02 alpha_mix =  0.700 |ddv_scf|^2 =  1.102E-03

      iter #   2 total cpu time :    30.6 secs   av.it.:   9.1
      thresh= 3.319E-03 alpha_mix =  0.700 |ddv_scf|^2 =  3.402E-02

      iter #   3 total cpu time :    31.0 secs   av.it.:   7.2
      thresh= 1.000E-02 alpha_mix =  0.700 |ddv_scf|^2 =  3.405E-07

      iter #   4 total cpu time :    31.5 secs   av.it.:   9.8
      thresh= 5.835E-05 alpha_mix =  0.700 |ddv_scf|^2 =  6.149E-09

      iter #   5 total cpu time :    32.1 secs   av.it.:  10.4
      thresh= 7.841E-06 alpha_mix =  0.700 |ddv_scf|^2 =  9.636E-10

      iter #   6 total cpu time :    32.6 secs   av.it.:   9.5
      thresh= 3.104E-06 alpha_mix =  0.700 |ddv_scf|^2 =  1.397E-09

      iter #   7 total cpu time :    33.1 secs   av.it.:   7.1
      thresh= 3.738E-06 alpha_mix =  0.700 |ddv_scf|^2 =  5.942E-11

      iter #   8 total cpu time :    33.6 secs   av.it.:   8.9
      thresh= 7.708E-07 alpha_mix =  0.700 |ddv_scf|^2 =  1.154E-12

      iter #   9 total cpu time :    34.1 secs   av.it.:   8.2
      thresh= 1.074E-07 alpha_mix =  0.700 |ddv_scf|^2 =  4.135E-14

      iter #  10 total cpu time :    34.5 secs   av.it.:   8.9
      thresh= 2.033E-08 alpha_mix =  0.700 |ddv_scf|^2 =  9.797E-15

      iter #  11 total cpu time :    35.6 secs   av.it.:   9.2
      thresh= 9.898E-09 alpha_mix =  0.700 |ddv_scf|^2 =  4.622E-16

      iter #  12 total cpu time :    36.1 secs   av.it.:   9.7
      thresh= 2.150E-09 alpha_mix =  0.700 |ddv_scf|^2 =  1.094E-17

     End of self-consistent calculation

     Convergence has been achieved 


     Representation #  3 modes #   3  4

     Self-consistent Calculation

      iter #   1 total cpu time :    37.1 secs   av.it.:   5.3
      thresh= 1.000E-02 alpha_mix =  0.700 |ddv_scf|^2 =  3.224E-08

      iter #   2 total cpu time :    38.3 secs   av.it.:  11.8
      thresh= 1.796E-05 alpha_mix =  0.700 |ddv_scf|^2 =  1.825E-09

      iter #   3 total cpu time :    39.5 secs   av.it.:  11.5
      thresh= 4.272E-06 alpha_mix =  0.700 |ddv_scf|^2 =  1.109E-10

      iter #   4 total cpu time :    40.6 secs   av.it.:  11.2
      thresh= 1.053E-06 alpha_mix =  0.700 |ddv_scf|^2 =  4.694E-13

      iter #   5 total cpu time :    42.3 secs   av.it.:  11.6
      thresh= 6.852E-08 alpha_mix =  0.700 |ddv_scf|^2 =  3.086E-14

      iter #   6 total cpu time :    43.4 secs   av.it.:  11.4
      thresh= 1.757E-08 alpha_mix =  0.700 |ddv_scf|^2 =  1.750E-16

      iter #   7 total cpu time :    44.6 secs   av.it.:  10.9
      thresh= 1.323E-09 alpha_mix =  0.700 |ddv_scf|^2 =  1.466E-17

     End of self-consistent calculation

     Convergence has been achieved 


     Representation #  4 modes #   5  6

     Self-consistent Calculation

      iter #   1 total cpu time :    45.8 secs   av.it.:   5.3
      thresh= 1.000E-02 alpha_mix =  0.700 |ddv_scf|^2 =  3.225E-08

      iter #   2 total cpu time :    47.0 secs   av.it.:  12.0
      thresh= 1.796E-05 alpha_mix =  0.700 |ddv_scf|^2 =  1.826E-09

      iter #   3 total cpu time :    48.2 secs   av.it.:  11.8
      thresh= 4.273E-06 alpha_mix =  0.700 |ddv_scf|^2 =  1.109E-10

      iter #   4 total cpu time :    49.3 secs   av.it.:  11.5
      thresh= 1.053E-06 alpha_mix =  0.700 |ddv_scf|^2 =  4.693E-13

      iter #   5 total cpu time :    50.4 secs   av.it.:  11.8
      thresh= 6.851E-08 alpha_mix =  0.700 |ddv_scf|^2 =  3.084E-14

      iter #   6 total cpu time :    51.5 secs   av.it.:  11.7
      thresh= 1.756E-08 alpha_mix =  0.700 |ddv_scf|^2 =  1.745E-16

      iter #   7 total cpu time :    52.6 secs   av.it.:  11.1
      thresh= 1.321E-09 alpha_mix =  0.700 |ddv_scf|^2 =  1.462E-17

     End of self-consistent calculation

     Convergence has been achieved 
 
     Number of q in the star =    8
     List of q in the star:
          1  -0.166666667   0.166666667  -0.166666667
          2   0.166666667   0.166666667   0.166666667
          3  -0.166666667  -0.166666667  -0.166666667
          4   0.166666667  -0.166666667   0.166666667
          5   0.166666667  -0.166666667  -0.166666667
          6   0.166666667   0.166666667  -0.166666667
          7  -0.166666667  -0.166666667   0.166666667
          8  -0.166666667   0.166666667   0.166666667

     Diagonalizing the dynamical matrix

     q = (   -0.166666667   0.166666667  -0.166666667 ) 

 **************************************************************************
     freq (    1) =       2.216418 [THz] =      73.931761 [cm-1]
     freq (    2) =       2.216418 [THz] =      73.931761 [cm-1]
     freq (    3) =       4.728656 [THz] =     157.730984 [cm-1]
     freq (    4) =      14.926722 [THz] =     497.901848 [cm-1]
     freq (    5) =      14.960105 [THz] =     499.015404 [cm-1]
     freq (    6) =      14.960105 [THz] =     499.015404 [cm-1]
 **************************************************************************

     Mode symmetry, C_3v (3m)   point group:

     freq (  1 -  2) =         73.9  [cm-1]   --> E    L_3           
     freq (  3 -  3) =        157.7  [cm-1]   --> A_1  L_1           
     freq (  4 -  4) =        497.9  [cm-1]   --> A_1  L_1           
     freq (  5 -  6) =        499.0  [cm-1]   --> E    L_3           

     Calculation of q =   -0.3333333   0.3333333  -0.3333333
 
     Parallelization info
     --------------------
     sticks:   dense  smooth     PW     G-vecs:    dense   smooth      PW
     Min          53      27     10                 1054      370      87
     Max          54      28     11                 1057      379      90
     Sum         859     433    163                16889     5985    1411
 


     bravais-lattice index     =            2
     lattice parameter (alat)  =      10.2800  a.u.
     unit-cell volume          =     271.5935 (a.u.)^3
     number of atoms/cell      =            2
     number of atomic types    =            1
     number of electrons       =         8.00
     number of Kohn-Sham states=            4
     kinetic-energy cutoff     =      30.0000  Ry
     charge density cutoff     =     240.0000  Ry
     Exchange-correlation      = SLA  PW   PBE  PBE ( 1  4  3  4 0 0)

     celldm(1)=  10.280000  celldm(2)=   0.000000  celldm(3)=   0.000000
     celldm(4)=   0.000000  celldm(5)=   0.000000  celldm(6)=   0.000000

     crystal axes: (cart. coord. in units of alat)
               a(1) = (  -0.500000   0.000000   0.500000 )  
               a(2) = (   0.000000   0.500000   0.500000 )  
               a(3) = (  -0.500000   0.500000   0.000000 )  

     reciprocal axes: (cart. coord. in units 2 pi/alat)
               b(1) = ( -1.000000 -1.000000  1.000000 )  
               b(2) = (  1.000000  1.000000  1.000000 )  
               b(3) = ( -1.000000  1.000000 -1.000000 )  


     PseudoPot. # 1 for Si read from file:
     ./si_pbe_v1.uspp.F.UPF.txt
     MD5 check sum: a056efeee980c13900f22a371efd63c1
     Pseudo is Ultrasoft + core correction, Zval =  4.0
     Generated by new atomic code, or converted to UPF format
     Using radial grid of  899 points,  6 beta functions with: 
                l(1) =   0
                l(2) =   0
                l(3) =   1
                l(4) =   1
                l(5) =   2
                l(6) =   2
     Q(r) pseudized with  8 coefficients,  rinner =    0.900   0.900   0.900
                                                       0.900   0.900

     atomic species   valence    mass     pseudopotential
        Si             4.00    28.08600     Si( 1.00)

     48 Sym. Ops., with inversion, found



   Cartesian axes

     site n.     atom                  positions (alat units)
         1           Si  tau(   1) = (   0.0000000   0.0000000   0.0000000  )
         2           Si  tau(   2) = (   0.2500000   0.2500000   0.2500000  )

     number of k points=  2600

     Number of k-points >= 100: set verbosity='high' to print them.

     Dense  grid:    16889 G-vectors     FFT dimensions: (  36,  36,  36)

     Smooth grid:     5985 G-vectors     FFT dimensions: (  25,  25,  25)

     Largest allocated arrays     est. size (Mb)     dimensions
        Kohn-Sham Wavefunctions         0.00 Mb     (      54,    4)
        NL pseudopotentials             0.03 Mb     (      54,   36)
        Each V/rho on FFT grid          0.06 Mb     (    3888)
        Each G-vector array             0.01 Mb     (    1057)
        G-vector shells                 0.00 Mb     (     199)
     Largest temporary arrays     est. size (Mb)     dimensions
        Auxiliary wavefunctions         0.01 Mb     (      54,   16)
        Each subspace H/S matrix        0.00 Mb     (       8,    8)
        Each <psi_i|beta_j> matrix      0.00 Mb     (      36,    4)

     The potential is recalculated from file :
     ./silicon/_ph0/silicon.10.280.save/charge-density.dat

     Starting wfc are    8 atomic wfcs

     Band Structure Calculation
     Davidson diagonalization with overlap

     ethr =  1.25E-10,  avg # of iterations = 12.3

     total cpu time spent up to now is        7.0 secs

     End of band structure calculation

     Number of k-points >= 100: set verbosity='high' to print the bands.

     highest occupied level (ev):     6.1003

     Writing output data file silicon.10.280.save

                                                                                

     bravais-lattice index     =            2
     lattice parameter (alat)  =      10.2800  a.u.
     unit-cell volume          =     271.5935 (a.u.)^3
     number of atoms/cell      =            2
     number of atomic types    =            1
     kinetic-energy cut-off    =      30.0000  Ry
     charge density cut-off    =     240.0000  Ry
     convergence threshold     =      1.0E-16
     beta                      =       0.7000
     number of iterations used =            4
     Exchange-correlation      = SLA  PW   PBE  PBE ( 1  4  3  4 0 0)


     celldm(1)=   10.28000  celldm(2)=    0.00000  celldm(3)=    0.00000
     celldm(4)=    0.00000  celldm(5)=    0.00000  celldm(6)=    0.00000

     crystal axes: (cart. coord. in units of alat)
               a(1) = ( -0.5000  0.0000  0.5000 )  
               a(2) = (  0.0000  0.5000  0.5000 )  
               a(3) = ( -0.5000  0.5000  0.0000 )  

     reciprocal axes: (cart. coord. in units 2 pi/alat)
               b(1) = ( -1.0000 -1.0000  1.0000 )  
               b(2) = (  1.0000  1.0000  1.0000 )  
               b(3) = ( -1.0000  1.0000 -1.0000 )  


     Atoms inside the unit cell: 

     Cartesian axes

     site n.  atom      mass           positions (alat units)
        1     Si  28.0860   tau(    1) = (    0.00000    0.00000    0.00000  )
        2     Si  28.0860   tau(    2) = (    0.25000    0.25000    0.25000  )

     Computing dynamical matrix for 
                    q = (  -0.3333333   0.3333333  -0.3333333 )
 
      6 Sym.Ops. (no q -> -q+G )


     G cutoff =  642.4476  (   1057 G-vectors)     FFT grid: ( 36, 36, 36)
     G cutoff =  321.2238  (    376 G-vectors)  smooth grid: ( 25, 25, 25)
     number of k points=  2600

     PseudoPot. # 1 for Si read from file:
     ./si_pbe_v1.uspp.F.UPF.txt
     MD5 check sum: a056efeee980c13900f22a371efd63c1
     Pseudo is Ultrasoft + core correction, Zval =  4.0
     Generated by new atomic code, or converted to UPF format
     Using radial grid of  899 points,  6 beta functions with: 
                l(1) =   0
                l(2) =   0
                l(3) =   1
                l(4) =   1
                l(5) =   2
                l(6) =   2
     Q(r) pseudized with  8 coefficients,  rinner =    0.900   0.900   0.900
                                                       0.900   0.900

     Mode symmetry, C_3v (3m)   point group:


     Atomic displacements:
     There are   4 irreducible representations

     Representation     1      1 modes -A_1  L_1  To be done

     Representation     2      1 modes -A_1  L_1  To be done

     Representation     3      2 modes -E    L_3  To be done

     Representation     4      2 modes -E    L_3  To be done



     Alpha used in Ewald sum =   2.5000
     PHONON       :    47.49s CPU        57.12s WALL



     Representation #  1 mode #   1

     Self-consistent Calculation

      iter #   1 total cpu time :    57.6 secs   av.it.:   6.0
      thresh= 1.000E-02 alpha_mix =  0.700 |ddv_scf|^2 =  7.057E-05

      iter #   2 total cpu time :    58.3 secs   av.it.:  10.1
      thresh= 8.401E-04 alpha_mix =  0.700 |ddv_scf|^2 =  5.390E-04

      iter #   3 total cpu time :    58.8 secs   av.it.:   8.4
      thresh= 2.322E-03 alpha_mix =  0.700 |ddv_scf|^2 =  1.078E-07

      iter #   4 total cpu time :    59.3 secs   av.it.:  10.4
      thresh= 3.283E-05 alpha_mix =  0.700 |ddv_scf|^2 =  2.429E-09

      iter #   5 total cpu time :    59.9 secs   av.it.:  10.6
      thresh= 4.929E-06 alpha_mix =  0.700 |ddv_scf|^2 =  6.601E-11

      iter #   6 total cpu time :    60.5 secs   av.it.:  10.8
      thresh= 8.125E-07 alpha_mix =  0.700 |ddv_scf|^2 =  3.903E-12

      iter #   7 total cpu time :    61.0 secs   av.it.:  10.9
      thresh= 1.976E-07 alpha_mix =  0.700 |ddv_scf|^2 =  5.422E-12

      iter #   8 total cpu time :    61.5 secs   av.it.:   8.6
      thresh= 2.329E-07 alpha_mix =  0.700 |ddv_scf|^2 =  1.801E-13

      iter #   9 total cpu time :    62.1 secs   av.it.:  10.1
      thresh= 4.243E-08 alpha_mix =  0.700 |ddv_scf|^2 =  3.128E-13

      iter #  10 total cpu time :    62.6 secs   av.it.:   9.1
      thresh= 5.593E-08 alpha_mix =  0.700 |ddv_scf|^2 =  1.903E-15

      iter #  11 total cpu time :    63.3 secs   av.it.:  10.3
      thresh= 4.362E-09 alpha_mix =  0.700 |ddv_scf|^2 =  4.178E-16

      iter #  12 total cpu time :    63.9 secs   av.it.:  10.0
      thresh= 2.044E-09 alpha_mix =  0.700 |ddv_scf|^2 =  1.183E-17

     End of self-consistent calculation

     Convergence has been achieved 


     Representation #  2 mode #   2

     Self-consistent Calculation

      iter #   1 total cpu time :    64.6 secs   av.it.:   6.0
      thresh= 1.000E-02 alpha_mix =  0.700 |ddv_scf|^2 =  7.057E-05

      iter #   2 total cpu time :    65.2 secs   av.it.:  10.1
      thresh= 8.401E-04 alpha_mix =  0.700 |ddv_scf|^2 =  5.390E-04

      iter #   3 total cpu time :    65.7 secs   av.it.:   8.4
      thresh= 2.322E-03 alpha_mix =  0.700 |ddv_scf|^2 =  1.078E-07

      iter #   4 total cpu time :    66.2 secs   av.it.:  10.4
      thresh= 3.283E-05 alpha_mix =  0.700 |ddv_scf|^2 =  2.429E-09

      iter #   5 total cpu time :    67.1 secs   av.it.:  10.6
      thresh= 4.929E-06 alpha_mix =  0.700 |ddv_scf|^2 =  6.601E-11

      iter #   6 total cpu time :    67.7 secs   av.it.:  10.8
      thresh= 8.125E-07 alpha_mix =  0.700 |ddv_scf|^2 =  3.903E-12

      iter #   7 total cpu time :    68.3 secs   av.it.:  10.9
      thresh= 1.976E-07 alpha_mix =  0.700 |ddv_scf|^2 =  5.422E-12

      iter #   8 total cpu time :    68.8 secs   av.it.:   8.6
      thresh= 2.329E-07 alpha_mix =  0.700 |ddv_scf|^2 =  1.801E-13

      iter #   9 total cpu time :    69.3 secs   av.it.:  10.1
      thresh= 4.243E-08 alpha_mix =  0.700 |ddv_scf|^2 =  3.128E-13

      iter #  10 total cpu time :    69.8 secs   av.it.:   9.1
      thresh= 5.593E-08 alpha_mix =  0.700 |ddv_scf|^2 =  1.903E-15

      iter #  11 total cpu time :    70.4 secs   av.it.:  10.3
      thresh= 4.362E-09 alpha_mix =  0.700 |ddv_scf|^2 =  4.178E-16

      iter #  12 total cpu time :    71.0 secs   av.it.:  10.0
      thresh= 2.044E-09 alpha_mix =  0.700 |ddv_scf|^2 =  1.183E-17

     End of self-consistent calculation

     Convergence has been achieved 


     Representation #  3 modes #   3  4

     Self-consistent Calculation

      iter #   1 total cpu time :    71.8 secs   av.it.:   5.3
      thresh= 1.000E-02 alpha_mix =  0.700 |ddv_scf|^2 =  4.208E-08

      iter #   2 total cpu time :    73.0 secs   av.it.:  11.8
      thresh= 2.051E-05 alpha_mix =  0.700 |ddv_scf|^2 =  2.988E-09

      iter #   3 total cpu time :    74.2 secs   av.it.:  11.5
      thresh= 5.467E-06 alpha_mix =  0.700 |ddv_scf|^2 =  1.382E-10

      iter #   4 total cpu time :    75.3 secs   av.it.:  11.2
      thresh= 1.175E-06 alpha_mix =  0.700 |ddv_scf|^2 =  4.850E-13

      iter #   5 total cpu time :    76.5 secs   av.it.:  11.4
      thresh= 6.964E-08 alpha_mix =  0.700 |ddv_scf|^2 =  3.143E-14

      iter #   6 total cpu time :    77.6 secs   av.it.:  11.3
      thresh= 1.773E-08 alpha_mix =  0.700 |ddv_scf|^2 =  2.158E-16

      iter #   7 total cpu time :    78.7 secs   av.it.:  11.0
      thresh= 1.469E-09 alpha_mix =  0.700 |ddv_scf|^2 =  1.497E-17

     End of self-consistent calculation

     Convergence has been achieved 


     Representation #  4 modes #   5  6

     Self-consistent Calculation

      iter #   1 total cpu time :    79.8 secs   av.it.:   5.3
      thresh= 1.000E-02 alpha_mix =  0.700 |ddv_scf|^2 =  4.208E-08

      iter #   2 total cpu time :    80.9 secs   av.it.:  12.1
      thresh= 2.051E-05 alpha_mix =  0.700 |ddv_scf|^2 =  2.988E-09

      iter #   3 total cpu time :    83.3 secs   av.it.:  11.9
      thresh= 5.467E-06 alpha_mix =  0.700 |ddv_scf|^2 =  1.381E-10

      iter #   4 total cpu time :    84.5 secs   av.it.:  11.5
      thresh= 1.175E-06 alpha_mix =  0.700 |ddv_scf|^2 =  4.854E-13

      iter #   5 total cpu time :    85.6 secs   av.it.:  11.7
      thresh= 6.967E-08 alpha_mix =  0.700 |ddv_scf|^2 =  3.147E-14

      iter #   6 total cpu time :    86.7 secs   av.it.:  11.5
      thresh= 1.774E-08 alpha_mix =  0.700 |ddv_scf|^2 =  2.152E-16

      iter #   7 total cpu time :    87.9 secs   av.it.:  11.2
      thresh= 1.467E-09 alpha_mix =  0.700 |ddv_scf|^2 =  1.495E-17

     End of self-consistent calculation

     Convergence has been achieved 
 
     Number of q in the star =    8
     List of q in the star:
          1  -0.333333333   0.333333333  -0.333333333
          2   0.333333333   0.333333333   0.333333333
          3  -0.333333333  -0.333333333  -0.333333333
          4   0.333333333  -0.333333333   0.333333333
          5   0.333333333  -0.333333333  -0.333333333
          6   0.333333333   0.333333333  -0.333333333
          7  -0.333333333  -0.333333333   0.333333333
          8  -0.333333333   0.333333333   0.333333333

     Diagonalizing the dynamical matrix

     q = (   -0.333333333   0.333333333  -0.333333333 ) 

 **************************************************************************
     freq (    1) =       3.111899 [THz] =     103.801785 [cm-1]
     freq (    2) =       3.111899 [THz] =     103.801785 [cm-1]
     freq (    3) =       8.715884 [THz] =     290.730612 [cm-1]
     freq (    4) =      13.765659 [THz] =     459.172954 [cm-1]
     freq (    5) =      14.641696 [THz] =     488.394412 [cm-1]
     freq (    6) =      14.641696 [THz] =     488.394412 [cm-1]
 **************************************************************************

     Mode symmetry, C_3v (3m)   point group:

     freq (  1 -  2) =        103.8  [cm-1]   --> E    L_3           
     freq (  3 -  3) =        290.7  [cm-1]   --> A_1  L_1           
     freq (  4 -  4) =        459.2  [cm-1]   --> A_1  L_1           
     freq (  5 -  6) =        488.4  [cm-1]   --> E    L_3           

     Calculation of q =    0.5000000  -0.5000000   0.5000000
 
     Parallelization info
     --------------------
     sticks:   dense  smooth     PW     G-vecs:    dense   smooth      PW
     Min          53      27     10                 1054      368      90
     Max          54      28     11                 1057      379      94
     Sum         859     433    163                16889     5985    1459
 


     bravais-lattice index     =            2
     lattice parameter (alat)  =      10.2800  a.u.
     unit-cell volume          =     271.5935 (a.u.)^3
     number of atoms/cell      =            2
     number of atomic types    =            1
     number of electrons       =         8.00
     number of Kohn-Sham states=            4
     kinetic-energy cutoff     =      30.0000  Ry
     charge density cutoff     =     240.0000  Ry
     Exchange-correlation      = SLA  PW   PBE  PBE ( 1  4  3  4 0 0)

     celldm(1)=  10.280000  celldm(2)=   0.000000  celldm(3)=   0.000000
     celldm(4)=   0.000000  celldm(5)=   0.000000  celldm(6)=   0.000000

     crystal axes: (cart. coord. in units of alat)
               a(1) = (  -0.500000   0.000000   0.500000 )  
               a(2) = (   0.000000   0.500000   0.500000 )  
               a(3) = (  -0.500000   0.500000   0.000000 )  

     reciprocal axes: (cart. coord. in units 2 pi/alat)
               b(1) = ( -1.000000 -1.000000  1.000000 )  
               b(2) = (  1.000000  1.000000  1.000000 )  
               b(3) = ( -1.000000  1.000000 -1.000000 )  


     PseudoPot. # 1 for Si read from file:
     ./si_pbe_v1.uspp.F.UPF.txt
     MD5 check sum: a056efeee980c13900f22a371efd63c1
     Pseudo is Ultrasoft + core correction, Zval =  4.0
     Generated by new atomic code, or converted to UPF format
     Using radial grid of  899 points,  6 beta functions with: 
                l(1) =   0
                l(2) =   0
                l(3) =   1
                l(4) =   1
                l(5) =   2
                l(6) =   2
     Q(r) pseudized with  8 coefficients,  rinner =    0.900   0.900   0.900
                                                       0.900   0.900

     atomic species   valence    mass     pseudopotential
        Si             4.00    28.08600     Si( 1.00)

     48 Sym. Ops., with inversion, found



   Cartesian axes

     site n.     atom                  positions (alat units)
         1           Si  tau(   1) = (   0.0000000   0.0000000   0.0000000  )
         2           Si  tau(   2) = (   0.2500000   0.2500000   0.2500000  )

     number of k points=  1300

     Number of k-points >= 100: set verbosity='high' to print them.

     Dense  grid:    16889 G-vectors     FFT dimensions: (  36,  36,  36)

     Smooth grid:     5985 G-vectors     FFT dimensions: (  25,  25,  25)

     Largest allocated arrays     est. size (Mb)     dimensions
        Kohn-Sham Wavefunctions         0.00 Mb     (      56,    4)
        NL pseudopotentials             0.03 Mb     (      56,   36)
        Each V/rho on FFT grid          0.06 Mb     (    3888)
        Each G-vector array             0.01 Mb     (    1057)
        G-vector shells                 0.00 Mb     (     203)
     Largest temporary arrays     est. size (Mb)     dimensions
        Auxiliary wavefunctions         0.01 Mb     (      56,   16)
        Each subspace H/S matrix        0.00 Mb     (       8,    8)
        Each <psi_i|beta_j> matrix      0.00 Mb     (      36,    4)

     The potential is recalculated from file :
     ./silicon/_ph0/silicon.10.280.save/charge-density.dat

     Starting wfc are    8 atomic wfcs

     Band Structure Calculation
     Davidson diagonalization with overlap

     ethr =  1.25E-10,  avg # of iterations = 12.3

     total cpu time spent up to now is       10.1 secs

     End of band structure calculation

     Number of k-points >= 100: set verbosity='high' to print the bands.

     highest occupied level (ev):     6.1003

     Writing output data file silicon.10.280.save

                                                                                

     bravais-lattice index     =            2
     lattice parameter (alat)  =      10.2800  a.u.
     unit-cell volume          =     271.5935 (a.u.)^3
     number of atoms/cell      =            2
     number of atomic types    =            1
     kinetic-energy cut-off    =      30.0000  Ry
     charge density cut-off    =     240.0000  Ry
     convergence threshold     =      1.0E-16
     beta                      =       0.7000
     number of iterations used =            4
     Exchange-correlation      = SLA  PW   PBE  PBE ( 1  4  3  4 0 0)


     celldm(1)=   10.28000  celldm(2)=    0.00000  celldm(3)=    0.00000
     celldm(4)=    0.00000  celldm(5)=    0.00000  celldm(6)=    0.00000

     crystal axes: (cart. coord. in units of alat)
               a(1) = ( -0.5000  0.0000  0.5000 )  
               a(2) = (  0.0000  0.5000  0.5000 )  
               a(3) = ( -0.5000  0.5000  0.0000 )  

     reciprocal axes: (cart. coord. in units 2 pi/alat)
               b(1) = ( -1.0000 -1.0000  1.0000 )  
               b(2) = (  1.0000  1.0000  1.0000 )  
               b(3) = ( -1.0000  1.0000 -1.0000 )  


     Atoms inside the unit cell: 

     Cartesian axes

     site n.  atom      mass           positions (alat units)
        1     Si  28.0860   tau(    1) = (    0.00000    0.00000    0.00000  )
        2     Si  28.0860   tau(    2) = (    0.25000    0.25000    0.25000  )

     Computing dynamical matrix for 
                    q = (   0.5000000  -0.5000000   0.5000000 )
 
     13 Sym.Ops. (with q -> -q+G )


     G cutoff =  642.4476  (   1057 G-vectors)     FFT grid: ( 36, 36, 36)
     G cutoff =  321.2238  (    375 G-vectors)  smooth grid: ( 25, 25, 25)
     number of k points=  1300

     PseudoPot. # 1 for Si read from file:
     ./si_pbe_v1.uspp.F.UPF.txt
     MD5 check sum: a056efeee980c13900f22a371efd63c1
     Pseudo is Ultrasoft + core correction, Zval =  4.0
     Generated by new atomic code, or converted to UPF format
     Using radial grid of  899 points,  6 beta functions with: 
                l(1) =   0
                l(2) =   0
                l(3) =   1
                l(4) =   1
                l(5) =   2
                l(6) =   2
     Q(r) pseudized with  8 coefficients,  rinner =    0.900   0.900   0.900
                                                       0.900   0.900


     Atomic displacements:
     There are   4 irreducible representations

     Representation     1      1 modes -  To be done

     Representation     2      1 modes -  To be done

     Representation     3      2 modes -  To be done

     Representation     4      2 modes -  To be done



     Alpha used in Ewald sum =   2.5000
     PHONON       :  1m17.67s CPU     1m31.34s WALL



     Representation #  1 mode #   1

     Self-consistent Calculation

      iter #   1 total cpu time :    91.7 secs   av.it.:   5.1
      thresh= 1.000E-02 alpha_mix =  0.700 |ddv_scf|^2 =  2.388E-06

      iter #   2 total cpu time :    92.1 secs   av.it.:  10.7
      thresh= 1.545E-04 alpha_mix =  0.700 |ddv_scf|^2 =  2.164E-06

      iter #   3 total cpu time :    92.5 secs   av.it.:   9.8
      thresh= 1.471E-04 alpha_mix =  0.700 |ddv_scf|^2 =  1.328E-09

      iter #   4 total cpu time :    92.8 secs   av.it.:  10.0
      thresh= 3.644E-06 alpha_mix =  0.700 |ddv_scf|^2 =  1.318E-11

      iter #   5 total cpu time :    93.2 secs   av.it.:   9.9
      thresh= 3.630E-07 alpha_mix =  0.700 |ddv_scf|^2 =  1.691E-13

      iter #   6 total cpu time :    93.5 secs   av.it.:   9.9
      thresh= 4.112E-08 alpha_mix =  0.700 |ddv_scf|^2 =  2.418E-15

      iter #   7 total cpu time :    93.8 secs   av.it.:  10.0
      thresh= 4.917E-09 alpha_mix =  0.700 |ddv_scf|^2 =  4.444E-17

     End of self-consistent calculation

     Convergence has been achieved 


     Representation #  2 mode #   2

     Self-consistent Calculation

      iter #   1 total cpu time :    94.5 secs   av.it.:   6.0
      thresh= 1.000E-02 alpha_mix =  0.700 |ddv_scf|^2 =  3.397E-05

      iter #   2 total cpu time :    94.8 secs   av.it.:  10.6
      thresh= 5.828E-04 alpha_mix =  0.700 |ddv_scf|^2 =  1.053E-04

      iter #   3 total cpu time :    95.1 secs   av.it.:   9.2
      thresh= 1.026E-03 alpha_mix =  0.700 |ddv_scf|^2 =  7.077E-09

      iter #   4 total cpu time :    95.5 secs   av.it.:  10.6
      thresh= 8.413E-06 alpha_mix =  0.700 |ddv_scf|^2 =  3.585E-10

      iter #   5 total cpu time :    95.8 secs   av.it.:  10.8
      thresh= 1.893E-06 alpha_mix =  0.700 |ddv_scf|^2 =  1.112E-11

      iter #   6 total cpu time :    96.1 secs   av.it.:  10.5
      thresh= 3.334E-07 alpha_mix =  0.700 |ddv_scf|^2 =  8.433E-14

      iter #   7 total cpu time :    96.4 secs   av.it.:   9.9
      thresh= 2.904E-08 alpha_mix =  0.700 |ddv_scf|^2 =  9.390E-16

      iter #   8 total cpu time :    97.2 secs   av.it.:   9.7
      thresh= 3.064E-09 alpha_mix =  0.700 |ddv_scf|^2 =  3.423E-17

     End of self-consistent calculation

     Convergence has been achieved 


     Representation #  3 modes #   3  4

     Self-consistent Calculation

      iter #   1 total cpu time :    97.7 secs   av.it.:   5.1
      thresh= 1.000E-02 alpha_mix =  0.700 |ddv_scf|^2 =  1.526E-08

      iter #   2 total cpu time :    98.4 secs   av.it.:  11.6
      thresh= 1.235E-05 alpha_mix =  0.700 |ddv_scf|^2 =  9.035E-10

      iter #   3 total cpu time :    99.0 secs   av.it.:  11.2
      thresh= 3.006E-06 alpha_mix =  0.700 |ddv_scf|^2 =  3.002E-11

      iter #   4 total cpu time :    99.6 secs   av.it.:  11.2
      thresh= 5.479E-07 alpha_mix =  0.700 |ddv_scf|^2 =  2.449E-13

      iter #   5 total cpu time :   100.2 secs   av.it.:  11.1
      thresh= 4.948E-08 alpha_mix =  0.700 |ddv_scf|^2 =  2.668E-15

      iter #   6 total cpu time :   100.8 secs   av.it.:  11.2
      thresh= 5.165E-09 alpha_mix =  0.700 |ddv_scf|^2 =  2.688E-17

     End of self-consistent calculation

     Convergence has been achieved 


     Representation #  4 modes #   5  6

     Self-consistent Calculation

      iter #   1 total cpu time :   101.3 secs   av.it.:   5.2
      thresh= 1.000E-02 alpha_mix =  0.700 |ddv_scf|^2 =  7.778E-08

      iter #   2 total cpu time :   102.0 secs   av.it.:  11.7
      thresh= 2.789E-05 alpha_mix =  0.700 |ddv_scf|^2 =  6.227E-09

      iter #   3 total cpu time :   102.6 secs   av.it.:  11.5
      thresh= 7.891E-06 alpha_mix =  0.700 |ddv_scf|^2 =  1.645E-10

      iter #   4 total cpu time :   103.4 secs   av.it.:  10.4
      thresh= 1.282E-06 alpha_mix =  0.700 |ddv_scf|^2 =  2.924E-13

      iter #   5 total cpu time :   104.1 secs   av.it.:  11.1
      thresh= 5.408E-08 alpha_mix =  0.700 |ddv_scf|^2 =  2.639E-15

      iter #   6 total cpu time :   105.2 secs   av.it.:  11.2
      thresh= 5.137E-09 alpha_mix =  0.700 |ddv_scf|^2 =  6.984E-17

     End of self-consistent calculation

     Convergence has been achieved 
 
     Number of q in the star =    4
     List of q in the star:
          1   0.500000000  -0.500000000   0.500000000
          2   0.500000000   0.500000000   0.500000000
          3  -0.500000000   0.500000000   0.500000000
          4   0.500000000   0.500000000  -0.500000000

     Diagonalizing the dynamical matrix

     q = (    0.500000000  -0.500000000   0.500000000 ) 

 **************************************************************************
     freq (    1) =       3.256869 [THz] =     108.637448 [cm-1]
     freq (    2) =       3.256869 [THz] =     108.637448 [cm-1]
     freq (    3) =      11.159641 [THz] =     372.245572 [cm-1]
     freq (    4) =      12.274080 [THz] =     409.419252 [cm-1]
     freq (    5) =      14.576316 [THz] =     486.213577 [cm-1]
     freq (    6) =      14.576316 [THz] =     486.213577 [cm-1]
 **************************************************************************

     Calculation of q =    0.0000000   0.3333333   0.0000000
 
     Parallelization info
     --------------------
     sticks:   dense  smooth     PW     G-vecs:    dense   smooth      PW
     Min          53      27     10                 1054      366      84
     Max          54      28     11                 1057      380      86
     Sum         859     433    163                16889     5985    1363
 


     bravais-lattice index     =            2
     lattice parameter (alat)  =      10.2800  a.u.
     unit-cell volume          =     271.5935 (a.u.)^3
     number of atoms/cell      =            2
     number of atomic types    =            1
     number of electrons       =         8.00
     number of Kohn-Sham states=            4
     kinetic-energy cutoff     =      30.0000  Ry
     charge density cutoff     =     240.0000  Ry
     Exchange-correlation      = SLA  PW   PBE  PBE ( 1  4  3  4 0 0)

     celldm(1)=  10.280000  celldm(2)=   0.000000  celldm(3)=   0.000000
     celldm(4)=   0.000000  celldm(5)=   0.000000  celldm(6)=   0.000000

     crystal axes: (cart. coord. in units of alat)
               a(1) = (  -0.500000   0.000000   0.500000 )  
               a(2) = (   0.000000   0.500000   0.500000 )  
               a(3) = (  -0.500000   0.500000   0.000000 )  

     reciprocal axes: (cart. coord. in units 2 pi/alat)
               b(1) = ( -1.000000 -1.000000  1.000000 )  
               b(2) = (  1.000000  1.000000  1.000000 )  
               b(3) = ( -1.000000  1.000000 -1.000000 )  


     PseudoPot. # 1 for Si read from file:
     ./si_pbe_v1.uspp.F.UPF.txt
     MD5 check sum: a056efeee980c13900f22a371efd63c1
     Pseudo is Ultrasoft + core correction, Zval =  4.0
     Generated by new atomic code, or converted to UPF format
     Using radial grid of  899 points,  6 beta functions with: 
                l(1) =   0
                l(2) =   0
                l(3) =   1
                l(4) =   1
                l(5) =   2
                l(6) =   2
     Q(r) pseudized with  8 coefficients,  rinner =    0.900   0.900   0.900
                                                       0.900   0.900

     atomic species   valence    mass     pseudopotential
        Si             4.00    28.08600     Si( 1.00)

     48 Sym. Ops., with inversion, found



   Cartesian axes

     site n.     atom                  positions (alat units)
         1           Si  tau(   1) = (   0.0000000   0.0000000   0.0000000  )
         2           Si  tau(   2) = (   0.2500000   0.2500000   0.2500000  )

     number of k points=  1872

     Number of k-points >= 100: set verbosity='high' to print them.

     Dense  grid:    16889 G-vectors     FFT dimensions: (  36,  36,  36)

     Smooth grid:     5985 G-vectors     FFT dimensions: (  25,  25,  25)

     Largest allocated arrays     est. size (Mb)     dimensions
        Kohn-Sham Wavefunctions         0.00 Mb     (      54,    4)
        NL pseudopotentials             0.03 Mb     (      54,   36)
        Each V/rho on FFT grid          0.06 Mb     (    3888)
        Each G-vector array             0.01 Mb     (    1057)
        G-vector shells                 0.00 Mb     (     198)
     Largest temporary arrays     est. size (Mb)     dimensions
        Auxiliary wavefunctions         0.01 Mb     (      54,   16)
        Each subspace H/S matrix        0.00 Mb     (       8,    8)
        Each <psi_i|beta_j> matrix      0.00 Mb     (      36,    4)

     The potential is recalculated from file :
     ./silicon/_ph0/silicon.10.280.save/charge-density.dat

     Starting wfc are    8 atomic wfcs

     Band Structure Calculation
     Davidson diagonalization with overlap

     ethr =  1.25E-10,  avg # of iterations = 12.3

     total cpu time spent up to now is       12.4 secs

     End of band structure calculation

     Number of k-points >= 100: set verbosity='high' to print the bands.

     highest occupied level (ev):     6.1003

     Writing output data file silicon.10.280.save

                                                                                

     bravais-lattice index     =            2
     lattice parameter (alat)  =      10.2800  a.u.
     unit-cell volume          =     271.5935 (a.u.)^3
     number of atoms/cell      =            2
     number of atomic types    =            1
     kinetic-energy cut-off    =      30.0000  Ry
     charge density cut-off    =     240.0000  Ry
     convergence threshold     =      1.0E-16
     beta                      =       0.7000
     number of iterations used =            4
     Exchange-correlation      = SLA  PW   PBE  PBE ( 1  4  3  4 0 0)


     celldm(1)=   10.28000  celldm(2)=    0.00000  celldm(3)=    0.00000
     celldm(4)=    0.00000  celldm(5)=    0.00000  celldm(6)=    0.00000

     crystal axes: (cart. coord. in units of alat)
               a(1) = ( -0.5000  0.0000  0.5000 )  
               a(2) = (  0.0000  0.5000  0.5000 )  
               a(3) = ( -0.5000  0.5000  0.0000 )  

     reciprocal axes: (cart. coord. in units 2 pi/alat)
               b(1) = ( -1.0000 -1.0000  1.0000 )  
               b(2) = (  1.0000  1.0000  1.0000 )  
               b(3) = ( -1.0000  1.0000 -1.0000 )  


     Atoms inside the unit cell: 

     Cartesian axes

     site n.  atom      mass           positions (alat units)
        1     Si  28.0860   tau(    1) = (    0.00000    0.00000    0.00000  )
        2     Si  28.0860   tau(    2) = (    0.25000    0.25000    0.25000  )

     Computing dynamical matrix for 
                    q = (   0.0000000   0.3333333   0.0000000 )
 
      8 Sym.Ops. (no q -> -q+G )


     G cutoff =  642.4476  (   1057 G-vectors)     FFT grid: ( 36, 36, 36)
     G cutoff =  321.2238  (    371 G-vectors)  smooth grid: ( 25, 25, 25)
     number of k points=  1872

     PseudoPot. # 1 for Si read from file:
     ./si_pbe_v1.uspp.F.UPF.txt
     MD5 check sum: a056efeee980c13900f22a371efd63c1
     Pseudo is Ultrasoft + core correction, Zval =  4.0
     Generated by new atomic code, or converted to UPF format
     Using radial grid of  899 points,  6 beta functions with: 
                l(1) =   0
                l(2) =   0
                l(3) =   1
                l(4) =   1
                l(5) =   2
                l(6) =   2
     Q(r) pseudized with  8 coefficients,  rinner =    0.900   0.900   0.900
                                                       0.900   0.900

     Mode symmetry, C_4v (4mm)  point group:


     Atomic displacements:
     There are   4 irreducible representations

     Representation     1      1 modes -A_1  G_1 D_1  To be done

     Representation     2      1 modes -B_2  G_4 D_2'  To be done

     Representation     3      2 modes -E    G_5 D_5  To be done

     Representation     4      2 modes -E    G_5 D_5  To be done



     Alpha used in Ewald sum =   2.5000
     PHONON       :  1m34.34s CPU     1m50.79s WALL



     Representation #  1 mode #   1

     Self-consistent Calculation

      iter #   1 total cpu time :   111.2 secs   av.it.:   6.3
      thresh= 1.000E-02 alpha_mix =  0.700 |ddv_scf|^2 =  1.484E-03

      iter #   2 total cpu time :   112.0 secs   av.it.:   9.3
      thresh= 3.852E-03 alpha_mix =  0.700 |ddv_scf|^2 =  4.277E-02

      iter #   3 total cpu time :   112.3 secs   av.it.:   7.7
      thresh= 1.000E-02 alpha_mix =  0.700 |ddv_scf|^2 =  8.209E-08

      iter #   4 total cpu time :   112.7 secs   av.it.:   9.6
      thresh= 2.865E-05 alpha_mix =  0.700 |ddv_scf|^2 =  2.746E-09

      iter #   5 total cpu time :   113.1 secs   av.it.:   8.7
      thresh= 5.240E-06 alpha_mix =  0.700 |ddv_scf|^2 =  6.225E-10

      iter #   6 total cpu time :   113.6 secs   av.it.:   8.2
      thresh= 2.495E-06 alpha_mix =  0.700 |ddv_scf|^2 =  1.088E-13

      iter #   7 total cpu time :   114.0 secs   av.it.:  10.0
      thresh= 3.298E-08 alpha_mix =  0.700 |ddv_scf|^2 =  8.734E-14

      iter #   8 total cpu time :   114.4 secs   av.it.:   7.3
      thresh= 2.955E-08 alpha_mix =  0.700 |ddv_scf|^2 =  8.437E-17

     End of self-consistent calculation

     Convergence has been achieved 


     Representation #  2 mode #   2

     Self-consistent Calculation

      iter #   1 total cpu time :   114.8 secs   av.it.:   5.1
      thresh= 1.000E-02 alpha_mix =  0.700 |ddv_scf|^2 =  2.432E-07

      iter #   2 total cpu time :   115.2 secs   av.it.:  10.9
      thresh= 4.932E-05 alpha_mix =  0.700 |ddv_scf|^2 =  4.083E-08

      iter #   3 total cpu time :   115.7 secs   av.it.:  10.8
      thresh= 2.021E-05 alpha_mix =  0.700 |ddv_scf|^2 =  1.172E-09

      iter #   4 total cpu time :   116.1 secs   av.it.:  10.7
      thresh= 3.424E-06 alpha_mix =  0.700 |ddv_scf|^2 =  4.101E-11

      iter #   5 total cpu time :   117.1 secs   av.it.:  10.8
      thresh= 6.404E-07 alpha_mix =  0.700 |ddv_scf|^2 =  2.219E-13

      iter #   6 total cpu time :   118.5 secs   av.it.:  10.2
      thresh= 4.710E-08 alpha_mix =  0.700 |ddv_scf|^2 =  3.769E-15

      iter #   7 total cpu time :   119.0 secs   av.it.:   9.8
      thresh= 6.139E-09 alpha_mix =  0.700 |ddv_scf|^2 =  9.539E-17

     End of self-consistent calculation

     Convergence has been achieved 


     Representation #  3 modes #   3  4

     Self-consistent Calculation

      iter #   1 total cpu time :   120.5 secs   av.it.:   5.2
      thresh= 1.000E-02 alpha_mix =  0.700 |ddv_scf|^2 =  4.594E-08

      iter #   2 total cpu time :   121.4 secs   av.it.:  11.9
      thresh= 2.143E-05 alpha_mix =  0.700 |ddv_scf|^2 =  3.981E-09

      iter #   3 total cpu time :   122.3 secs   av.it.:  11.7
      thresh= 6.310E-06 alpha_mix =  0.700 |ddv_scf|^2 =  1.535E-10

      iter #   4 total cpu time :   123.1 secs   av.it.:  11.2
      thresh= 1.239E-06 alpha_mix =  0.700 |ddv_scf|^2 =  5.805E-13

      iter #   5 total cpu time :   124.1 secs   av.it.:  11.4
      thresh= 7.619E-08 alpha_mix =  0.700 |ddv_scf|^2 =  2.838E-14

      iter #   6 total cpu time :   125.1 secs   av.it.:  11.5
      thresh= 1.685E-08 alpha_mix =  0.700 |ddv_scf|^2 =  2.072E-16

      iter #   7 total cpu time :   126.0 secs   av.it.:  11.0
      thresh= 1.440E-09 alpha_mix =  0.700 |ddv_scf|^2 =  1.291E-17

     End of self-consistent calculation

     Convergence has been achieved 


     Representation #  4 modes #   5  6

     Self-consistent Calculation

      iter #   1 total cpu time :   127.2 secs   av.it.:   5.3
      thresh= 1.000E-02 alpha_mix =  0.700 |ddv_scf|^2 =  5.423E-08

      iter #   2 total cpu time :   128.1 secs   av.it.:  11.9
      thresh= 2.329E-05 alpha_mix =  0.700 |ddv_scf|^2 =  4.873E-09

      iter #   3 total cpu time :   128.9 secs   av.it.:  11.7
      thresh= 6.980E-06 alpha_mix =  0.700 |ddv_scf|^2 =  1.631E-10

      iter #   4 total cpu time :   129.8 secs   av.it.:  11.4
      thresh= 1.277E-06 alpha_mix =  0.700 |ddv_scf|^2 =  4.225E-13

      iter #   5 total cpu time :   130.7 secs   av.it.:  11.3
      thresh= 6.500E-08 alpha_mix =  0.700 |ddv_scf|^2 =  1.338E-14

      iter #   6 total cpu time :   131.6 secs   av.it.:  11.5
      thresh= 1.157E-08 alpha_mix =  0.700 |ddv_scf|^2 =  1.762E-16

      iter #   7 total cpu time :   132.5 secs   av.it.:  11.1
      thresh= 1.327E-09 alpha_mix =  0.700 |ddv_scf|^2 =  1.046E-17

     End of self-consistent calculation

     Convergence has been achieved 
 
     Number of q in the star =    6
     List of q in the star:
          1   0.000000000   0.333333333   0.000000000
          2   0.333333333   0.000000000   0.000000000
          3   0.000000000   0.000000000   0.333333333
          4   0.000000000  -0.333333333   0.000000000
          5  -0.333333333   0.000000000   0.000000000
          6   0.000000000   0.000000000  -0.333333333

     Diagonalizing the dynamical matrix

     q = (    0.000000000   0.333333333   0.000000000 ) 

 **************************************************************************
     freq (    1) =       2.963672 [THz] =      98.857467 [cm-1]
     freq (    2) =       2.963672 [THz] =      98.857467 [cm-1]
     freq (    3) =       4.936334 [THz] =     164.658372 [cm-1]
     freq (    4) =      14.561192 [THz] =     485.709083 [cm-1]
     freq (    5) =      14.561192 [THz] =     485.709083 [cm-1]
     freq (    6) =      15.045845 [THz] =     501.875358 [cm-1]
 **************************************************************************

     Mode symmetry, C_4v (4mm)  point group:

     freq (  1 -  2) =         98.9  [cm-1]   --> E    G_5 D_5       
     freq (  3 -  3) =        164.7  [cm-1]   --> A_1  G_1 D_1       
     freq (  4 -  5) =        485.7  [cm-1]   --> E    G_5 D_5       
     freq (  6 -  6) =        501.9  [cm-1]   --> B_2  G_4 D_2'      

     Calculation of q =   -0.1666667   0.5000000  -0.1666667
 
     Parallelization info
     --------------------
     sticks:   dense  smooth     PW     G-vecs:    dense   smooth      PW
     Min          53      27     10                 1054      370      87
     Max          54      28     11                 1057      379      90
     Sum         859     433    163                16889     5985    1411
 


     bravais-lattice index     =            2
     lattice parameter (alat)  =      10.2800  a.u.
     unit-cell volume          =     271.5935 (a.u.)^3
     number of atoms/cell      =            2
     number of atomic types    =            1
     number of electrons       =         8.00
     number of Kohn-Sham states=            4
     kinetic-energy cutoff     =      30.0000  Ry
     charge density cutoff     =     240.0000  Ry
     Exchange-correlation      = SLA  PW   PBE  PBE ( 1  4  3  4 0 0)

     celldm(1)=  10.280000  celldm(2)=   0.000000  celldm(3)=   0.000000
     celldm(4)=   0.000000  celldm(5)=   0.000000  celldm(6)=   0.000000

     crystal axes: (cart. coord. in units of alat)
               a(1) = (  -0.500000   0.000000   0.500000 )  
               a(2) = (   0.000000   0.500000   0.500000 )  
               a(3) = (  -0.500000   0.500000   0.000000 )  

     reciprocal axes: (cart. coord. in units 2 pi/alat)
               b(1) = ( -1.000000 -1.000000  1.000000 )  
               b(2) = (  1.000000  1.000000  1.000000 )  
               b(3) = ( -1.000000  1.000000 -1.000000 )  


     PseudoPot. # 1 for Si read from file:
     ./si_pbe_v1.uspp.F.UPF.txt
     MD5 check sum: a056efeee980c13900f22a371efd63c1
     Pseudo is Ultrasoft + core correction, Zval =  4.0
     Generated by new atomic code, or converted to UPF format
     Using radial grid of  899 points,  6 beta functions with: 
                l(1) =   0
                l(2) =   0
                l(3) =   1
                l(4) =   1
                l(5) =   2
                l(6) =   2
     Q(r) pseudized with  8 coefficients,  rinner =    0.900   0.900   0.900
                                                       0.900   0.900

     atomic species   valence    mass     pseudopotential
        Si             4.00    28.08600     Si( 1.00)

     48 Sym. Ops., with inversion, found



   Cartesian axes

     site n.     atom                  positions (alat units)
         1           Si  tau(   1) = (   0.0000000   0.0000000   0.0000000  )
         2           Si  tau(   2) = (   0.2500000   0.2500000   0.2500000  )

     number of k points=  7200

     Number of k-points >= 100: set verbosity='high' to print them.

     Dense  grid:    16889 G-vectors     FFT dimensions: (  36,  36,  36)

     Smooth grid:     5985 G-vectors     FFT dimensions: (  25,  25,  25)

     Largest allocated arrays     est. size (Mb)     dimensions
        Kohn-Sham Wavefunctions         0.00 Mb     (      55,    4)
        NL pseudopotentials             0.03 Mb     (      55,   36)
        Each V/rho on FFT grid          0.06 Mb     (    3888)
        Each G-vector array             0.01 Mb     (    1057)
        G-vector shells                 0.00 Mb     (     199)
     Largest temporary arrays     est. size (Mb)     dimensions
        Auxiliary wavefunctions         0.01 Mb     (      55,   16)
        Each subspace H/S matrix        0.00 Mb     (       8,    8)
        Each <psi_i|beta_j> matrix      0.00 Mb     (      36,    4)

     The potential is recalculated from file :
     ./silicon/_ph0/silicon.10.280.save/charge-density.dat

     Starting wfc are    8 atomic wfcs

     Band Structure Calculation
     Davidson diagonalization with overlap

     ethr =  1.25E-10,  avg # of iterations = 12.3

     total cpu time spent up to now is       21.1 secs

     End of band structure calculation

     Number of k-points >= 100: set verbosity='high' to print the bands.

     highest occupied level (ev):     6.1003

     Writing output data file silicon.10.280.save

                                                                                

     bravais-lattice index     =            2
     lattice parameter (alat)  =      10.2800  a.u.
     unit-cell volume          =     271.5935 (a.u.)^3
     number of atoms/cell      =            2
     number of atomic types    =            1
     kinetic-energy cut-off    =      30.0000  Ry
     charge density cut-off    =     240.0000  Ry
     convergence threshold     =      1.0E-16
     beta                      =       0.7000
     number of iterations used =            4
     Exchange-correlation      = SLA  PW   PBE  PBE ( 1  4  3  4 0 0)


     celldm(1)=   10.28000  celldm(2)=    0.00000  celldm(3)=    0.00000
     celldm(4)=    0.00000  celldm(5)=    0.00000  celldm(6)=    0.00000

     crystal axes: (cart. coord. in units of alat)
               a(1) = ( -0.5000  0.0000  0.5000 )  
               a(2) = (  0.0000  0.5000  0.5000 )  
               a(3) = ( -0.5000  0.5000  0.0000 )  

     reciprocal axes: (cart. coord. in units 2 pi/alat)
               b(1) = ( -1.0000 -1.0000  1.0000 )  
               b(2) = (  1.0000  1.0000  1.0000 )  
               b(3) = ( -1.0000  1.0000 -1.0000 )  


     Atoms inside the unit cell: 

     Cartesian axes

     site n.  atom      mass           positions (alat units)
        1     Si  28.0860   tau(    1) = (    0.00000    0.00000    0.00000  )
        2     Si  28.0860   tau(    2) = (    0.25000    0.25000    0.25000  )

     Computing dynamical matrix for 
                    q = (  -0.1666667   0.5000000  -0.1666667 )
 
      2 Sym.Ops. (no q -> -q+G )


     G cutoff =  642.4476  (   1057 G-vectors)     FFT grid: ( 36, 36, 36)
     G cutoff =  321.2238  (    376 G-vectors)  smooth grid: ( 25, 25, 25)
     number of k points=  7200

     PseudoPot. # 1 for Si read from file:
     ./si_pbe_v1.uspp.F.UPF.txt
     MD5 check sum: a056efeee980c13900f22a371efd63c1
     Pseudo is Ultrasoft + core correction, Zval =  4.0
     Generated by new atomic code, or converted to UPF format
     Using radial grid of  899 points,  6 beta functions with: 
                l(1) =   0
                l(2) =   0
                l(3) =   1
                l(4) =   1
                l(5) =   2
                l(6) =   2
     Q(r) pseudized with  8 coefficients,  rinner =    0.900   0.900   0.900
                                                       0.900   0.900

     Mode symmetry, C_s (m)     point group:


     Atomic displacements:
     There are   6 irreducible representations

     Representation     1      1 modes -A'  To be done

     Representation     2      1 modes -A'  To be done

     Representation     3      1 modes -A'  To be done

     Representation     4      1 modes -A'  To be done

     Representation     5      1 modes -A''  To be done

     Representation     6      1 modes -A''  To be done



     Alpha used in Ewald sum =   2.5000
     PHONON       :  2m 4.90s CPU     2m27.36s WALL



     Representation #  1 mode #   1

     Self-consistent Calculation

      iter #   1 total cpu time :   148.5 secs   av.it.:   5.8
      thresh= 1.000E-02 alpha_mix =  0.700 |ddv_scf|^2 =  3.557E-05

      iter #   2 total cpu time :   150.0 secs   av.it.:  10.3
      thresh= 5.964E-04 alpha_mix =  0.700 |ddv_scf|^2 =  3.611E-04

      iter #   3 total cpu time :   152.2 secs   av.it.:   8.3
      thresh= 1.900E-03 alpha_mix =  0.700 |ddv_scf|^2 =  6.099E-08

      iter #   4 total cpu time :   153.7 secs   av.it.:  10.9
      thresh= 2.470E-05 alpha_mix =  0.700 |ddv_scf|^2 =  2.624E-09

      iter #   5 total cpu time :   155.3 secs   av.it.:  10.8
      thresh= 5.122E-06 alpha_mix =  0.700 |ddv_scf|^2 =  1.244E-10

      iter #   6 total cpu time :   156.9 secs   av.it.:  10.9
      thresh= 1.115E-06 alpha_mix =  0.700 |ddv_scf|^2 =  4.524E-12

      iter #   7 total cpu time :   158.5 secs   av.it.:  11.0
      thresh= 2.127E-07 alpha_mix =  0.700 |ddv_scf|^2 =  3.181E-13

      iter #   8 total cpu time :   159.9 secs   av.it.:  10.8
      thresh= 5.640E-08 alpha_mix =  0.700 |ddv_scf|^2 =  1.482E-12

      iter #   9 total cpu time :   161.2 secs   av.it.:   8.8
      thresh= 1.217E-07 alpha_mix =  0.700 |ddv_scf|^2 =  2.113E-14

      iter #  10 total cpu time :   162.7 secs   av.it.:  10.1
      thresh= 1.454E-08 alpha_mix =  0.700 |ddv_scf|^2 =  3.425E-14

      iter #  11 total cpu time :   164.1 secs   av.it.:   9.4
      thresh= 1.851E-08 alpha_mix =  0.700 |ddv_scf|^2 =  1.581E-16

      iter #  12 total cpu time :   166.7 secs   av.it.:  11.0
      thresh= 1.258E-09 alpha_mix =  0.700 |ddv_scf|^2 =  3.918E-17

     End of self-consistent calculation

     Convergence has been achieved 


     Representation #  2 mode #   2

     Self-consistent Calculation

      iter #   1 total cpu time :   168.0 secs   av.it.:   6.0
      thresh= 1.000E-02 alpha_mix =  0.700 |ddv_scf|^2 =  8.375E-05

      iter #   2 total cpu time :   169.4 secs   av.it.:  10.2
      thresh= 9.151E-04 alpha_mix =  0.700 |ddv_scf|^2 =  8.702E-04

      iter #   3 total cpu time :   170.7 secs   av.it.:   8.2
      thresh= 2.950E-03 alpha_mix =  0.700 |ddv_scf|^2 =  4.098E-08

      iter #   4 total cpu time :   172.2 secs   av.it.:  11.0
      thresh= 2.024E-05 alpha_mix =  0.700 |ddv_scf|^2 =  3.825E-09

      iter #   5 total cpu time :   173.8 secs   av.it.:  10.9
      thresh= 6.184E-06 alpha_mix =  0.700 |ddv_scf|^2 =  1.244E-10

      iter #   6 total cpu time :   175.4 secs   av.it.:  11.0
      thresh= 1.116E-06 alpha_mix =  0.700 |ddv_scf|^2 =  1.015E-11

      iter #   7 total cpu time :   176.9 secs   av.it.:  10.9
      thresh= 3.185E-07 alpha_mix =  0.700 |ddv_scf|^2 =  1.596E-13

      iter #   8 total cpu time :   178.4 secs   av.it.:  10.8
      thresh= 3.995E-08 alpha_mix =  0.700 |ddv_scf|^2 =  1.043E-12

      iter #   9 total cpu time :   180.3 secs   av.it.:   8.7
      thresh= 1.022E-07 alpha_mix =  0.700 |ddv_scf|^2 =  1.045E-14

      iter #  10 total cpu time :   186.3 secs   av.it.:  10.2
      thresh= 1.022E-08 alpha_mix =  0.700 |ddv_scf|^2 =  1.667E-14

      iter #  11 total cpu time :   188.3 secs   av.it.:   9.1
      thresh= 1.291E-08 alpha_mix =  0.700 |ddv_scf|^2 =  8.883E-17

     End of self-consistent calculation

     Convergence has been achieved 


     Representation #  3 mode #   3

     Self-consistent Calculation

      iter #   1 total cpu time :   189.6 secs   av.it.:   5.9
      thresh= 1.000E-02 alpha_mix =  0.700 |ddv_scf|^2 =  6.090E-05

      iter #   2 total cpu time :   191.7 secs   av.it.:  10.3
      thresh= 7.804E-04 alpha_mix =  0.700 |ddv_scf|^2 =  6.365E-04

      iter #   3 total cpu time :   192.8 secs   av.it.:   8.2
      thresh= 2.523E-03 alpha_mix =  0.700 |ddv_scf|^2 =  5.841E-08

      iter #   4 total cpu time :   194.2 secs   av.it.:  10.9
      thresh= 2.417E-05 alpha_mix =  0.700 |ddv_scf|^2 =  3.116E-09

      iter #   5 total cpu time :   195.5 secs   av.it.:  10.8
      thresh= 5.582E-06 alpha_mix =  0.700 |ddv_scf|^2 =  1.317E-10

      iter #   6 total cpu time :   196.9 secs   av.it.:  11.0
      thresh= 1.148E-06 alpha_mix =  0.700 |ddv_scf|^2 =  8.272E-12

      iter #   7 total cpu time :   198.3 secs   av.it.:  11.0
      thresh= 2.876E-07 alpha_mix =  0.700 |ddv_scf|^2 =  1.141E-13

      iter #   8 total cpu time :   199.7 secs   av.it.:  10.7
      thresh= 3.378E-08 alpha_mix =  0.700 |ddv_scf|^2 =  6.727E-13

      iter #   9 total cpu time :   200.8 secs   av.it.:   8.7
      thresh= 8.202E-08 alpha_mix =  0.700 |ddv_scf|^2 =  4.982E-15

      iter #  10 total cpu time :   202.2 secs   av.it.:  10.3
      thresh= 7.058E-09 alpha_mix =  0.700 |ddv_scf|^2 =  8.960E-17

     End of self-consistent calculation

     Convergence has been achieved 


     Representation #  4 mode #   4

     Self-consistent Calculation

      iter #   1 total cpu time :   203.2 secs   av.it.:   5.6
      thresh= 1.000E-02 alpha_mix =  0.700 |ddv_scf|^2 =  1.270E-05

      iter #   2 total cpu time :   204.5 secs   av.it.:  10.6
      thresh= 3.564E-04 alpha_mix =  0.700 |ddv_scf|^2 =  1.271E-04

      iter #   3 total cpu time :   205.7 secs   av.it.:   8.3
      thresh= 1.127E-03 alpha_mix =  0.700 |ddv_scf|^2 =  7.097E-08

      iter #   4 total cpu time :   207.1 secs   av.it.:  10.8
      thresh= 2.664E-05 alpha_mix =  0.700 |ddv_scf|^2 =  1.435E-09

      iter #   5 total cpu time :   208.5 secs   av.it.:  11.0
      thresh= 3.788E-06 alpha_mix =  0.700 |ddv_scf|^2 =  1.268E-10

      iter #   6 total cpu time :   210.5 secs   av.it.:  11.0
      thresh= 1.126E-06 alpha_mix =  0.700 |ddv_scf|^2 =  3.757E-12

      iter #   7 total cpu time :   218.7 secs   av.it.:  11.0
      thresh= 1.938E-07 alpha_mix =  0.700 |ddv_scf|^2 =  3.859E-12

      iter #   8 total cpu time :   228.6 secs   av.it.:   9.2
      thresh= 1.964E-07 alpha_mix =  0.700 |ddv_scf|^2 =  1.731E-12

      iter #   9 total cpu time :   229.8 secs   av.it.:   9.4
      thresh= 1.316E-07 alpha_mix =  0.700 |ddv_scf|^2 =  1.277E-12

      iter #  10 total cpu time :   231.1 secs   av.it.:   9.0
      thresh= 1.130E-07 alpha_mix =  0.700 |ddv_scf|^2 =  3.990E-15

      iter #  11 total cpu time :   232.5 secs   av.it.:  11.0
      thresh= 6.316E-09 alpha_mix =  0.700 |ddv_scf|^2 =  1.348E-15

      iter #  12 total cpu time :   233.9 secs   av.it.:  10.7
      thresh= 3.672E-09 alpha_mix =  0.700 |ddv_scf|^2 =  8.573E-17

     End of self-consistent calculation

     Convergence has been achieved 


     Representation #  5 mode #   5

     Self-consistent Calculation

      iter #   1 total cpu time :   236.5 secs   av.it.:   5.3
      thresh= 1.000E-02 alpha_mix =  0.700 |ddv_scf|^2 =  2.795E-07

      iter #   2 total cpu time :   237.9 secs   av.it.:  11.0
      thresh= 5.287E-05 alpha_mix =  0.700 |ddv_scf|^2 =  3.411E-08

      iter #   3 total cpu time :   239.6 secs   av.it.:  10.8
      thresh= 1.847E-05 alpha_mix =  0.700 |ddv_scf|^2 =  7.339E-10

      iter #   4 total cpu time :   241.0 secs   av.it.:  10.5
      thresh= 2.709E-06 alpha_mix =  0.700 |ddv_scf|^2 =  1.823E-12

      iter #   5 total cpu time :   242.5 secs   av.it.:  10.6
      thresh= 1.350E-07 alpha_mix =  0.700 |ddv_scf|^2 =  9.099E-14

      iter #   6 total cpu time :   244.0 secs   av.it.:  10.6
      thresh= 3.016E-08 alpha_mix =  0.700 |ddv_scf|^2 =  8.392E-16

      iter #   7 total cpu time :   246.0 secs   av.it.:  10.3
      thresh= 2.897E-09 alpha_mix =  0.700 |ddv_scf|^2 =  3.165E-17

     End of self-consistent calculation

     Convergence has been achieved 


     Representation #  6 mode #   6

     Self-consistent Calculation

      iter #   1 total cpu time :   246.9 secs   av.it.:   5.3
      thresh= 1.000E-02 alpha_mix =  0.700 |ddv_scf|^2 =  2.795E-07

      iter #   2 total cpu time :   248.5 secs   av.it.:  11.0
      thresh= 5.287E-05 alpha_mix =  0.700 |ddv_scf|^2 =  3.411E-08

      iter #   3 total cpu time :   250.4 secs   av.it.:  10.8
      thresh= 1.847E-05 alpha_mix =  0.700 |ddv_scf|^2 =  7.339E-10

      iter #   4 total cpu time :   252.6 secs   av.it.:  10.5
      thresh= 2.709E-06 alpha_mix =  0.700 |ddv_scf|^2 =  1.823E-12

      iter #   5 total cpu time :   253.9 secs   av.it.:  10.6
      thresh= 1.350E-07 alpha_mix =  0.700 |ddv_scf|^2 =  9.099E-14

      iter #   6 total cpu time :   256.7 secs   av.it.:  10.6
      thresh= 3.016E-08 alpha_mix =  0.700 |ddv_scf|^2 =  8.392E-16

      iter #   7 total cpu time :   258.2 secs   av.it.:  10.3
      thresh= 2.897E-09 alpha_mix =  0.700 |ddv_scf|^2 =  3.165E-17

     End of self-consistent calculation

     Convergence has been achieved 
 
     Number of q in the star =   24
     List of q in the star:
          1  -0.166666667   0.500000000  -0.166666667
          2   0.166666667   0.500000000   0.166666667
          3  -0.166666667   0.500000000   0.166666667
          4   0.166666667   0.500000000  -0.166666667
          5   0.500000000  -0.166666667   0.166666667
          6   0.166666667  -0.166666667   0.500000000
          7  -0.166666667  -0.500000000  -0.166666667
          8   0.166666667  -0.500000000  -0.166666667
          9  -0.166666667  -0.500000000   0.166666667
         10   0.500000000  -0.166666667  -0.166666667
[...]

     End of self-consistent calculation

     Convergence has been achieved 
 
     Number of q in the star =   24
     List of q in the star:
          1   0.500000000  -0.166666667   0.833333333
          2   0.833333333   0.166666667   0.500000000
          3   0.500000000   0.166666667   0.833333333
          4  -0.833333333  -0.166666667   0.500000000
          5  -0.833333333  -0.166666667  -0.500000000
          6  -0.500000000  -0.166666667  -0.833333333
          7   0.833333333  -0.166666667   0.500000000
          8  -0.500000000  -0.166666667   0.833333333
          9  -0.833333333   0.166666667   0.500000000
         10   0.833333333   0.166666667  -0.500000000
         11   0.833333333  -0.166666667  -0.500000000
         12   0.500000000   0.166666667  -0.833333333
         13  -0.500000000   0.166666667   0.833333333
         14  -0.500000000   0.166666667  -0.833333333
         15  -0.833333333   0.166666667  -0.500000000
         16   0.833333333  -0.500000000   0.166666667
         17   0.833333333   0.500000000  -0.166666667
         18  -0.833333333  -0.500000000  -0.166666667
         19  -0.833333333   0.500000000   0.166666667
         20   0.166666667  -0.500000000   0.833333333
         21  -0.166666667   0.500000000   0.833333333
         22   0.166666667   0.500000000  -0.833333333
         23  -0.166666667  -0.500000000  -0.833333333
         24  -0.500000000   0.833333333   0.166666667

     Diagonalizing the dynamical matrix

     q = (    0.500000000  -0.166666667   0.833333333 ) 

 **************************************************************************
     freq (    1) =       5.096590 [THz] =     170.003931 [cm-1]
     freq (    2) =       6.112794 [THz] =     203.900873 [cm-1]
     freq (    3) =       9.798969 [THz] =     326.858427 [cm-1]
     freq (    4) =      11.378157 [THz] =     379.534470 [cm-1]
     freq (    5) =      13.907507 [THz] =     463.904488 [cm-1]
     freq (    6) =      14.138389 [THz] =     471.605891 [cm-1]
 **************************************************************************

     Calculation of q =   -0.3333333  -1.0000000   0.0000000
 
     Parallelization info
     --------------------
     sticks:   dense  smooth     PW     G-vecs:    dense   smooth      PW
     Min          53      27     10                 1054      366      91
     Max          54      28     11                 1057      379      94
     Sum         859     433    169                16889     5985    1471
 


     bravais-lattice index     =            2
     lattice parameter (alat)  =      10.2800  a.u.
     unit-cell volume          =     271.5935 (a.u.)^3
     number of atoms/cell      =            2
     number of atomic types    =            1
     number of electrons       =         8.00
     number of Kohn-Sham states=            4
     kinetic-energy cutoff     =      30.0000  Ry
     charge density cutoff     =     240.0000  Ry
     Exchange-correlation      = SLA  PW   PBE  PBE ( 1  4  3  4 0 0)

     celldm(1)=  10.280000  celldm(2)=   0.000000  celldm(3)=   0.000000
     celldm(4)=   0.000000  celldm(5)=   0.000000  celldm(6)=   0.000000

     crystal axes: (cart. coord. in units of alat)
               a(1) = (  -0.500000   0.000000   0.500000 )  
               a(2) = (   0.000000   0.500000   0.500000 )  
               a(3) = (  -0.500000   0.500000   0.000000 )  

     reciprocal axes: (cart. coord. in units 2 pi/alat)
               b(1) = ( -1.000000 -1.000000  1.000000 )  
               b(2) = (  1.000000  1.000000  1.000000 )  
               b(3) = ( -1.000000  1.000000 -1.000000 )  


     PseudoPot. # 1 for Si read from file:
     ./si_pbe_v1.uspp.F.UPF.txt
     MD5 check sum: a056efeee980c13900f22a371efd63c1
     Pseudo is Ultrasoft + core correction, Zval =  4.0
     Generated by new atomic code, or converted to UPF format
     Using radial grid of  899 points,  6 beta functions with: 
                l(1) =   0
                l(2) =   0
                l(3) =   1
                l(4) =   1
                l(5) =   2
                l(6) =   2
     Q(r) pseudized with  8 coefficients,  rinner =    0.900   0.900   0.900
                                                       0.900   0.900

     atomic species   valence    mass     pseudopotential
        Si             4.00    28.08600     Si( 1.00)

     48 Sym. Ops., with inversion, found



   Cartesian axes

     site n.     atom                  positions (alat units)
         1           Si  tau(   1) = (   0.0000000   0.0000000   0.0000000  )
         2           Si  tau(   2) = (   0.2500000   0.2500000   0.2500000  )

     number of k points=  3456

     Number of k-points >= 100: set verbosity='high' to print them.

     Dense  grid:    16889 G-vectors     FFT dimensions: (  36,  36,  36)

     Smooth grid:     5985 G-vectors     FFT dimensions: (  25,  25,  25)

     Largest allocated arrays     est. size (Mb)     dimensions
        Kohn-Sham Wavefunctions         0.00 Mb     (      52,    4)
        NL pseudopotentials             0.03 Mb     (      52,   36)
        Each V/rho on FFT grid          0.06 Mb     (    3888)
        Each G-vector array             0.01 Mb     (    1057)
        G-vector shells                 0.00 Mb     (     201)
     Largest temporary arrays     est. size (Mb)     dimensions
        Auxiliary wavefunctions         0.01 Mb     (      52,   16)
        Each subspace H/S matrix        0.00 Mb     (       8,    8)
        Each <psi_i|beta_j> matrix      0.00 Mb     (      36,    4)

     The potential is recalculated from file :
     ./silicon/_ph0/silicon.10.280.save/charge-density.dat

     Starting wfc are    8 atomic wfcs

     Band Structure Calculation
     Davidson diagonalization with overlap

     ethr =  1.25E-10,  avg # of iterations = 12.3

     total cpu time spent up to now is      116.5 secs

     End of band structure calculation

     Number of k-points >= 100: set verbosity='high' to print the bands.

     highest occupied level (ev):     6.1003

     Writing output data file silicon.10.280.save

                                                                                

     bravais-lattice index     =            2
     lattice parameter (alat)  =      10.2800  a.u.
     unit-cell volume          =     271.5935 (a.u.)^3
     number of atoms/cell      =            2
     number of atomic types    =            1
     kinetic-energy cut-off    =      30.0000  Ry
     charge density cut-off    =     240.0000  Ry
     convergence threshold     =      1.0E-16
     beta                      =       0.7000
     number of iterations used =            4
     Exchange-correlation      = SLA  PW   PBE  PBE ( 1  4  3  4 0 0)


     celldm(1)=   10.28000  celldm(2)=    0.00000  celldm(3)=    0.00000
     celldm(4)=    0.00000  celldm(5)=    0.00000  celldm(6)=    0.00000

     crystal axes: (cart. coord. in units of alat)
               a(1) = ( -0.5000  0.0000  0.5000 )  
               a(2) = (  0.0000  0.5000  0.5000 )  
               a(3) = ( -0.5000  0.5000  0.0000 )  

     reciprocal axes: (cart. coord. in units 2 pi/alat)
               b(1) = ( -1.0000 -1.0000  1.0000 )  
               b(2) = (  1.0000  1.0000  1.0000 )  
               b(3) = ( -1.0000  1.0000 -1.0000 )  


     Atoms inside the unit cell: 

     Cartesian axes

     site n.  atom      mass           positions (alat units)
        1     Si  28.0860   tau(    1) = (    0.00000    0.00000    0.00000  )
        2     Si  28.0860   tau(    2) = (    0.25000    0.25000    0.25000  )

     Computing dynamical matrix for 
                    q = (  -0.3333333  -1.0000000   0.0000000 )
 
      4 Sym.Ops. (no q -> -q+G )


     G cutoff =  642.4476  (   1057 G-vectors)     FFT grid: ( 36, 36, 36)
     G cutoff =  321.2238  (    372 G-vectors)  smooth grid: ( 25, 25, 25)
     number of k points=  3456

     PseudoPot. # 1 for Si read from file:
     ./si_pbe_v1.uspp.F.UPF.txt
     MD5 check sum: a056efeee980c13900f22a371efd63c1
     Pseudo is Ultrasoft + core correction, Zval =  4.0
     Generated by new atomic code, or converted to UPF format
     Using radial grid of  899 points,  6 beta functions with: 
                l(1) =   0
                l(2) =   0
                l(3) =   1
                l(4) =   1
                l(5) =   2
                l(6) =   2
     Q(r) pseudized with  8 coefficients,  rinner =    0.900   0.900   0.900
                                                       0.900   0.900


     Atomic displacements:
     There are   3 irreducible representations

     Representation     1      2 modes -  To be done

     Representation     2      2 modes -  To be done

     Representation     3      2 modes -  To be done



     Alpha used in Ewald sum =   2.5000
     PHONON       : 16m30.05s CPU    18m19.44s WALL



     Representation #  1 modes #   1  2

     Self-consistent Calculation

      iter #   1 total cpu time :  1100.5 secs   av.it.:   5.6
      thresh= 1.000E-02 alpha_mix =  0.700 |ddv_scf|^2 =  4.228E-07

      iter #   2 total cpu time :  1102.2 secs   av.it.:  12.0
      thresh= 6.502E-05 alpha_mix =  0.700 |ddv_scf|^2 =  2.250E-07

      iter #   3 total cpu time :  1103.8 secs   av.it.:  11.6
      thresh= 4.743E-05 alpha_mix =  0.700 |ddv_scf|^2 =  3.199E-09

      iter #   4 total cpu time :  1113.5 secs   av.it.:  11.5
      thresh= 5.656E-06 alpha_mix =  0.700 |ddv_scf|^2 =  4.263E-10

      iter #   5 total cpu time :  1117.6 secs   av.it.:  11.4
      thresh= 2.065E-06 alpha_mix =  0.700 |ddv_scf|^2 =  1.012E-12

      iter #   6 total cpu time :  1119.2 secs   av.it.:  11.8
      thresh= 1.006E-07 alpha_mix =  0.700 |ddv_scf|^2 =  3.592E-14

      iter #   7 total cpu time :  1120.8 secs   av.it.:  11.4
      thresh= 1.895E-08 alpha_mix =  0.700 |ddv_scf|^2 =  2.853E-15

      iter #   8 total cpu time :  1122.4 secs   av.it.:  11.4
      thresh= 5.341E-09 alpha_mix =  0.700 |ddv_scf|^2 =  2.876E-17

     End of self-consistent calculation

     Convergence has been achieved 


     Representation #  2 modes #   3  4

     Self-consistent Calculation

      iter #   1 total cpu time :  1123.5 secs   av.it.:   5.8
      thresh= 1.000E-02 alpha_mix =  0.700 |ddv_scf|^2 =  1.072E-06

      iter #   2 total cpu time :  1125.1 secs   av.it.:  11.9
      thresh= 1.035E-04 alpha_mix =  0.700 |ddv_scf|^2 =  1.313E-06

      iter #   3 total cpu time :  1126.6 secs   av.it.:  11.1
      thresh= 1.146E-04 alpha_mix =  0.700 |ddv_scf|^2 =  4.763E-09

      iter #   4 total cpu time :  1128.2 secs   av.it.:  11.6
      thresh= 6.902E-06 alpha_mix =  0.700 |ddv_scf|^2 =  2.084E-10

      iter #   5 total cpu time :  1129.8 secs   av.it.:  11.5
      thresh= 1.444E-06 alpha_mix =  0.700 |ddv_scf|^2 =  3.968E-13

      iter #   6 total cpu time :  1139.1 secs   av.it.:  11.3
      thresh= 6.299E-08 alpha_mix =  0.700 |ddv_scf|^2 =  2.029E-14

      iter #   7 total cpu time :  1140.8 secs   av.it.:  11.2
      thresh= 1.424E-08 alpha_mix =  0.700 |ddv_scf|^2 =  2.889E-16

      iter #   8 total cpu time :  1143.6 secs   av.it.:  11.9
      thresh= 1.700E-09 alpha_mix =  0.700 |ddv_scf|^2 =  1.136E-16

      iter #   9 total cpu time :  1145.3 secs   av.it.:  11.5
      thresh= 1.066E-09 alpha_mix =  0.700 |ddv_scf|^2 =  8.220E-18

     End of self-consistent calculation

     Convergence has been achieved 


     Representation #  3 modes #   5  6

     Self-consistent Calculation

      iter #   1 total cpu time :  1146.6 secs   av.it.:   5.3
      thresh= 1.000E-02 alpha_mix =  0.700 |ddv_scf|^2 =  3.823E-07

      iter #   2 total cpu time :  1148.1 secs   av.it.:  12.0
      thresh= 6.183E-05 alpha_mix =  0.700 |ddv_scf|^2 =  4.647E-07

      iter #   3 total cpu time :  1149.5 secs   av.it.:  11.2
      thresh= 6.817E-05 alpha_mix =  0.700 |ddv_scf|^2 =  2.281E-09

      iter #   4 total cpu time :  1151.5 secs   av.it.:  11.6
      thresh= 4.776E-06 alpha_mix =  0.700 |ddv_scf|^2 =  2.417E-10

      iter #   5 total cpu time :  1156.0 secs   av.it.:  11.5
      thresh= 1.555E-06 alpha_mix =  0.700 |ddv_scf|^2 =  1.800E-12

      iter #   6 total cpu time :  1158.0 secs   av.it.:  11.8
      thresh= 1.341E-07 alpha_mix =  0.700 |ddv_scf|^2 =  4.819E-14

      iter #   7 total cpu time :  1159.6 secs   av.it.:  11.5
      thresh= 2.195E-08 alpha_mix =  0.700 |ddv_scf|^2 =  2.826E-15

      iter #   8 total cpu time :  1161.3 secs   av.it.:  11.5
      thresh= 5.316E-09 alpha_mix =  0.700 |ddv_scf|^2 =  2.193E-17

     End of self-consistent calculation

     Convergence has been achieved 
 
     Number of q in the star =   12
     List of q in the star:
          1  -0.333333333  -1.000000000   0.000000000
          2   0.000000000  -1.000000000  -0.333333333
          3   0.000000000  -1.000000000   0.333333333
          4   0.333333333  -1.000000000   0.000000000
          5  -1.000000000   0.000000000  -0.333333333
          6   1.000000000   0.000000000   0.333333333
          7   0.000000000   0.333333333   1.000000000
          8   0.000000000  -0.333333333  -1.000000000
          9  -1.000000000  -0.333333333   0.000000000
         10   1.000000000   0.333333333   0.000000000
         11  -0.333333333   0.000000000   1.000000000
         12   0.333333333   0.000000000   1.000000000

     Diagonalizing the dynamical matrix

     q = (   -0.333333333  -1.000000000   0.000000000 ) 

 **************************************************************************
     freq (    1) =       5.558066 [THz] =     185.397118 [cm-1]
     freq (    2) =       5.558066 [THz] =     185.397118 [cm-1]
     freq (    3) =      10.921008 [THz] =     364.285628 [cm-1]
     freq (    4) =      10.921008 [THz] =     364.285628 [cm-1]
     freq (    5) =      13.862908 [THz] =     462.416829 [cm-1]
     freq (    6) =      13.862908 [THz] =     462.416829 [cm-1]
 **************************************************************************
 
     init_run     :      0.77s CPU      0.96s WALL (      15 calls)
     electrons    :     56.46s CPU     58.60s WALL (      15 calls)

     Called by init_run:
     wfcinit      :      0.01s CPU      0.15s WALL (      15 calls)
     potinit      :      0.14s CPU      0.17s WALL (      15 calls)

     Called by electrons:
     c_bands      :     56.44s CPU     58.59s WALL (      15 calls)
     v_of_rho     :      0.04s CPU      0.04s WALL (      16 calls)
     newd         :      0.06s CPU      0.07s WALL (      16 calls)

     Called by c_bands:
     init_us_2    :      1.81s CPU      1.98s WALL (   84838 calls)
     cegterg      :     17.36s CPU     18.11s WALL (    2692 calls)

     Called by sum_band:

     Called by *egterg:
     h_psi        :     13.33s CPU     13.94s WALL (   38920 calls)
     s_psi        :     21.19s CPU     23.22s WALL ( 1785538 calls)
     g_psi        :      0.09s CPU      0.08s WALL (   33536 calls)
     cdiaghg      :      2.85s CPU      2.98s WALL (   36228 calls)

     Called by h_psi:
     add_vuspsi   :     12.50s CPU     13.65s WALL (  874820 calls)

     General routines
     calbec       :     51.63s CPU     56.60s WALL ( 1922204 calls)
     fft          :      1.36s CPU      1.49s WALL (   15523 calls)
     ffts         :      1.39s CPU      1.41s WALL (   10514 calls)
     fftw         :    234.44s CPU    255.31s WALL ( 7820786 calls)
     interpolate  :      0.34s CPU      0.36s WALL (    1790 calls)
     davcio       :     13.89s CPU     18.11s WALL (  381555 calls)
 
     Parallel routines
     fft_scatter  :    134.56s CPU    146.19s WALL ( 7846823 calls)
 
     PHONON       : 17m28.45s CPU    19m22.25s WALL

     INITIALIZATION: 
     phq_setup    :      0.18s CPU      0.36s WALL (      16 calls)
     phq_init     :     25.69s CPU     26.47s WALL (      16 calls)
 
     phq_init     :     25.69s CPU     26.47s WALL (      16 calls)
     set_drhoc    :      0.58s CPU      0.59s WALL (      48 calls)
     init_vloc    :      0.02s CPU      0.02s WALL (      16 calls)
     init_us_1    :      0.43s CPU      0.44s WALL (      16 calls)
     newd         :      0.06s CPU      0.07s WALL (      16 calls)
     dvanqq       :      0.49s CPU      0.51s WALL (      16 calls)
     drho         :     19.95s CPU     20.27s WALL (      16 calls)
 
     DYNAMICAL MATRIX:
     dynmat0      :      2.32s CPU      2.53s WALL (      16 calls)
     phqscf       :    928.27s CPU   1005.23s WALL (      16 calls)
     dynmatrix    :      0.24s CPU      0.58s WALL (      16 calls)
 
     phqscf       :    928.27s CPU   1005.23s WALL (      16 calls)
     solve_linter :    925.88s CPU    999.71s WALL (      76 calls)
     drhodv       :      2.15s CPU      2.58s WALL (      76 calls)
 
     dynmat0      :      2.32s CPU      2.53s WALL (      16 calls)
     dynmat_us    :      1.84s CPU      1.91s WALL (      16 calls)
     d2ionq       :      0.02s CPU      0.01s WALL (      16 calls)
     dynmatcc     :      0.43s CPU      0.43s WALL (      16 calls)
 
     dynmat_us    :      1.84s CPU      1.91s WALL (      16 calls)
     addusdynmat  :      0.00s CPU      0.00s WALL (      16 calls)
 
     phqscf       :    928.27s CPU   1005.23s WALL (      16 calls)
     solve_linter :    925.88s CPU    999.71s WALL (      76 calls)
 
     solve_linter :    925.88s CPU    999.71s WALL (      76 calls)
     dvqpsi_us    :      5.75s CPU      6.44s WALL (    8172 calls)
     ortho        :      5.18s CPU      5.89s WALL (   74794 calls)
     cgsolve      :    340.56s CPU    372.51s WALL (   74794 calls)
     incdrhoscf   :     26.70s CPU     28.33s WALL (   74794 calls)
     addusddens   :      3.42s CPU      3.55s WALL (     748 calls)
     vpsifft      :     17.14s CPU     18.67s WALL (   66478 calls)
     dv_of_drho   :      0.99s CPU      1.01s WALL (     833 calls)
     mix_pot      :      1.80s CPU      9.74s WALL (     679 calls)
     psymdvscf    :     10.52s CPU     10.49s WALL (     672 calls)
     newdq        :      3.57s CPU      3.55s WALL (     679 calls)
     adddvscf     :      1.36s CPU      1.46s WALL (   66622 calls)
     drhodvus     :      0.04s CPU      0.04s WALL (      76 calls)
 
     dvqpsi_us    :      5.75s CPU      6.44s WALL (    8172 calls)
     dvqpsi_us_on :      2.43s CPU      2.93s WALL (    8172 calls)
 
     cgsolve      :    340.56s CPU    372.51s WALL (   74794 calls)
     ch_psi       :    313.68s CPU    343.51s WALL (  835900 calls)
 
     ch_psi       :    313.68s CPU    343.51s WALL (  835900 calls)
     h_psiq       :    259.09s CPU    283.68s WALL (  835900 calls)
     last         :     51.50s CPU     56.74s WALL (  835900 calls)
 
     h_psiq       :    259.09s CPU    283.68s WALL (  835900 calls)
     firstfft     :    107.94s CPU    118.83s WALL ( 3136389 calls)
     secondfft    :     93.82s CPU    102.04s WALL ( 3136389 calls)
     add_vuspsi   :     12.50s CPU     13.65s WALL (  874820 calls)
 
     incdrhoscf   :     26.70s CPU     28.33s WALL (   74794 calls)
     addusdbec    :      3.26s CPU      3.46s WALL (   82918 calls)
 
     drhodvus     :      0.04s CPU      0.04s WALL (      76 calls)
 
      General routines
     calbec       :     51.63s CPU     56.60s WALL ( 1922204 calls)
     fft          :      1.36s CPU      1.49s WALL (   15523 calls)
     ffts         :      1.39s CPU      1.41s WALL (   10514 calls)
     fftw         :    234.44s CPU    255.31s WALL ( 7820786 calls)
     davcio       :     13.89s CPU     18.11s WALL (  381555 calls)
     write_rec    :      1.48s CPU     25.82s WALL (     755 calls)
 
 
     PHONON       : 17m28.45s CPU    19m22.25s WALL

 
   This run was terminated on:  12:56:34   7Apr2018            

=------------------------------------------------------------------------------=
   JOB DONE.
=------------------------------------------------------------------------------=
Application 30445649 resources: utime ~420307s, stime ~14679s, Rss ~31676, inblocks ~1035916772, outblocks ~475298582
