
     Program PHONON v.5.4.0 starts on  7Apr2018 at 13:57:53 

     This program is part of the open-source Quantum ESPRESSO suite
     for quantum simulation of materials; please cite
         "P. Giannozzi et al., J. Phys.:Condens. Matter 21 395502 (2009);
          URL http://www.quantum-espresso.org", 
     in publications or presentations arising from this work. More details at
     http://www.quantum-espresso.org/quote

     Parallel version (MPI & OpenMP), running on     384 processor cores
     Number of MPI processes:               384
     Threads/MPI process:                     1
     K-points division:     npool     =      24
     R & G space division:  proc/nbgrp/npool/nimage =      16

     Reading data from directory:
     ./silicon/silicon.10.328.save

   Info: using nr1, nr2, nr3 values from input

   Info: using nr1, nr2, nr3 values from input

     IMPORTANT: XC functional enforced from input :
     Exchange-correlation      = SLA  PW   PBE  PBE ( 1  4  3  4 0 0)
     Any further DFT definition will be discarded
     Please, verify this is what you really want

 
     Parallelization info
     --------------------
     sticks:   dense  smooth     PW     G-vecs:    dense   smooth      PW
     Min          54      27      9                 1078      381      76
     Max          55      28     10                 1080      392      79
     Sum         877     439    151                17261     6183    1243
 


     Dynamical matrices for ( 6, 6, 6)  uniform grid of q-points
     (  16q-points):
       N         xq(1)         xq(2)         xq(3) 
       1   0.000000000   0.000000000   0.000000000
       2  -0.166666667   0.166666667  -0.166666667
       3  -0.333333333   0.333333333  -0.333333333
       4   0.500000000  -0.500000000   0.500000000
       5   0.000000000   0.333333333   0.000000000
       6  -0.166666667   0.500000000  -0.166666667
       7   0.666666667  -0.333333333   0.666666667
       8   0.500000000  -0.166666667   0.500000000
       9   0.333333333   0.000000000   0.333333333
      10   0.000000000   0.666666667   0.000000000
      11   0.833333333  -0.166666667   0.833333333
      12   0.666666667  -0.000000000   0.666666667
      13   0.000000000  -1.000000000   0.000000000
      14   0.666666667  -0.333333333   1.000000000
      15   0.500000000  -0.166666667   0.833333333
      16  -0.333333333  -1.000000000   0.000000000

     Calculation of q =    0.0000000   0.0000000   0.0000000

                                                                                

     bravais-lattice index     =            2
     lattice parameter (alat)  =      10.3280  a.u.
     unit-cell volume          =     275.4157 (a.u.)^3
     number of atoms/cell      =            2
     number of atomic types    =            1
     kinetic-energy cut-off    =      30.0000  Ry
     charge density cut-off    =     240.0000  Ry
     convergence threshold     =      1.0E-16
     beta                      =       0.7000
     number of iterations used =            4
     Exchange-correlation      = SLA  PW   PBE  PBE ( 1  4  3  4 0 0)


     celldm(1)=   10.32800  celldm(2)=    0.00000  celldm(3)=    0.00000
     celldm(4)=    0.00000  celldm(5)=    0.00000  celldm(6)=    0.00000

     crystal axes: (cart. coord. in units of alat)
               a(1) = ( -0.5000  0.0000  0.5000 )  
               a(2) = (  0.0000  0.5000  0.5000 )  
               a(3) = ( -0.5000  0.5000  0.0000 )  

     reciprocal axes: (cart. coord. in units 2 pi/alat)
               b(1) = ( -1.0000 -1.0000  1.0000 )  
               b(2) = (  1.0000  1.0000  1.0000 )  
               b(3) = ( -1.0000  1.0000 -1.0000 )  


     Atoms inside the unit cell: 

     Cartesian axes

     site n.  atom      mass           positions (alat units)
        1     Si  28.0860   tau(    1) = (    0.00000    0.00000    0.00000  )
        2     Si  28.0860   tau(    2) = (    0.25000    0.25000    0.25000  )

     Computing dynamical matrix for 
                    q = (   0.0000000   0.0000000   0.0000000 )
 
     49 Sym.Ops. (with q -> -q+G )


     G cutoff =  648.4612  (   1079 G-vectors)     FFT grid: ( 40, 40, 40)
     G cutoff =  324.2306  (    388 G-vectors)  smooth grid: ( 25, 25, 25)
     number of k points=   182

     PseudoPot. # 1 for Si read from file:
     ./si_pbe_v1.uspp.F.UPF.txt
     MD5 check sum: a056efeee980c13900f22a371efd63c1
     Pseudo is Ultrasoft + core correction, Zval =  4.0
     Generated by new atomic code, or converted to UPF format
     Using radial grid of  899 points,  6 beta functions with: 
                l(1) =   0
                l(2) =   0
                l(3) =   1
                l(4) =   1
                l(5) =   2
                l(6) =   2
     Q(r) pseudized with  8 coefficients,  rinner =    0.900   0.900   0.900
                                                       0.900   0.900

     Mode symmetry, O_h (m-3m)  point group:


     Electric field:
     Dielectric constant
     Born effective charges in two ways 


     Atomic displacements:
     There are   2 irreducible representations

     Representation     1      3 modes -T_2g G_25' G_5+  To be done

     Representation     2      3 modes -T_1u G_15  G_4-  To be done



     Alpha used in Ewald sum =   2.5000
     PHONON       :     2.93s CPU         3.86s WALL


     Electric Fields Calculation

      iter #   1 total cpu time :     4.7 secs   av.it.:   6.5
      thresh= 1.000E-02 alpha_mix =  0.700 |ddv_scf|^2 =  6.810E-08

      iter #   2 total cpu time :     5.5 secs   av.it.:  12.2
      thresh= 2.610E-05 alpha_mix =  0.700 |ddv_scf|^2 =  3.899E-09

      iter #   3 total cpu time :     6.1 secs   av.it.:  12.1
      thresh= 6.244E-06 alpha_mix =  0.700 |ddv_scf|^2 =  2.501E-10

      iter #   4 total cpu time :     6.6 secs   av.it.:  11.3
      thresh= 1.581E-06 alpha_mix =  0.700 |ddv_scf|^2 =  1.621E-12

      iter #   5 total cpu time :     7.2 secs   av.it.:  11.5
      thresh= 1.273E-07 alpha_mix =  0.700 |ddv_scf|^2 =  1.551E-15

      iter #   6 total cpu time :     8.2 secs   av.it.:  11.3
      thresh= 3.938E-09 alpha_mix =  0.700 |ddv_scf|^2 =  1.027E-16

      iter #   7 total cpu time :     8.8 secs   av.it.:  11.8
      thresh= 1.013E-09 alpha_mix =  0.700 |ddv_scf|^2 =  1.605E-19

     End of electric fields calculation

          Dielectric constant in cartesian axis 

          (      12.970040076      -0.000000000      -0.000000000 )
          (      -0.000000000      12.970040076       0.000000000 )
          (       0.000000000      -0.000000000      12.970040076 )

          Effective charges (d Force / dE) in cartesian axis

           atom      1   Si 
      Ex  (        0.01942        0.00000        0.00000 )
      Ey  (        0.00000        0.01942       -0.00000 )
      Ez  (        0.00000       -0.00000        0.01942 )
           atom      2   Si 
      Ex  (        0.01942       -0.00000       -0.00000 )
      Ey  (       -0.00000        0.01942        0.00000 )
      Ez  (       -0.00000        0.00000        0.01942 )


     Representation #  1 modes #   1  2  3

     Self-consistent Calculation

      iter #   1 total cpu time :    10.0 secs   av.it.:   5.1
      thresh= 1.000E-02 alpha_mix =  0.700 |ddv_scf|^2 =  1.189E-08

      iter #   2 total cpu time :    19.6 secs   av.it.:  12.0
      thresh= 1.091E-05 alpha_mix =  0.700 |ddv_scf|^2 =  4.876E-10

      iter #   3 total cpu time :    20.8 secs   av.it.:  11.8
      thresh= 2.208E-06 alpha_mix =  0.700 |ddv_scf|^2 =  3.314E-11

      iter #   4 total cpu time :    21.4 secs   av.it.:  11.0
      thresh= 5.756E-07 alpha_mix =  0.700 |ddv_scf|^2 =  8.228E-14

      iter #   5 total cpu time :    22.0 secs   av.it.:  11.9
      thresh= 2.868E-08 alpha_mix =  0.700 |ddv_scf|^2 =  7.017E-16

      iter #   6 total cpu time :    22.7 secs   av.it.:  11.8
      thresh= 2.649E-09 alpha_mix =  0.700 |ddv_scf|^2 =  1.170E-17

     End of self-consistent calculation

     Convergence has been achieved 


     Representation #  2 modes #   4  5  6

     Self-consistent Calculation

      iter #   1 total cpu time :    23.4 secs   av.it.:   5.2
      thresh= 1.000E-02 alpha_mix =  0.700 |ddv_scf|^2 =  9.394E-09

      iter #   2 total cpu time :    24.0 secs   av.it.:  12.0
      thresh= 9.692E-06 alpha_mix =  0.700 |ddv_scf|^2 =  5.535E-10

      iter #   3 total cpu time :    24.6 secs   av.it.:  11.7
      thresh= 2.353E-06 alpha_mix =  0.700 |ddv_scf|^2 =  3.428E-11

      iter #   4 total cpu time :    36.0 secs   av.it.:  11.8
      thresh= 5.855E-07 alpha_mix =  0.700 |ddv_scf|^2 =  1.322E-13

      iter #   5 total cpu time :    44.3 secs   av.it.:  11.6
      thresh= 3.636E-08 alpha_mix =  0.700 |ddv_scf|^2 =  3.427E-16

      iter #   6 total cpu time :    45.2 secs   av.it.:  12.0
      thresh= 1.851E-09 alpha_mix =  0.700 |ddv_scf|^2 =  2.836E-17

     End of self-consistent calculation

     Convergence has been achieved 
 
     Number of q in the star =    1
     List of q in the star:
          1   0.000000000   0.000000000   0.000000000

          Dielectric constant in cartesian axis 

          (      12.970040076      -0.000000000      -0.000000000 )
          (      -0.000000000      12.970040076       0.000000000 )
          (       0.000000000      -0.000000000      12.970040076 )

          Effective charges (d Force / dE) in cartesian axis

           atom      1   Si 
      Ex  (        0.01942        0.00000        0.00000 )
      Ey  (        0.00000        0.01942       -0.00000 )
      Ez  (        0.00000       -0.00000        0.01942 )
           atom      2   Si 
      Ex  (        0.01942       -0.00000       -0.00000 )
      Ey  (       -0.00000        0.01942        0.00000 )
      Ez  (       -0.00000        0.00000        0.01942 )

          Effective charges (d P / du) in cartesian axis 

           atom      1   Si 
      Px  (       -0.00052        0.00000        0.00000 )
      Py  (        0.00000       -0.00052        0.00000 )
      Pz  (        0.00000       -0.00000       -0.00052 )
           atom      2   Si 
      Px  (       -0.00052        0.00000        0.00000 )
      Py  (        0.00000       -0.00052       -0.00000 )
      Pz  (        0.00000        0.00000       -0.00052 )

     Diagonalizing the dynamical matrix

     q = (    0.000000000   0.000000000   0.000000000 ) 

 **************************************************************************
     freq (    1) =      -0.122266 [THz] =      -4.078352 [cm-1]
     freq (    2) =      -0.122266 [THz] =      -4.078352 [cm-1]
     freq (    3) =      -0.122266 [THz] =      -4.078352 [cm-1]
     freq (    4) =      15.103945 [THz] =     503.813367 [cm-1]
     freq (    5) =      15.103945 [THz] =     503.813367 [cm-1]
     freq (    6) =      15.103945 [THz] =     503.813367 [cm-1]
 **************************************************************************

     Mode symmetry, O_h (m-3m)  point group:

     freq (  1 -  3) =         -4.1  [cm-1]   --> T_1u G_15  G_4- I  
     freq (  4 -  6) =        503.8  [cm-1]   --> T_2g G_25' G_5+ R  

     Calculation of q =   -0.1666667   0.1666667  -0.1666667
 
     Parallelization info
     --------------------
     sticks:   dense  smooth     PW     G-vecs:    dense   smooth      PW
     Min          54      27     10                 1078      378      84
     Max          55      28     11                 1080      393      86
     Sum         877     439    163                17261     6183    1363
 


     bravais-lattice index     =            2
     lattice parameter (alat)  =      10.3280  a.u.
     unit-cell volume          =     275.4157 (a.u.)^3
     number of atoms/cell      =            2
     number of atomic types    =            1
     number of electrons       =         8.00
     number of Kohn-Sham states=            4
     kinetic-energy cutoff     =      30.0000  Ry
     charge density cutoff     =     240.0000  Ry
     Exchange-correlation      = SLA  PW   PBE  PBE ( 1  4  3  4 0 0)

     celldm(1)=  10.328000  celldm(2)=   0.000000  celldm(3)=   0.000000
     celldm(4)=   0.000000  celldm(5)=   0.000000  celldm(6)=   0.000000

     crystal axes: (cart. coord. in units of alat)
               a(1) = (  -0.500000   0.000000   0.500000 )  
               a(2) = (   0.000000   0.500000   0.500000 )  
               a(3) = (  -0.500000   0.500000   0.000000 )  

     reciprocal axes: (cart. coord. in units 2 pi/alat)
               b(1) = ( -1.000000 -1.000000  1.000000 )  
               b(2) = (  1.000000  1.000000  1.000000 )  
               b(3) = ( -1.000000  1.000000 -1.000000 )  


     PseudoPot. # 1 for Si read from file:
     ./si_pbe_v1.uspp.F.UPF.txt
     MD5 check sum: a056efeee980c13900f22a371efd63c1
     Pseudo is Ultrasoft + core correction, Zval =  4.0
     Generated by new atomic code, or converted to UPF format
     Using radial grid of  899 points,  6 beta functions with: 
                l(1) =   0
                l(2) =   0
                l(3) =   1
                l(4) =   1
                l(5) =   2
                l(6) =   2
     Q(r) pseudized with  8 coefficients,  rinner =    0.900   0.900   0.900
                                                       0.900   0.900

     atomic species   valence    mass     pseudopotential
        Si             4.00    28.08600     Si( 1.00)

     48 Sym. Ops., with inversion, found



   Cartesian axes

     site n.     atom                  positions (alat units)
         1           Si  tau(   1) = (   0.0000000   0.0000000   0.0000000  )
         2           Si  tau(   2) = (   0.2500000   0.2500000   0.2500000  )

     number of k points=  2600

     Number of k-points >= 100: set verbosity='high' to print them.

     Dense  grid:    17261 G-vectors     FFT dimensions: (  40,  40,  40)

     Smooth grid:     6183 G-vectors     FFT dimensions: (  25,  25,  25)

     Largest allocated arrays     est. size (Mb)     dimensions
        Kohn-Sham Wavefunctions         0.00 Mb     (      56,    4)
        NL pseudopotentials             0.03 Mb     (      56,   36)
        Each V/rho on FFT grid          0.07 Mb     (    4800)
        Each G-vector array             0.01 Mb     (    1079)
        G-vector shells                 0.00 Mb     (     206)
     Largest temporary arrays     est. size (Mb)     dimensions
        Auxiliary wavefunctions         0.01 Mb     (      56,   16)
        Each subspace H/S matrix        0.00 Mb     (       8,    8)
        Each <psi_i|beta_j> matrix      0.00 Mb     (      36,    4)

     The potential is recalculated from file :
     ./silicon/_ph0/silicon.10.328.save/charge-density.dat

     Starting wfc are    8 atomic wfcs

     Band Structure Calculation
     Davidson diagonalization with overlap

     ethr =  1.25E-10,  avg # of iterations = 12.4

     total cpu time spent up to now is        1.6 secs

     End of band structure calculation

     Number of k-points >= 100: set verbosity='high' to print the bands.

     highest occupied level (ev):     5.9566

     Writing output data file silicon.10.328.save

                                                                                

     bravais-lattice index     =            2
     lattice parameter (alat)  =      10.3280  a.u.
     unit-cell volume          =     275.4157 (a.u.)^3
     number of atoms/cell      =            2
     number of atomic types    =            1
     kinetic-energy cut-off    =      30.0000  Ry
     charge density cut-off    =     240.0000  Ry
     convergence threshold     =      1.0E-16
     beta                      =       0.7000
     number of iterations used =            4
     Exchange-correlation      = SLA  PW   PBE  PBE ( 1  4  3  4 0 0)


     celldm(1)=   10.32800  celldm(2)=    0.00000  celldm(3)=    0.00000
     celldm(4)=    0.00000  celldm(5)=    0.00000  celldm(6)=    0.00000

     crystal axes: (cart. coord. in units of alat)
               a(1) = ( -0.5000  0.0000  0.5000 )  
               a(2) = (  0.0000  0.5000  0.5000 )  
               a(3) = ( -0.5000  0.5000  0.0000 )  

     reciprocal axes: (cart. coord. in units 2 pi/alat)
               b(1) = ( -1.0000 -1.0000  1.0000 )  
               b(2) = (  1.0000  1.0000  1.0000 )  
               b(3) = ( -1.0000  1.0000 -1.0000 )  


     Atoms inside the unit cell: 

     Cartesian axes

     site n.  atom      mass           positions (alat units)
        1     Si  28.0860   tau(    1) = (    0.00000    0.00000    0.00000  )
        2     Si  28.0860   tau(    2) = (    0.25000    0.25000    0.25000  )

     Computing dynamical matrix for 
                    q = (  -0.1666667   0.1666667  -0.1666667 )
 
      6 Sym.Ops. (no q -> -q+G )


     G cutoff =  648.4612  (   1079 G-vectors)     FFT grid: ( 40, 40, 40)
     G cutoff =  324.2306  (    383 G-vectors)  smooth grid: ( 25, 25, 25)
     number of k points=  2600

     PseudoPot. # 1 for Si read from file:
     ./si_pbe_v1.uspp.F.UPF.txt
     MD5 check sum: a056efeee980c13900f22a371efd63c1
     Pseudo is Ultrasoft + core correction, Zval =  4.0
     Generated by new atomic code, or converted to UPF format
     Using radial grid of  899 points,  6 beta functions with: 
                l(1) =   0
                l(2) =   0
                l(3) =   1
                l(4) =   1
                l(5) =   2
                l(6) =   2
     Q(r) pseudized with  8 coefficients,  rinner =    0.900   0.900   0.900
                                                       0.900   0.900

     Mode symmetry, C_3v (3m)   point group:


     Atomic displacements:
     There are   4 irreducible representations

     Representation     1      1 modes -A_1  L_1  To be done

     Representation     2      1 modes -A_1  L_1  To be done

     Representation     3      2 modes -E    L_3  To be done

     Representation     4      2 modes -E    L_3  To be done



     Alpha used in Ewald sum =   2.5000
     PHONON       :    45.99s CPU        50.28s WALL



     Representation #  1 mode #   1

     Self-consistent Calculation

      iter #   1 total cpu time :    50.9 secs   av.it.:   6.1
      thresh= 1.000E-02 alpha_mix =  0.700 |ddv_scf|^2 =  9.789E-04

      iter #   2 total cpu time :    51.5 secs   av.it.:   9.2
      thresh= 3.129E-03 alpha_mix =  0.700 |ddv_scf|^2 =  3.040E-02

      iter #   3 total cpu time :    52.0 secs   av.it.:   7.2
      thresh= 1.000E-02 alpha_mix =  0.700 |ddv_scf|^2 =  3.071E-07

      iter #   4 total cpu time :    52.6 secs   av.it.:   9.8
      thresh= 5.541E-05 alpha_mix =  0.700 |ddv_scf|^2 =  5.647E-09

      iter #   5 total cpu time :    53.2 secs   av.it.:  10.5
      thresh= 7.514E-06 alpha_mix =  0.700 |ddv_scf|^2 =  8.378E-10

      iter #   6 total cpu time :    54.1 secs   av.it.:   9.6
      thresh= 2.895E-06 alpha_mix =  0.700 |ddv_scf|^2 =  3.765E-10

      iter #   7 total cpu time :    54.6 secs   av.it.:   7.1
      thresh= 1.940E-06 alpha_mix =  0.700 |ddv_scf|^2 =  5.518E-11

      iter #   8 total cpu time :    55.2 secs   av.it.:   9.1
      thresh= 7.429E-07 alpha_mix =  0.700 |ddv_scf|^2 =  1.062E-12

      iter #   9 total cpu time :    57.2 secs   av.it.:   8.3
      thresh= 1.030E-07 alpha_mix =  0.700 |ddv_scf|^2 =  3.853E-14

      iter #  10 total cpu time :    57.8 secs   av.it.:   9.0
      thresh= 1.963E-08 alpha_mix =  0.700 |ddv_scf|^2 =  9.019E-15

      iter #  11 total cpu time :    58.3 secs   av.it.:   9.3
      thresh= 9.497E-09 alpha_mix =  0.700 |ddv_scf|^2 =  3.664E-16

      iter #  12 total cpu time :    59.0 secs   av.it.:   9.9
      thresh= 1.914E-09 alpha_mix =  0.700 |ddv_scf|^2 =  2.593E-17

     End of self-consistent calculation

     Convergence has been achieved 


     Representation #  2 mode #   2

     Self-consistent Calculation

      iter #   1 total cpu time :    59.8 secs   av.it.:   6.1
      thresh= 1.000E-02 alpha_mix =  0.700 |ddv_scf|^2 =  9.789E-04

      iter #   2 total cpu time :    68.4 secs   av.it.:   9.2
      thresh= 3.129E-03 alpha_mix =  0.700 |ddv_scf|^2 =  3.040E-02

      iter #   3 total cpu time :    70.3 secs   av.it.:   7.2
      thresh= 1.000E-02 alpha_mix =  0.700 |ddv_scf|^2 =  3.071E-07

      iter #   4 total cpu time :    71.2 secs   av.it.:   9.8
      thresh= 5.541E-05 alpha_mix =  0.700 |ddv_scf|^2 =  5.647E-09

      iter #   5 total cpu time :    72.6 secs   av.it.:  10.5
      thresh= 7.514E-06 alpha_mix =  0.700 |ddv_scf|^2 =  8.378E-10

      iter #   6 total cpu time :    73.2 secs   av.it.:   9.6
      thresh= 2.895E-06 alpha_mix =  0.700 |ddv_scf|^2 =  3.765E-10

      iter #   7 total cpu time :    73.7 secs   av.it.:   7.1
      thresh= 1.940E-06 alpha_mix =  0.700 |ddv_scf|^2 =  5.518E-11

      iter #   8 total cpu time :    74.2 secs   av.it.:   9.1
      thresh= 7.429E-07 alpha_mix =  0.700 |ddv_scf|^2 =  1.062E-12

      iter #   9 total cpu time :    75.5 secs   av.it.:   8.3
      thresh= 1.030E-07 alpha_mix =  0.700 |ddv_scf|^2 =  3.853E-14

      iter #  10 total cpu time :    77.2 secs   av.it.:   9.0
      thresh= 1.963E-08 alpha_mix =  0.700 |ddv_scf|^2 =  9.019E-15

      iter #  11 total cpu time :    77.8 secs   av.it.:   9.3
      thresh= 9.497E-09 alpha_mix =  0.700 |ddv_scf|^2 =  3.664E-16

      iter #  12 total cpu time :    78.4 secs   av.it.:   9.9
      thresh= 1.914E-09 alpha_mix =  0.700 |ddv_scf|^2 =  2.593E-17

     End of self-consistent calculation

     Convergence has been achieved 


     Representation #  3 modes #   3  4

     Self-consistent Calculation

      iter #   1 total cpu time :    79.2 secs   av.it.:   5.3
      thresh= 1.000E-02 alpha_mix =  0.700 |ddv_scf|^2 =  2.892E-08

      iter #   2 total cpu time :    80.4 secs   av.it.:  11.8
      thresh= 1.701E-05 alpha_mix =  0.700 |ddv_scf|^2 =  1.635E-09

      iter #   3 total cpu time :    81.8 secs   av.it.:  11.6
      thresh= 4.043E-06 alpha_mix =  0.700 |ddv_scf|^2 =  9.921E-11

      iter #   4 total cpu time :    88.0 secs   av.it.:  11.3
      thresh= 9.960E-07 alpha_mix =  0.700 |ddv_scf|^2 =  4.255E-13

      iter #   5 total cpu time :    89.5 secs   av.it.:  11.7
      thresh= 6.523E-08 alpha_mix =  0.700 |ddv_scf|^2 =  2.793E-14

      iter #   6 total cpu time :    90.7 secs   av.it.:  11.6
      thresh= 1.671E-08 alpha_mix =  0.700 |ddv_scf|^2 =  1.626E-16

      iter #   7 total cpu time :    91.9 secs   av.it.:  11.0
      thresh= 1.275E-09 alpha_mix =  0.700 |ddv_scf|^2 =  1.371E-17

     End of self-consistent calculation

     Convergence has been achieved 


     Representation #  4 modes #   5  6

     Self-consistent Calculation

      iter #   1 total cpu time :    92.9 secs   av.it.:   5.3
      thresh= 1.000E-02 alpha_mix =  0.700 |ddv_scf|^2 =  2.893E-08

      iter #   2 total cpu time :    94.2 secs   av.it.:  12.0
      thresh= 1.701E-05 alpha_mix =  0.700 |ddv_scf|^2 =  1.636E-09

      iter #   3 total cpu time :    95.4 secs   av.it.:  11.9
      thresh= 4.044E-06 alpha_mix =  0.700 |ddv_scf|^2 =  9.922E-11

      iter #   4 total cpu time :    96.6 secs   av.it.:  11.6
      thresh= 9.961E-07 alpha_mix =  0.700 |ddv_scf|^2 =  4.253E-13

      iter #   5 total cpu time :    97.8 secs   av.it.:  11.9
      thresh= 6.522E-08 alpha_mix =  0.700 |ddv_scf|^2 =  2.790E-14

      iter #   6 total cpu time :    99.1 secs   av.it.:  11.8
      thresh= 1.670E-08 alpha_mix =  0.700 |ddv_scf|^2 =  1.621E-16

      iter #   7 total cpu time :   100.3 secs   av.it.:  11.1
      thresh= 1.273E-09 alpha_mix =  0.700 |ddv_scf|^2 =  1.367E-17

     End of self-consistent calculation

     Convergence has been achieved 
 
     Number of q in the star =    8
     List of q in the star:
          1  -0.166666667   0.166666667  -0.166666667
          2   0.166666667   0.166666667   0.166666667
          3  -0.166666667  -0.166666667  -0.166666667
          4   0.166666667  -0.166666667   0.166666667
          5   0.166666667  -0.166666667  -0.166666667
          6   0.166666667   0.166666667  -0.166666667
          7  -0.166666667  -0.166666667   0.166666667
          8  -0.166666667   0.166666667   0.166666667

     Diagonalizing the dynamical matrix

     q = (   -0.166666667   0.166666667  -0.166666667 ) 

 **************************************************************************
     freq (    1) =       2.225739 [THz] =      74.242654 [cm-1]
     freq (    2) =       2.225739 [THz] =      74.242654 [cm-1]
     freq (    3) =       4.659332 [THz] =     155.418590 [cm-1]
     freq (    4) =      14.720093 [THz] =     491.009455 [cm-1]
     freq (    5) =      14.740190 [THz] =     491.679823 [cm-1]
     freq (    6) =      14.740190 [THz] =     491.679823 [cm-1]
 **************************************************************************

     Mode symmetry, C_3v (3m)   point group:

     freq (  1 -  2) =         74.2  [cm-1]   --> E    L_3           
     freq (  3 -  3) =        155.4  [cm-1]   --> A_1  L_1           
     freq (  4 -  4) =        491.0  [cm-1]   --> A_1  L_1           
     freq (  5 -  6) =        491.7  [cm-1]   --> E    L_3           

     Calculation of q =   -0.3333333   0.3333333  -0.3333333
 
     Parallelization info
     --------------------
     sticks:   dense  smooth     PW     G-vecs:    dense   smooth      PW
     Min          54      27     10                 1078      382      87
     Max          55      28     11                 1080      390      90
     Sum         877     439    163                17261     6183    1411
 


     bravais-lattice index     =            2
     lattice parameter (alat)  =      10.3280  a.u.
     unit-cell volume          =     275.4157 (a.u.)^3
     number of atoms/cell      =            2
     number of atomic types    =            1
     number of electrons       =         8.00
     number of Kohn-Sham states=            4
     kinetic-energy cutoff     =      30.0000  Ry
     charge density cutoff     =     240.0000  Ry
     Exchange-correlation      = SLA  PW   PBE  PBE ( 1  4  3  4 0 0)

     celldm(1)=  10.328000  celldm(2)=   0.000000  celldm(3)=   0.000000
     celldm(4)=   0.000000  celldm(5)=   0.000000  celldm(6)=   0.000000

     crystal axes: (cart. coord. in units of alat)
               a(1) = (  -0.500000   0.000000   0.500000 )  
               a(2) = (   0.000000   0.500000   0.500000 )  
               a(3) = (  -0.500000   0.500000   0.000000 )  

     reciprocal axes: (cart. coord. in units 2 pi/alat)
               b(1) = ( -1.000000 -1.000000  1.000000 )  
               b(2) = (  1.000000  1.000000  1.000000 )  
               b(3) = ( -1.000000  1.000000 -1.000000 )  


     PseudoPot. # 1 for Si read from file:
     ./si_pbe_v1.uspp.F.UPF.txt
     MD5 check sum: a056efeee980c13900f22a371efd63c1
     Pseudo is Ultrasoft + core correction, Zval =  4.0
     Generated by new atomic code, or converted to UPF format
     Using radial grid of  899 points,  6 beta functions with: 
                l(1) =   0
                l(2) =   0
                l(3) =   1
                l(4) =   1
                l(5) =   2
                l(6) =   2
     Q(r) pseudized with  8 coefficients,  rinner =    0.900   0.900   0.900
                                                       0.900   0.900

     atomic species   valence    mass     pseudopotential
        Si             4.00    28.08600     Si( 1.00)

     48 Sym. Ops., with inversion, found



   Cartesian axes

     site n.     atom                  positions (alat units)
         1           Si  tau(   1) = (   0.0000000   0.0000000   0.0000000  )
         2           Si  tau(   2) = (   0.2500000   0.2500000   0.2500000  )

     number of k points=  2600

     Number of k-points >= 100: set verbosity='high' to print them.

     Dense  grid:    17261 G-vectors     FFT dimensions: (  40,  40,  40)

     Smooth grid:     6183 G-vectors     FFT dimensions: (  25,  25,  25)

     Largest allocated arrays     est. size (Mb)     dimensions
        Kohn-Sham Wavefunctions         0.00 Mb     (      55,    4)
        NL pseudopotentials             0.03 Mb     (      55,   36)
        Each V/rho on FFT grid          0.07 Mb     (    4800)
        Each G-vector array             0.01 Mb     (    1079)
        G-vector shells                 0.00 Mb     (     211)
     Largest temporary arrays     est. size (Mb)     dimensions
        Auxiliary wavefunctions         0.01 Mb     (      55,   16)
        Each subspace H/S matrix        0.00 Mb     (       8,    8)
        Each <psi_i|beta_j> matrix      0.00 Mb     (      36,    4)

     The potential is recalculated from file :
     ./silicon/_ph0/silicon.10.328.save/charge-density.dat

     Starting wfc are    8 atomic wfcs

     Band Structure Calculation
     Davidson diagonalization with overlap

     ethr =  1.25E-10,  avg # of iterations = 12.4

     total cpu time spent up to now is        5.5 secs

     End of band structure calculation

     Number of k-points >= 100: set verbosity='high' to print the bands.

     highest occupied level (ev):     5.9566

     Writing output data file silicon.10.328.save

                                                                                

     bravais-lattice index     =            2
     lattice parameter (alat)  =      10.3280  a.u.
     unit-cell volume          =     275.4157 (a.u.)^3
     number of atoms/cell      =            2
     number of atomic types    =            1
     kinetic-energy cut-off    =      30.0000  Ry
     charge density cut-off    =     240.0000  Ry
     convergence threshold     =      1.0E-16
     beta                      =       0.7000
     number of iterations used =            4
     Exchange-correlation      = SLA  PW   PBE  PBE ( 1  4  3  4 0 0)


     celldm(1)=   10.32800  celldm(2)=    0.00000  celldm(3)=    0.00000
     celldm(4)=    0.00000  celldm(5)=    0.00000  celldm(6)=    0.00000

     crystal axes: (cart. coord. in units of alat)
               a(1) = ( -0.5000  0.0000  0.5000 )  
               a(2) = (  0.0000  0.5000  0.5000 )  
               a(3) = ( -0.5000  0.5000  0.0000 )  

     reciprocal axes: (cart. coord. in units 2 pi/alat)
               b(1) = ( -1.0000 -1.0000  1.0000 )  
               b(2) = (  1.0000  1.0000  1.0000 )  
               b(3) = ( -1.0000  1.0000 -1.0000 )  


     Atoms inside the unit cell: 

     Cartesian axes

     site n.  atom      mass           positions (alat units)
        1     Si  28.0860   tau(    1) = (    0.00000    0.00000    0.00000  )
        2     Si  28.0860   tau(    2) = (    0.25000    0.25000    0.25000  )

     Computing dynamical matrix for 
                    q = (  -0.3333333   0.3333333  -0.3333333 )
 
      6 Sym.Ops. (no q -> -q+G )


     G cutoff =  648.4612  (   1079 G-vectors)     FFT grid: ( 40, 40, 40)
     G cutoff =  324.2306  (    388 G-vectors)  smooth grid: ( 25, 25, 25)
     number of k points=  2600

     PseudoPot. # 1 for Si read from file:
     ./si_pbe_v1.uspp.F.UPF.txt
     MD5 check sum: a056efeee980c13900f22a371efd63c1
     Pseudo is Ultrasoft + core correction, Zval =  4.0
     Generated by new atomic code, or converted to UPF format
     Using radial grid of  899 points,  6 beta functions with: 
                l(1) =   0
                l(2) =   0
                l(3) =   1
                l(4) =   1
                l(5) =   2
                l(6) =   2
     Q(r) pseudized with  8 coefficients,  rinner =    0.900   0.900   0.900
                                                       0.900   0.900

     Mode symmetry, C_3v (3m)   point group:


     Atomic displacements:
     There are   4 irreducible representations

     Representation     1      1 modes -A_1  L_1  To be done

     Representation     2      1 modes -A_1  L_1  To be done

     Representation     3      2 modes -E    L_3  To be done

     Representation     4      2 modes -E    L_3  To be done



     Alpha used in Ewald sum =   2.5000
     PHONON       :  1m35.38s CPU     1m45.94s WALL



     Representation #  1 mode #   1

     Self-consistent Calculation

      iter #   1 total cpu time :   106.6 secs   av.it.:   6.0
      thresh= 1.000E-02 alpha_mix =  0.700 |ddv_scf|^2 =  6.263E-05

      iter #   2 total cpu time :   107.4 secs   av.it.:  10.2
      thresh= 7.914E-04 alpha_mix =  0.700 |ddv_scf|^2 =  4.805E-04

      iter #   3 total cpu time :   107.9 secs   av.it.:   8.4
      thresh= 2.192E-03 alpha_mix =  0.700 |ddv_scf|^2 =  9.675E-08

      iter #   4 total cpu time :   108.5 secs   av.it.:  10.5
      thresh= 3.111E-05 alpha_mix =  0.700 |ddv_scf|^2 =  2.244E-09

      iter #   5 total cpu time :   109.1 secs   av.it.:  10.7
      thresh= 4.738E-06 alpha_mix =  0.700 |ddv_scf|^2 =  6.086E-11

      iter #   6 total cpu time :   109.8 secs   av.it.:  10.9
      thresh= 7.801E-07 alpha_mix =  0.700 |ddv_scf|^2 =  3.546E-12

      iter #   7 total cpu time :   111.0 secs   av.it.:  11.0
      thresh= 1.883E-07 alpha_mix =  0.700 |ddv_scf|^2 =  3.924E-12

      iter #   8 total cpu time :   112.0 secs   av.it.:   8.7
      thresh= 1.981E-07 alpha_mix =  0.700 |ddv_scf|^2 =  1.646E-13

      iter #   9 total cpu time :   112.6 secs   av.it.:  10.1
      thresh= 4.057E-08 alpha_mix =  0.700 |ddv_scf|^2 =  2.796E-13

      iter #  10 total cpu time :   113.4 secs   av.it.:   9.2
      thresh= 5.287E-08 alpha_mix =  0.700 |ddv_scf|^2 =  1.782E-15

      iter #  11 total cpu time :   114.4 secs   av.it.:  10.4
      thresh= 4.221E-09 alpha_mix =  0.700 |ddv_scf|^2 =  3.876E-16

      iter #  12 total cpu time :   115.0 secs   av.it.:  10.0
      thresh= 1.969E-09 alpha_mix =  0.700 |ddv_scf|^2 =  1.004E-17

     End of self-consistent calculation

     Convergence has been achieved 


     Representation #  2 mode #   2

     Self-consistent Calculation

      iter #   1 total cpu time :   115.6 secs   av.it.:   6.0
      thresh= 1.000E-02 alpha_mix =  0.700 |ddv_scf|^2 =  6.263E-05

      iter #   2 total cpu time :   116.2 secs   av.it.:  10.2
      thresh= 7.914E-04 alpha_mix =  0.700 |ddv_scf|^2 =  4.805E-04

      iter #   3 total cpu time :   116.8 secs   av.it.:   8.4
      thresh= 2.192E-03 alpha_mix =  0.700 |ddv_scf|^2 =  9.675E-08

      iter #   4 total cpu time :   117.4 secs   av.it.:  10.5
      thresh= 3.111E-05 alpha_mix =  0.700 |ddv_scf|^2 =  2.244E-09

      iter #   5 total cpu time :   118.0 secs   av.it.:  10.7
      thresh= 4.738E-06 alpha_mix =  0.700 |ddv_scf|^2 =  6.086E-11

      iter #   6 total cpu time :   118.6 secs   av.it.:  10.9
      thresh= 7.801E-07 alpha_mix =  0.700 |ddv_scf|^2 =  3.546E-12

      iter #   7 total cpu time :   119.3 secs   av.it.:  11.0
      thresh= 1.883E-07 alpha_mix =  0.700 |ddv_scf|^2 =  3.924E-12

      iter #   8 total cpu time :   119.8 secs   av.it.:   8.7
      thresh= 1.981E-07 alpha_mix =  0.700 |ddv_scf|^2 =  1.646E-13

      iter #   9 total cpu time :   121.7 secs   av.it.:  10.1
      thresh= 4.057E-08 alpha_mix =  0.700 |ddv_scf|^2 =  2.796E-13

      iter #  10 total cpu time :   122.3 secs   av.it.:   9.2
      thresh= 5.287E-08 alpha_mix =  0.700 |ddv_scf|^2 =  1.782E-15

      iter #  11 total cpu time :   123.7 secs   av.it.:  10.4
      thresh= 4.221E-09 alpha_mix =  0.700 |ddv_scf|^2 =  3.876E-16

      iter #  12 total cpu time :   124.3 secs   av.it.:  10.0
      thresh= 1.969E-09 alpha_mix =  0.700 |ddv_scf|^2 =  1.004E-17

     End of self-consistent calculation

     Convergence has been achieved 


     Representation #  3 modes #   3  4

     Self-consistent Calculation

      iter #   1 total cpu time :   125.2 secs   av.it.:   5.3
      thresh= 1.000E-02 alpha_mix =  0.700 |ddv_scf|^2 =  3.771E-08

      iter #   2 total cpu time :   129.0 secs   av.it.:  11.8
      thresh= 1.942E-05 alpha_mix =  0.700 |ddv_scf|^2 =  2.680E-09

      iter #   3 total cpu time :   130.8 secs   av.it.:  11.6
      thresh= 5.177E-06 alpha_mix =  0.700 |ddv_scf|^2 =  1.235E-10

      iter #   4 total cpu time :   133.0 secs   av.it.:  11.3
      thresh= 1.111E-06 alpha_mix =  0.700 |ddv_scf|^2 =  4.394E-13

      iter #   5 total cpu time :   137.3 secs   av.it.:  11.6
      thresh= 6.629E-08 alpha_mix =  0.700 |ddv_scf|^2 =  2.845E-14

      iter #   6 total cpu time :   139.1 secs   av.it.:  11.4
      thresh= 1.687E-08 alpha_mix =  0.700 |ddv_scf|^2 =  2.009E-16

      iter #   7 total cpu time :   140.5 secs   av.it.:  11.0
      thresh= 1.418E-09 alpha_mix =  0.700 |ddv_scf|^2 =  1.397E-17

     End of self-consistent calculation

     Convergence has been achieved 


     Representation #  4 modes #   5  6

     Self-consistent Calculation

      iter #   1 total cpu time :   141.5 secs   av.it.:   5.3
      thresh= 1.000E-02 alpha_mix =  0.700 |ddv_scf|^2 =  3.771E-08

      iter #   2 total cpu time :   142.9 secs   av.it.:  12.1
      thresh= 1.942E-05 alpha_mix =  0.700 |ddv_scf|^2 =  2.679E-09

      iter #   3 total cpu time :   144.2 secs   av.it.:  11.9
      thresh= 5.176E-06 alpha_mix =  0.700 |ddv_scf|^2 =  1.235E-10

      iter #   4 total cpu time :   146.1 secs   av.it.:  11.5
      thresh= 1.111E-06 alpha_mix =  0.700 |ddv_scf|^2 =  4.397E-13

      iter #   5 total cpu time :   147.4 secs   av.it.:  11.8
      thresh= 6.631E-08 alpha_mix =  0.700 |ddv_scf|^2 =  2.847E-14

      iter #   6 total cpu time :   148.7 secs   av.it.:  11.6
      thresh= 1.687E-08 alpha_mix =  0.700 |ddv_scf|^2 =  2.003E-16

      iter #   7 total cpu time :   150.5 secs   av.it.:  11.3
      thresh= 1.415E-09 alpha_mix =  0.700 |ddv_scf|^2 =  1.394E-17

     End of self-consistent calculation

     Convergence has been achieved 
 
     Number of q in the star =    8
     List of q in the star:
          1  -0.333333333   0.333333333  -0.333333333
          2   0.333333333   0.333333333   0.333333333
          3  -0.333333333  -0.333333333  -0.333333333
          4   0.333333333  -0.333333333   0.333333333
          5   0.333333333  -0.333333333  -0.333333333
          6   0.333333333   0.333333333  -0.333333333
          7  -0.333333333  -0.333333333   0.333333333
          8  -0.333333333   0.333333333   0.333333333

     Diagonalizing the dynamical matrix

     q = (   -0.333333333   0.333333333  -0.333333333 ) 

 **************************************************************************
     freq (    1) =       3.161577 [THz] =     105.458855 [cm-1]
     freq (    2) =       3.161577 [THz] =     105.458855 [cm-1]
     freq (    3) =       8.604317 [THz] =     287.009116 [cm-1]
     freq (    4) =      13.560786 [THz] =     452.339139 [cm-1]
     freq (    5) =      14.402905 [THz] =     480.429209 [cm-1]
     freq (    6) =      14.402905 [THz] =     480.429209 [cm-1]
 **************************************************************************

     Mode symmetry, C_3v (3m)   point group:

     freq (  1 -  2) =        105.5  [cm-1]   --> E    L_3           
     freq (  3 -  3) =        287.0  [cm-1]   --> A_1  L_1           
     freq (  4 -  4) =        452.3  [cm-1]   --> A_1  L_1           
     freq (  5 -  6) =        480.4  [cm-1]   --> E    L_3           

     Calculation of q =    0.5000000  -0.5000000   0.5000000
 
     Parallelization info
     --------------------
     sticks:   dense  smooth     PW     G-vecs:    dense   smooth      PW
     Min          54      27     10                 1078      380      91
     Max          55      28     11                 1080      394      94
     Sum         877     439    169                17261     6183    1471
 


     bravais-lattice index     =            2
     lattice parameter (alat)  =      10.3280  a.u.
     unit-cell volume          =     275.4157 (a.u.)^3
     number of atoms/cell      =            2
     number of atomic types    =            1
     number of electrons       =         8.00
     number of Kohn-Sham states=            4
     kinetic-energy cutoff     =      30.0000  Ry
     charge density cutoff     =     240.0000  Ry
     Exchange-correlation      = SLA  PW   PBE  PBE ( 1  4  3  4 0 0)

     celldm(1)=  10.328000  celldm(2)=   0.000000  celldm(3)=   0.000000
     celldm(4)=   0.000000  celldm(5)=   0.000000  celldm(6)=   0.000000

     crystal axes: (cart. coord. in units of alat)
               a(1) = (  -0.500000   0.000000   0.500000 )  
               a(2) = (   0.000000   0.500000   0.500000 )  
               a(3) = (  -0.500000   0.500000   0.000000 )  

     reciprocal axes: (cart. coord. in units 2 pi/alat)
               b(1) = ( -1.000000 -1.000000  1.000000 )  
               b(2) = (  1.000000  1.000000  1.000000 )  
               b(3) = ( -1.000000  1.000000 -1.000000 )  


     PseudoPot. # 1 for Si read from file:
     ./si_pbe_v1.uspp.F.UPF.txt
     MD5 check sum: a056efeee980c13900f22a371efd63c1
     Pseudo is Ultrasoft + core correction, Zval =  4.0
     Generated by new atomic code, or converted to UPF format
     Using radial grid of  899 points,  6 beta functions with: 
                l(1) =   0
                l(2) =   0
                l(3) =   1
                l(4) =   1
                l(5) =   2
                l(6) =   2
     Q(r) pseudized with  8 coefficients,  rinner =    0.900   0.900   0.900
                                                       0.900   0.900

     atomic species   valence    mass     pseudopotential
        Si             4.00    28.08600     Si( 1.00)

     48 Sym. Ops., with inversion, found



   Cartesian axes

     site n.     atom                  positions (alat units)
         1           Si  tau(   1) = (   0.0000000   0.0000000   0.0000000  )
         2           Si  tau(   2) = (   0.2500000   0.2500000   0.2500000  )

     number of k points=  1300

     Number of k-points >= 100: set verbosity='high' to print them.

     Dense  grid:    17261 G-vectors     FFT dimensions: (  40,  40,  40)

     Smooth grid:     6183 G-vectors     FFT dimensions: (  25,  25,  25)

     Largest allocated arrays     est. size (Mb)     dimensions
        Kohn-Sham Wavefunctions         0.00 Mb     (      58,    4)
        NL pseudopotentials             0.03 Mb     (      58,   36)
        Each V/rho on FFT grid          0.07 Mb     (    4800)
        Each G-vector array             0.01 Mb     (    1079)
        G-vector shells                 0.00 Mb     (     207)
     Largest temporary arrays     est. size (Mb)     dimensions
        Auxiliary wavefunctions         0.01 Mb     (      58,   16)
        Each subspace H/S matrix        0.00 Mb     (       8,    8)
        Each <psi_i|beta_j> matrix      0.00 Mb     (      36,    4)

     The potential is recalculated from file :
     ./silicon/_ph0/silicon.10.328.save/charge-density.dat

     Starting wfc are    8 atomic wfcs

     Band Structure Calculation
     Davidson diagonalization with overlap

     ethr =  1.25E-10,  avg # of iterations = 12.4

     total cpu time spent up to now is        9.0 secs

     End of band structure calculation

     Number of k-points >= 100: set verbosity='high' to print the bands.

     highest occupied level (ev):     5.9566

     Writing output data file silicon.10.328.save

                                                                                

     bravais-lattice index     =            2
     lattice parameter (alat)  =      10.3280  a.u.
     unit-cell volume          =     275.4157 (a.u.)^3
     number of atoms/cell      =            2
     number of atomic types    =            1
     kinetic-energy cut-off    =      30.0000  Ry
     charge density cut-off    =     240.0000  Ry
     convergence threshold     =      1.0E-16
     beta                      =       0.7000
     number of iterations used =            4
     Exchange-correlation      = SLA  PW   PBE  PBE ( 1  4  3  4 0 0)


     celldm(1)=   10.32800  celldm(2)=    0.00000  celldm(3)=    0.00000
     celldm(4)=    0.00000  celldm(5)=    0.00000  celldm(6)=    0.00000

     crystal axes: (cart. coord. in units of alat)
               a(1) = ( -0.5000  0.0000  0.5000 )  
               a(2) = (  0.0000  0.5000  0.5000 )  
               a(3) = ( -0.5000  0.5000  0.0000 )  

     reciprocal axes: (cart. coord. in units 2 pi/alat)
               b(1) = ( -1.0000 -1.0000  1.0000 )  
               b(2) = (  1.0000  1.0000  1.0000 )  
               b(3) = ( -1.0000  1.0000 -1.0000 )  


     Atoms inside the unit cell: 

     Cartesian axes

     site n.  atom      mass           positions (alat units)
        1     Si  28.0860   tau(    1) = (    0.00000    0.00000    0.00000  )
        2     Si  28.0860   tau(    2) = (    0.25000    0.25000    0.25000  )

     Computing dynamical matrix for 
                    q = (   0.5000000  -0.5000000   0.5000000 )
 
     13 Sym.Ops. (with q -> -q+G )


     G cutoff =  648.4612  (   1079 G-vectors)     FFT grid: ( 40, 40, 40)
     G cutoff =  324.2306  (    390 G-vectors)  smooth grid: ( 25, 25, 25)
     number of k points=  1300

     PseudoPot. # 1 for Si read from file:
     ./si_pbe_v1.uspp.F.UPF.txt
     MD5 check sum: a056efeee980c13900f22a371efd63c1
     Pseudo is Ultrasoft + core correction, Zval =  4.0
     Generated by new atomic code, or converted to UPF format
     Using radial grid of  899 points,  6 beta functions with: 
                l(1) =   0
                l(2) =   0
                l(3) =   1
                l(4) =   1
                l(5) =   2
                l(6) =   2
     Q(r) pseudized with  8 coefficients,  rinner =    0.900   0.900   0.900
                                                       0.900   0.900


     Atomic displacements:
     There are   4 irreducible representations

     Representation     1      1 modes -  To be done

     Representation     2      1 modes -  To be done

     Representation     3      2 modes -  To be done

     Representation     4      2 modes -  To be done



     Alpha used in Ewald sum =   2.5000
     PHONON       :  2m18.81s CPU     2m33.87s WALL



     Representation #  1 mode #   1

     Self-consistent Calculation

      iter #   1 total cpu time :   154.3 secs   av.it.:   5.1
      thresh= 1.000E-02 alpha_mix =  0.700 |ddv_scf|^2 =  2.121E-06

      iter #   2 total cpu time :   154.8 secs   av.it.:  10.7
      thresh= 1.456E-04 alpha_mix =  0.700 |ddv_scf|^2 =  1.947E-06

      iter #   3 total cpu time :   155.2 secs   av.it.:   9.8
      thresh= 1.395E-04 alpha_mix =  0.700 |ddv_scf|^2 =  1.176E-09

      iter #   4 total cpu time :   155.5 secs   av.it.:  10.1
      thresh= 3.430E-06 alpha_mix =  0.700 |ddv_scf|^2 =  1.190E-11

      iter #   5 total cpu time :   155.9 secs   av.it.:   9.9
      thresh= 3.449E-07 alpha_mix =  0.700 |ddv_scf|^2 =  1.523E-13

      iter #   6 total cpu time :   157.0 secs   av.it.:  10.0
      thresh= 3.903E-08 alpha_mix =  0.700 |ddv_scf|^2 =  2.199E-15

      iter #   7 total cpu time :   157.4 secs   av.it.:  10.1
      thresh= 4.689E-09 alpha_mix =  0.700 |ddv_scf|^2 =  4.076E-17

     End of self-consistent calculation

     Convergence has been achieved 


     Representation #  2 mode #   2

     Self-consistent Calculation

      iter #   1 total cpu time :   158.6 secs   av.it.:   6.0
      thresh= 1.000E-02 alpha_mix =  0.700 |ddv_scf|^2 =  3.013E-05

      iter #   2 total cpu time :   159.0 secs   av.it.:  10.6
      thresh= 5.489E-04 alpha_mix =  0.700 |ddv_scf|^2 =  9.370E-05

      iter #   3 total cpu time :   159.4 secs   av.it.:   9.3
      thresh= 9.680E-04 alpha_mix =  0.700 |ddv_scf|^2 =  6.775E-09

      iter #   4 total cpu time :   160.8 secs   av.it.:  10.6
      thresh= 8.231E-06 alpha_mix =  0.700 |ddv_scf|^2 =  3.426E-10

      iter #   5 total cpu time :   162.5 secs   av.it.:  10.8
      thresh= 1.851E-06 alpha_mix =  0.700 |ddv_scf|^2 =  1.031E-11

      iter #   6 total cpu time :   163.0 secs   av.it.:  10.6
      thresh= 3.211E-07 alpha_mix =  0.700 |ddv_scf|^2 =  7.726E-14

      iter #   7 total cpu time :   163.9 secs   av.it.:  10.0
      thresh= 2.780E-08 alpha_mix =  0.700 |ddv_scf|^2 =  8.614E-16

      iter #   8 total cpu time :   164.6 secs   av.it.:   9.8
      thresh= 2.935E-09 alpha_mix =  0.700 |ddv_scf|^2 =  3.518E-17

     End of self-consistent calculation

     Convergence has been achieved 


     Representation #  3 modes #   3  4

     Self-consistent Calculation

      iter #   1 total cpu time :   167.1 secs   av.it.:   5.1
      thresh= 1.000E-02 alpha_mix =  0.700 |ddv_scf|^2 =  1.363E-08

      iter #   2 total cpu time :   167.8 secs   av.it.:  11.7
      thresh= 1.167E-05 alpha_mix =  0.700 |ddv_scf|^2 =  8.037E-10

      iter #   3 total cpu time :   168.5 secs   av.it.:  11.2
      thresh= 2.835E-06 alpha_mix =  0.700 |ddv_scf|^2 =  2.710E-11

      iter #   4 total cpu time :   169.2 secs   av.it.:  11.3
      thresh= 5.206E-07 alpha_mix =  0.700 |ddv_scf|^2 =  2.195E-13

      iter #   5 total cpu time :   170.4 secs   av.it.:  11.2
      thresh= 4.685E-08 alpha_mix =  0.700 |ddv_scf|^2 =  2.441E-15

      iter #   6 total cpu time :   172.0 secs   av.it.:  11.2
      thresh= 4.940E-09 alpha_mix =  0.700 |ddv_scf|^2 =  2.517E-17

     End of self-consistent calculation

     Convergence has been achieved 


     Representation #  4 modes #   5  6

     Self-consistent Calculation

      iter #   1 total cpu time :   182.7 secs   av.it.:   5.2
      thresh= 1.000E-02 alpha_mix =  0.700 |ddv_scf|^2 =  6.971E-08

      iter #   2 total cpu time :   183.6 secs   av.it.:  11.8
      thresh= 2.640E-05 alpha_mix =  0.700 |ddv_scf|^2 =  5.590E-09

      iter #   3 total cpu time :   184.3 secs   av.it.:  11.6
      thresh= 7.477E-06 alpha_mix =  0.700 |ddv_scf|^2 =  1.472E-10

      iter #   4 total cpu time :   185.0 secs   av.it.:  10.5
      thresh= 1.213E-06 alpha_mix =  0.700 |ddv_scf|^2 =  2.676E-13

      iter #   5 total cpu time :   187.0 secs   av.it.:  11.2
      thresh= 5.173E-08 alpha_mix =  0.700 |ddv_scf|^2 =  2.430E-15

      iter #   6 total cpu time :   187.8 secs   av.it.:  11.3
      thresh= 4.929E-09 alpha_mix =  0.700 |ddv_scf|^2 =  6.570E-17

     End of self-consistent calculation

     Convergence has been achieved 
 
     Number of q in the star =    4
     List of q in the star:
          1   0.500000000  -0.500000000   0.500000000
          2   0.500000000   0.500000000   0.500000000
          3  -0.500000000   0.500000000   0.500000000
          4   0.500000000   0.500000000  -0.500000000

     Diagonalizing the dynamical matrix

     q = (    0.500000000  -0.500000000   0.500000000 ) 

 **************************************************************************
     freq (    1) =       3.331247 [THz] =     111.118441 [cm-1]
     freq (    2) =       3.331247 [THz] =     111.118441 [cm-1]
     freq (    3) =      11.103796 [THz] =     370.382776 [cm-1]
     freq (    4) =      12.000574 [THz] =     400.296054 [cm-1]
     freq (    5) =      14.328773 [THz] =     477.956429 [cm-1]
     freq (    6) =      14.328773 [THz] =     477.956429 [cm-1]
 **************************************************************************

     Calculation of q =    0.0000000   0.3333333   0.0000000
 
     Parallelization info
     --------------------
     sticks:   dense  smooth     PW     G-vecs:    dense   smooth      PW
     Min          54      27     10                 1078      378      84
     Max          55      28     11                 1080      393      86
     Sum         877     439    163                17261     6183    1363
 


     bravais-lattice index     =            2
     lattice parameter (alat)  =      10.3280  a.u.
     unit-cell volume          =     275.4157 (a.u.)^3
     number of atoms/cell      =            2
     number of atomic types    =            1
     number of electrons       =         8.00
     number of Kohn-Sham states=            4
     kinetic-energy cutoff     =      30.0000  Ry
     charge density cutoff     =     240.0000  Ry
     Exchange-correlation      = SLA  PW   PBE  PBE ( 1  4  3  4 0 0)

     celldm(1)=  10.328000  celldm(2)=   0.000000  celldm(3)=   0.000000
     celldm(4)=   0.000000  celldm(5)=   0.000000  celldm(6)=   0.000000

     crystal axes: (cart. coord. in units of alat)
               a(1) = (  -0.500000   0.000000   0.500000 )  
               a(2) = (   0.000000   0.500000   0.500000 )  
               a(3) = (  -0.500000   0.500000   0.000000 )  

     reciprocal axes: (cart. coord. in units 2 pi/alat)
               b(1) = ( -1.000000 -1.000000  1.000000 )  
               b(2) = (  1.000000  1.000000  1.000000 )  
               b(3) = ( -1.000000  1.000000 -1.000000 )  


     PseudoPot. # 1 for Si read from file:
     ./si_pbe_v1.uspp.F.UPF.txt
     MD5 check sum: a056efeee980c13900f22a371efd63c1
     Pseudo is Ultrasoft + core correction, Zval =  4.0
     Generated by new atomic code, or converted to UPF format
     Using radial grid of  899 points,  6 beta functions with: 
                l(1) =   0
                l(2) =   0
                l(3) =   1
                l(4) =   1
                l(5) =   2
                l(6) =   2
     Q(r) pseudized with  8 coefficients,  rinner =    0.900   0.900   0.900
                                                       0.900   0.900

     atomic species   valence    mass     pseudopotential
        Si             4.00    28.08600     Si( 1.00)

     48 Sym. Ops., with inversion, found



   Cartesian axes

     site n.     atom                  positions (alat units)
         1           Si  tau(   1) = (   0.0000000   0.0000000   0.0000000  )
         2           Si  tau(   2) = (   0.2500000   0.2500000   0.2500000  )

     number of k points=  1872

     Number of k-points >= 100: set verbosity='high' to print them.

     Dense  grid:    17261 G-vectors     FFT dimensions: (  40,  40,  40)

     Smooth grid:     6183 G-vectors     FFT dimensions: (  25,  25,  25)

     Largest allocated arrays     est. size (Mb)     dimensions
        Kohn-Sham Wavefunctions         0.00 Mb     (      55,    4)
        NL pseudopotentials             0.03 Mb     (      55,   36)
        Each V/rho on FFT grid          0.07 Mb     (    4800)
        Each G-vector array             0.01 Mb     (    1079)
        G-vector shells                 0.00 Mb     (     206)
     Largest temporary arrays     est. size (Mb)     dimensions
        Auxiliary wavefunctions         0.01 Mb     (      55,   16)
        Each subspace H/S matrix        0.00 Mb     (       8,    8)
        Each <psi_i|beta_j> matrix      0.00 Mb     (      36,    4)

     The potential is recalculated from file :
     ./silicon/_ph0/silicon.10.328.save/charge-density.dat

     Starting wfc are    8 atomic wfcs

     Band Structure Calculation
     Davidson diagonalization with overlap

     ethr =  1.25E-10,  avg # of iterations = 12.4

     total cpu time spent up to now is       11.3 secs

     End of band structure calculation

     Number of k-points >= 100: set verbosity='high' to print the bands.

     highest occupied level (ev):     5.9566

     Writing output data file silicon.10.328.save

                                                                                

     bravais-lattice index     =            2
     lattice parameter (alat)  =      10.3280  a.u.
     unit-cell volume          =     275.4157 (a.u.)^3
     number of atoms/cell      =            2
     number of atomic types    =            1
     kinetic-energy cut-off    =      30.0000  Ry
     charge density cut-off    =     240.0000  Ry
     convergence threshold     =      1.0E-16
     beta                      =       0.7000
     number of iterations used =            4
     Exchange-correlation      = SLA  PW   PBE  PBE ( 1  4  3  4 0 0)


     celldm(1)=   10.32800  celldm(2)=    0.00000  celldm(3)=    0.00000
     celldm(4)=    0.00000  celldm(5)=    0.00000  celldm(6)=    0.00000

     crystal axes: (cart. coord. in units of alat)
               a(1) = ( -0.5000  0.0000  0.5000 )  
               a(2) = (  0.0000  0.5000  0.5000 )  
               a(3) = ( -0.5000  0.5000  0.0000 )  

     reciprocal axes: (cart. coord. in units 2 pi/alat)
               b(1) = ( -1.0000 -1.0000  1.0000 )  
               b(2) = (  1.0000  1.0000  1.0000 )  
               b(3) = ( -1.0000  1.0000 -1.0000 )  


     Atoms inside the unit cell: 

     Cartesian axes

     site n.  atom      mass           positions (alat units)
        1     Si  28.0860   tau(    1) = (    0.00000    0.00000    0.00000  )
        2     Si  28.0860   tau(    2) = (    0.25000    0.25000    0.25000  )

     Computing dynamical matrix for 
                    q = (   0.0000000   0.3333333   0.0000000 )
 
      8 Sym.Ops. (no q -> -q+G )


     G cutoff =  648.4612  (   1079 G-vectors)     FFT grid: ( 40, 40, 40)
     G cutoff =  324.2306  (    383 G-vectors)  smooth grid: ( 25, 25, 25)
     number of k points=  1872

     PseudoPot. # 1 for Si read from file:
     ./si_pbe_v1.uspp.F.UPF.txt
     MD5 check sum: a056efeee980c13900f22a371efd63c1
     Pseudo is Ultrasoft + core correction, Zval =  4.0
     Generated by new atomic code, or converted to UPF format
     Using radial grid of  899 points,  6 beta functions with: 
                l(1) =   0
                l(2) =   0
                l(3) =   1
                l(4) =   1
                l(5) =   2
                l(6) =   2
     Q(r) pseudized with  8 coefficients,  rinner =    0.900   0.900   0.900
                                                       0.900   0.900

     Mode symmetry, C_4v (4mm)  point group:


     Atomic displacements:
     There are   4 irreducible representations

     Representation     1      1 modes -A_1  G_1 D_1  To be done

     Representation     2      1 modes -B_2  G_4 D_2'  To be done

     Representation     3      2 modes -E    G_5 D_5  To be done

     Representation     4      2 modes -E    G_5 D_5  To be done



     Alpha used in Ewald sum =   2.5000
     PHONON       :  2m54.35s CPU     3m14.09s WALL



     Representation #  1 mode #   1

     Self-consistent Calculation

      iter #   1 total cpu time :   202.0 secs   av.it.:   6.3
      thresh= 1.000E-02 alpha_mix =  0.700 |ddv_scf|^2 =  1.319E-03

      iter #   2 total cpu time :   202.6 secs   av.it.:   9.4
      thresh= 3.632E-03 alpha_mix =  0.700 |ddv_scf|^2 =  3.826E-02

      iter #   3 total cpu time :   203.1 secs   av.it.:   7.7
      thresh= 1.000E-02 alpha_mix =  0.700 |ddv_scf|^2 =  7.381E-08

      iter #   4 total cpu time :   203.5 secs   av.it.:   9.7
      thresh= 2.717E-05 alpha_mix =  0.700 |ddv_scf|^2 =  2.469E-09

      iter #   5 total cpu time :   203.9 secs   av.it.:   8.8
      thresh= 4.969E-06 alpha_mix =  0.700 |ddv_scf|^2 =  5.660E-10

      iter #   6 total cpu time :   204.4 secs   av.it.:   8.3
      thresh= 2.379E-06 alpha_mix =  0.700 |ddv_scf|^2 =  1.027E-13

      iter #   7 total cpu time :   204.9 secs   av.it.:  10.0
      thresh= 3.204E-08 alpha_mix =  0.700 |ddv_scf|^2 =  8.138E-14

      iter #   8 total cpu time :   206.1 secs   av.it.:   7.4
      thresh= 2.853E-08 alpha_mix =  0.700 |ddv_scf|^2 =  5.882E-17

     End of self-consistent calculation

     Convergence has been achieved 


     Representation #  2 mode #   2

     Self-consistent Calculation

      iter #   1 total cpu time :   206.8 secs   av.it.:   5.1
      thresh= 1.000E-02 alpha_mix =  0.700 |ddv_scf|^2 =  2.181E-07

      iter #   2 total cpu time :   207.8 secs   av.it.:  10.9
      thresh= 4.670E-05 alpha_mix =  0.700 |ddv_scf|^2 =  3.750E-08

      iter #   3 total cpu time :   208.4 secs   av.it.:  10.8
      thresh= 1.937E-05 alpha_mix =  0.700 |ddv_scf|^2 =  1.089E-09

      iter #   4 total cpu time :   208.9 secs   av.it.:  10.8
      thresh= 3.300E-06 alpha_mix =  0.700 |ddv_scf|^2 =  3.903E-11

      iter #   5 total cpu time :   209.4 secs   av.it.:  10.8
      thresh= 6.247E-07 alpha_mix =  0.700 |ddv_scf|^2 =  2.053E-13

      iter #   6 total cpu time :   210.6 secs   av.it.:  10.3
      thresh= 4.531E-08 alpha_mix =  0.700 |ddv_scf|^2 =  3.515E-15

      iter #   7 total cpu time :   211.6 secs   av.it.:   9.9
      thresh= 5.929E-09 alpha_mix =  0.700 |ddv_scf|^2 =  9.025E-17

     End of self-consistent calculation

     Convergence has been achieved 


     Representation #  3 modes #   3  4

     Self-consistent Calculation

      iter #   1 total cpu time :   214.6 secs   av.it.:   5.2
      thresh= 1.000E-02 alpha_mix =  0.700 |ddv_scf|^2 =  4.113E-08

      iter #   2 total cpu time :   216.4 secs   av.it.:  12.0
      thresh= 2.028E-05 alpha_mix =  0.700 |ddv_scf|^2 =  3.566E-09

      iter #   3 total cpu time :   217.4 secs   av.it.:  11.8
      thresh= 5.971E-06 alpha_mix =  0.700 |ddv_scf|^2 =  1.374E-10

      iter #   4 total cpu time :   218.4 secs   av.it.:  11.2
      thresh= 1.172E-06 alpha_mix =  0.700 |ddv_scf|^2 =  5.312E-13

      iter #   5 total cpu time :   219.4 secs   av.it.:  11.5
      thresh= 7.288E-08 alpha_mix =  0.700 |ddv_scf|^2 =  2.584E-14

      iter #   6 total cpu time :   220.7 secs   av.it.:  11.7
      thresh= 1.607E-08 alpha_mix =  0.700 |ddv_scf|^2 =  1.915E-16

      iter #   7 total cpu time :   222.4 secs   av.it.:  11.1
      thresh= 1.384E-09 alpha_mix =  0.700 |ddv_scf|^2 =  1.208E-17

     End of self-consistent calculation

     Convergence has been achieved 


     Representation #  4 modes #   5  6

     Self-consistent Calculation

      iter #   1 total cpu time :   223.7 secs   av.it.:   5.3
      thresh= 1.000E-02 alpha_mix =  0.700 |ddv_scf|^2 =  4.851E-08

      iter #   2 total cpu time :   225.0 secs   av.it.:  12.0
      thresh= 2.203E-05 alpha_mix =  0.700 |ddv_scf|^2 =  4.367E-09

      iter #   3 total cpu time :   226.3 secs   av.it.:  11.7
      thresh= 6.608E-06 alpha_mix =  0.700 |ddv_scf|^2 =  1.457E-10

      iter #   4 total cpu time :   227.4 secs   av.it.:  11.5
      thresh= 1.207E-06 alpha_mix =  0.700 |ddv_scf|^2 =  3.795E-13

      iter #   5 total cpu time :   229.9 secs   av.it.:  11.5
      thresh= 6.160E-08 alpha_mix =  0.700 |ddv_scf|^2 =  1.225E-14

      iter #   6 total cpu time :   230.8 secs   av.it.:  11.6
      thresh= 1.107E-08 alpha_mix =  0.700 |ddv_scf|^2 =  1.638E-16

      iter #   7 total cpu time :   232.2 secs   av.it.:  11.2
      thresh= 1.280E-09 alpha_mix =  0.700 |ddv_scf|^2 =  9.979E-18

     End of self-consistent calculation

     Convergence has been achieved 
 
     Number of q in the star =    6
     List of q in the star:
          1   0.000000000   0.333333333   0.000000000
          2   0.333333333   0.000000000   0.000000000
          3   0.000000000   0.000000000   0.333333333
          4   0.000000000  -0.333333333   0.000000000
          5  -0.333333333   0.000000000   0.000000000
          6   0.000000000   0.000000000  -0.333333333

     Diagonalizing the dynamical matrix

     q = (    0.000000000   0.333333333   0.000000000 ) 

 **************************************************************************
     freq (    1) =       2.969266 [THz] =      99.044050 [cm-1]
     freq (    2) =       2.969266 [THz] =      99.044050 [cm-1]
     freq (    3) =       4.861914 [THz] =     162.176006 [cm-1]
     freq (    4) =      14.332620 [THz] =     478.084745 [cm-1]
     freq (    5) =      14.332620 [THz] =     478.084745 [cm-1]
     freq (    6) =      14.840889 [THz] =     495.038770 [cm-1]
 **************************************************************************

     Mode symmetry, C_4v (4mm)  point group:

     freq (  1 -  2) =         99.0  [cm-1]   --> E    G_5 D_5       
     freq (  3 -  3) =        162.2  [cm-1]   --> A_1  G_1 D_1       
     freq (  4 -  5) =        478.1  [cm-1]   --> E    G_5 D_5       
     freq (  6 -  6) =        495.0  [cm-1]   --> B_2  G_4 D_2'      

     Calculation of q =   -0.1666667   0.5000000  -0.1666667
 
     Parallelization info
     --------------------
     sticks:   dense  smooth     PW     G-vecs:    dense   smooth      PW
     Min          54      27     10                 1078      382      87
     Max          55      28     11                 1080      390      90
     Sum         877     439    163                17261     6183    1411
 


     bravais-lattice index     =            2
     lattice parameter (alat)  =      10.3280  a.u.
     unit-cell volume          =     275.4157 (a.u.)^3
     number of atoms/cell      =            2
     number of atomic types    =            1
     number of electrons       =         8.00
     number of Kohn-Sham states=            4
     kinetic-energy cutoff     =      30.0000  Ry
     charge density cutoff     =     240.0000  Ry
     Exchange-correlation      = SLA  PW   PBE  PBE ( 1  4  3  4 0 0)

     celldm(1)=  10.328000  celldm(2)=   0.000000  celldm(3)=   0.000000
     celldm(4)=   0.000000  celldm(5)=   0.000000  celldm(6)=   0.000000

     crystal axes: (cart. coord. in units of alat)
               a(1) = (  -0.500000   0.000000   0.500000 )  
               a(2) = (   0.000000   0.500000   0.500000 )  
               a(3) = (  -0.500000   0.500000   0.000000 )  

     reciprocal axes: (cart. coord. in units 2 pi/alat)
               b(1) = ( -1.000000 -1.000000  1.000000 )  
               b(2) = (  1.000000  1.000000  1.000000 )  
               b(3) = ( -1.000000  1.000000 -1.000000 )  


     PseudoPot. # 1 for Si read from file:
     ./si_pbe_v1.uspp.F.UPF.txt
     MD5 check sum: a056efeee980c13900f22a371efd63c1
     Pseudo is Ultrasoft + core correction, Zval =  4.0
     Generated by new atomic code, or converted to UPF format
     Using radial grid of  899 points,  6 beta functions with: 
                l(1) =   0
                l(2) =   0
                l(3) =   1
                l(4) =   1
                l(5) =   2
                l(6) =   2
     Q(r) pseudized with  8 coefficients,  rinner =    0.900   0.900   0.900
                                                       0.900   0.900

     atomic species   valence    mass     pseudopotential
        Si             4.00    28.08600     Si( 1.00)

     48 Sym. Ops., with inversion, found



   Cartesian axes

     site n.     atom                  positions (alat units)
         1           Si  tau(   1) = (   0.0000000   0.0000000   0.0000000  )
         2           Si  tau(   2) = (   0.2500000   0.2500000   0.2500000  )

     number of k points=  7200

     Number of k-points >= 100: set verbosity='high' to print them.

     Dense  grid:    17261 G-vectors     FFT dimensions: (  40,  40,  40)

     Smooth grid:     6183 G-vectors     FFT dimensions: (  25,  25,  25)

     Largest allocated arrays     est. size (Mb)     dimensions
        Kohn-Sham Wavefunctions         0.00 Mb     (      55,    4)
        NL pseudopotentials             0.03 Mb     (      55,   36)
        Each V/rho on FFT grid          0.07 Mb     (    4800)
        Each G-vector array             0.01 Mb     (    1079)
        G-vector shells                 0.00 Mb     (     211)
     Largest temporary arrays     est. size (Mb)     dimensions
        Auxiliary wavefunctions         0.01 Mb     (      55,   16)
        Each subspace H/S matrix        0.00 Mb     (       8,    8)
        Each <psi_i|beta_j> matrix      0.00 Mb     (      36,    4)

     The potential is recalculated from file :
     ./silicon/_ph0/silicon.10.328.save/charge-density.dat

     Starting wfc are    8 atomic wfcs

     Band Structure Calculation
     Davidson diagonalization with overlap

     ethr =  1.25E-10,  avg # of iterations = 12.3

     total cpu time spent up to now is       19.0 secs

     End of band structure calculation

     Number of k-points >= 100: set verbosity='high' to print the bands.

     highest occupied level (ev):     5.9566

     Writing output data file silicon.10.328.save

                                                                                

     bravais-lattice index     =            2
     lattice parameter (alat)  =      10.3280  a.u.
     unit-cell volume          =     275.4157 (a.u.)^3
     number of atoms/cell      =            2
     number of atomic types    =            1
     kinetic-energy cut-off    =      30.0000  Ry
     charge density cut-off    =     240.0000  Ry
     convergence threshold     =      1.0E-16
     beta                      =       0.7000
     number of iterations used =            4
     Exchange-correlation      = SLA  PW   PBE  PBE ( 1  4  3  4 0 0)


     celldm(1)=   10.32800  celldm(2)=    0.00000  celldm(3)=    0.00000
     celldm(4)=    0.00000  celldm(5)=    0.00000  celldm(6)=    0.00000

     crystal axes: (cart. coord. in units of alat)
               a(1) = ( -0.5000  0.0000  0.5000 )  
               a(2) = (  0.0000  0.5000  0.5000 )  
               a(3) = ( -0.5000  0.5000  0.0000 )  

     reciprocal axes: (cart. coord. in units 2 pi/alat)
               b(1) = ( -1.0000 -1.0000  1.0000 )  
               b(2) = (  1.0000  1.0000  1.0000 )  
               b(3) = ( -1.0000  1.0000 -1.0000 )  


     Atoms inside the unit cell: 

     Cartesian axes

     site n.  atom      mass           positions (alat units)
        1     Si  28.0860   tau(    1) = (    0.00000    0.00000    0.00000  )
        2     Si  28.0860   tau(    2) = (    0.25000    0.25000    0.25000  )

     Computing dynamical matrix for 
                    q = (  -0.1666667   0.5000000  -0.1666667 )
 
      2 Sym.Ops. (no q -> -q+G )


     G cutoff =  648.4612  (   1079 G-vectors)     FFT grid: ( 40, 40, 40)
     G cutoff =  324.2306  (    388 G-vectors)  smooth grid: ( 25, 25, 25)
     number of k points=  7200

     PseudoPot. # 1 for Si read from file:
     ./si_pbe_v1.uspp.F.UPF.txt
     MD5 check sum: a056efeee980c13900f22a371efd63c1
     Pseudo is Ultrasoft + core correction, Zval =  4.0
     Generated by new atomic code, or converted to UPF format
     Using radial grid of  899 points,  6 beta functions with: 
                l(1) =   0
                l(2) =   0
                l(3) =   1
                l(4) =   1
                l(5) =   2
                l(6) =   2
     Q(r) pseudized with  8 coefficients,  rinner =    0.900   0.900   0.900
                                                       0.900   0.900

     Mode symmetry, C_s (m)     point group:


     Atomic displacements:
     There are   6 irreducible representations

     Representation     1      1 modes -A'  To be done

     Representation     2      1 modes -A'  To be done

     Representation     3      1 modes -A'  To be done

     Representation     4      1 modes -A'  To be done

     Representation     5      1 modes -A''  To be done

     Representation     6      1 modes -A''  To be done



     Alpha used in Ewald sum =   2.5000
     PHONON       :  3m39.32s CPU     4m 6.03s WALL



     Representation #  1 mode #   1

     Self-consistent Calculation

      iter #   1 total cpu time :   247.2 secs   av.it.:   5.8
      thresh= 1.000E-02 alpha_mix =  0.700 |ddv_scf|^2 =  3.158E-05

      iter #   2 total cpu time :   248.9 secs   av.it.:  10.4
      thresh= 5.620E-04 alpha_mix =  0.700 |ddv_scf|^2 =  3.224E-04

      iter #   3 total cpu time :   250.5 secs   av.it.:   8.3
      thresh= 1.795E-03 alpha_mix =  0.700 |ddv_scf|^2 =  5.507E-08

      iter #   4 total cpu time :   259.2 secs   av.it.:  10.9
      thresh= 2.347E-05 alpha_mix =  0.700 |ddv_scf|^2 =  2.406E-09

      iter #   5 total cpu time :   260.9 secs   av.it.:  10.9
      thresh= 4.905E-06 alpha_mix =  0.700 |ddv_scf|^2 =  1.142E-10

      iter #   6 total cpu time :   263.4 secs   av.it.:  10.9
      thresh= 1.068E-06 alpha_mix =  0.700 |ddv_scf|^2 =  4.228E-12

      iter #   7 total cpu time :   268.1 secs   av.it.:  11.0
      thresh= 2.056E-07 alpha_mix =  0.700 |ddv_scf|^2 =  7.441E-13

      iter #   8 total cpu time :   269.7 secs   av.it.:  10.3
      thresh= 8.626E-08 alpha_mix =  0.700 |ddv_scf|^2 =  2.386E-12

      iter #   9 total cpu time :   271.6 secs   av.it.:   9.0
      thresh= 1.545E-07 alpha_mix =  0.700 |ddv_scf|^2 =  1.137E-13

      iter #  10 total cpu time :   273.1 secs   av.it.:   9.6
      thresh= 3.372E-08 alpha_mix =  0.700 |ddv_scf|^2 =  1.906E-14

      iter #  11 total cpu time :   274.6 secs   av.it.:  10.2
      thresh= 1.380E-08 alpha_mix =  0.700 |ddv_scf|^2 =  5.774E-16

      iter #  12 total cpu time :   276.4 secs   av.it.:  10.9
      thresh= 2.403E-09 alpha_mix =  0.700 |ddv_scf|^2 =  8.790E-17

     End of self-consistent calculation

     Convergence has been achieved 


     Representation #  2 mode #   2

     Self-consistent Calculation

      iter #   1 total cpu time :   279.2 secs   av.it.:   6.0
      thresh= 1.000E-02 alpha_mix =  0.700 |ddv_scf|^2 =  7.435E-05

      iter #   2 total cpu time :   280.9 secs   av.it.:  10.3
      thresh= 8.622E-04 alpha_mix =  0.700 |ddv_scf|^2 =  7.767E-04

      iter #   3 total cpu time :   282.5 secs   av.it.:   8.3
      thresh= 2.787E-03 alpha_mix =  0.700 |ddv_scf|^2 =  3.696E-08

      iter #   4 total cpu time :   284.4 secs   av.it.:  11.1
      thresh= 1.922E-05 alpha_mix =  0.700 |ddv_scf|^2 =  3.528E-09

      iter #   5 total cpu time :   287.2 secs   av.it.:  10.9
      thresh= 5.940E-06 alpha_mix =  0.700 |ddv_scf|^2 =  1.141E-10

      iter #   6 total cpu time :   288.9 secs   av.it.:  11.0
      thresh= 1.068E-06 alpha_mix =  0.700 |ddv_scf|^2 =  9.264E-12

      iter #   7 total cpu time :   290.5 secs   av.it.:  11.0
      thresh= 3.044E-07 alpha_mix =  0.700 |ddv_scf|^2 =  4.427E-14

      iter #   8 total cpu time :   292.3 secs   av.it.:  11.0
      thresh= 2.104E-08 alpha_mix =  0.700 |ddv_scf|^2 =  2.205E-14

      iter #   9 total cpu time :   294.2 secs   av.it.:  10.1
      thresh= 1.485E-08 alpha_mix =  0.700 |ddv_scf|^2 =  5.338E-14

      iter #  10 total cpu time :   295.7 secs   av.it.:   9.0
      thresh= 2.310E-08 alpha_mix =  0.700 |ddv_scf|^2 =  8.736E-16

      iter #  11 total cpu time :   297.3 secs   av.it.:  10.3
      thresh= 2.956E-09 alpha_mix =  0.700 |ddv_scf|^2 =  1.625E-15

      iter #  12 total cpu time :   298.8 secs   av.it.:   9.0
      thresh= 4.031E-09 alpha_mix =  0.700 |ddv_scf|^2 =  6.050E-18

     End of self-consistent calculation

     Convergence has been achieved 


     Representation #  3 mode #   3

     Self-consistent Calculation

      iter #   1 total cpu time :   309.0 secs   av.it.:   5.9
      thresh= 1.000E-02 alpha_mix =  0.700 |ddv_scf|^2 =  5.405E-05

      iter #   2 total cpu time :   310.7 secs   av.it.:  10.4
      thresh= 7.352E-04 alpha_mix =  0.700 |ddv_scf|^2 =  5.679E-04

      iter #   3 total cpu time :   312.2 secs   av.it.:   8.3
      thresh= 2.383E-03 alpha_mix =  0.700 |ddv_scf|^2 =  5.222E-08

      iter #   4 total cpu time :   314.4 secs   av.it.:  11.0
      thresh= 2.285E-05 alpha_mix =  0.700 |ddv_scf|^2 =  2.846E-09

      iter #   5 total cpu time :   316.4 secs   av.it.:  10.9
      thresh= 5.335E-06 alpha_mix =  0.700 |ddv_scf|^2 =  1.229E-10

      iter #   6 total cpu time :   318.1 secs   av.it.:  11.1
      thresh= 1.109E-06 alpha_mix =  0.700 |ddv_scf|^2 =  7.712E-12

      iter #   7 total cpu time :   319.8 secs   av.it.:  11.0
      thresh= 2.777E-07 alpha_mix =  0.700 |ddv_scf|^2 =  6.303E-13

      iter #   8 total cpu time :   321.4 secs   av.it.:   9.8
      thresh= 7.939E-08 alpha_mix =  0.700 |ddv_scf|^2 =  8.609E-13

      iter #   9 total cpu time :   322.9 secs   av.it.:   9.2
      thresh= 9.278E-08 alpha_mix =  0.700 |ddv_scf|^2 =  9.420E-14

      iter #  10 total cpu time :   324.3 secs   av.it.:   9.1
      thresh= 3.069E-08 alpha_mix =  0.700 |ddv_scf|^2 =  7.949E-15

      iter #  11 total cpu time :   326.4 secs   av.it.:  10.0
      thresh= 8.916E-09 alpha_mix =  0.700 |ddv_scf|^2 =  5.708E-17

     End of self-consistent calculation

     Convergence has been achieved 


     Representation #  4 mode #   4

     Self-consistent Calculation

      iter #   1 total cpu time :   328.0 secs   av.it.:   5.6
      thresh= 1.000E-02 alpha_mix =  0.700 |ddv_scf|^2 =  1.128E-05

      iter #   2 total cpu time :   330.0 secs   av.it.:  10.6
      thresh= 3.358E-04 alpha_mix =  0.700 |ddv_scf|^2 =  1.134E-04

      iter #   3 total cpu time :   339.1 secs   av.it.:   8.4
      thresh= 1.065E-03 alpha_mix =  0.700 |ddv_scf|^2 =  6.391E-08

      iter #   4 total cpu time :   340.7 secs   av.it.:  10.9
      thresh= 2.528E-05 alpha_mix =  0.700 |ddv_scf|^2 =  1.323E-09

      iter #   5 total cpu time :   342.8 secs   av.it.:  11.0
      thresh= 3.637E-06 alpha_mix =  0.700 |ddv_scf|^2 =  1.183E-10

      iter #   6 total cpu time :   344.5 secs   av.it.:  11.0
      thresh= 1.088E-06 alpha_mix =  0.700 |ddv_scf|^2 =  3.644E-12

      iter #   7 total cpu time :   346.5 secs   av.it.:  11.0
      thresh= 1.909E-07 alpha_mix =  0.700 |ddv_scf|^2 =  4.917E-12

      iter #   8 total cpu time :   348.5 secs   av.it.:   9.1
      thresh= 2.217E-07 alpha_mix =  0.700 |ddv_scf|^2 =  1.587E-12

      iter #   9 total cpu time :   359.5 secs   av.it.:   9.6
      thresh= 1.260E-07 alpha_mix =  0.700 |ddv_scf|^2 =  1.362E-12

      iter #  10 total cpu time :   372.7 secs   av.it.:   9.2
      thresh= 1.167E-07 alpha_mix =  0.700 |ddv_scf|^2 =  4.326E-15

      iter #  11 total cpu time :   374.4 secs   av.it.:  11.1
      thresh= 6.578E-09 alpha_mix =  0.700 |ddv_scf|^2 =  1.434E-15

      iter #  12 total cpu time :   376.0 secs   av.it.:  10.8
      thresh= 3.786E-09 alpha_mix =  0.700 |ddv_scf|^2 =  8.632E-17

     End of self-consistent calculation

     Convergence has been achieved 


     Representation #  5 mode #   5

     Self-consistent Calculation

      iter #   1 total cpu time :   377.5 secs   av.it.:   5.3
      thresh= 1.000E-02 alpha_mix =  0.700 |ddv_scf|^2 =  2.498E-07

      iter #   2 total cpu time :   379.1 secs   av.it.:  11.0
      thresh= 4.998E-05 alpha_mix =  0.700 |ddv_scf|^2 =  3.053E-08

      iter #   3 total cpu time :   380.7 secs   av.it.:  10.8
      thresh= 1.747E-05 alpha_mix =  0.700 |ddv_scf|^2 =  6.559E-10

      iter #   4 total cpu time :   394.7 secs   av.it.:  10.6
      thresh= 2.561E-06 alpha_mix =  0.700 |ddv_scf|^2 =  1.648E-12

      iter #   5 total cpu time :   396.9 secs   av.it.:  10.7
      thresh= 1.284E-07 alpha_mix =  0.700 |ddv_scf|^2 =  8.290E-14

      iter #   6 total cpu time :   398.5 secs   av.it.:  10.6
      thresh= 2.879E-08 alpha_mix =  0.700 |ddv_scf|^2 =  7.776E-16

      iter #   7 total cpu time :   400.5 secs   av.it.:  10.4
      thresh= 2.789E-09 alpha_mix =  0.700 |ddv_scf|^2 =  3.039E-17

     End of self-consistent calculation

     Convergence has been achieved 


     Representation #  6 mode #   6

     Self-consistent Calculation

      iter #   1 total cpu time :   402.6 secs   av.it.:   5.3
      thresh= 1.000E-02 alpha_mix =  0.700 |ddv_scf|^2 =  2.498E-07

      iter #   2 total cpu time :   404.2 secs   av.it.:  11.0
      thresh= 4.998E-05 alpha_mix =  0.700 |ddv_scf|^2 =  3.053E-08

      iter #   3 total cpu time :   405.8 secs   av.it.:  10.8
      thresh= 1.747E-05 alpha_mix =  0.700 |ddv_scf|^2 =  6.559E-10

      iter #   4 total cpu time :   407.6 secs   av.it.:  10.6
      thresh= 2.561E-06 alpha_mix =  0.700 |ddv_scf|^2 =  1.648E-12

      iter #   5 total cpu time :   409.6 secs   av.it.:  10.7
      thresh= 1.284E-07 alpha_mix =  0.700 |ddv_scf|^2 =  8.290E-14

      iter #   6 total cpu time :   411.6 secs   av.it.:  10.6
      thresh= 2.879E-08 alpha_mix =  0.700 |ddv_scf|^2 =  7.776E-16

      iter #   7 total cpu time :   413.2 secs   av.it.:  10.4
      thresh= 2.789E-09 alpha_mix =  0.700 |ddv_scf|^2 =  3.039E-17

     End of self-consistent calculation

     Convergence has been achieved 
 
     Number of q in the star =   24
     List of q in the star:
          1  -0.166666667   0.500000000  -0.166666667
          2   0.166666667   0.500000000   0.166666667
          3  -0.166666667   0.500000000   0.166666667
          4   0.166666667   0.500000000  -0.166666667
          5   0.500000000  -0.166666667   0.166666667
[...]

     End of self-consistent calculation

     Convergence has been achieved 
 
     Number of q in the star =   24
     List of q in the star:
          1   0.500000000  -0.166666667   0.833333333
          2   0.833333333   0.166666667   0.500000000
          3   0.500000000   0.166666667   0.833333333
          4  -0.833333333  -0.166666667   0.500000000
          5  -0.833333333  -0.166666667  -0.500000000
          6  -0.500000000  -0.166666667  -0.833333333
          7   0.833333333  -0.166666667   0.500000000
          8  -0.500000000  -0.166666667   0.833333333
          9  -0.833333333   0.166666667   0.500000000
         10   0.833333333   0.166666667  -0.500000000
         11   0.833333333  -0.166666667  -0.500000000
         12   0.500000000   0.166666667  -0.833333333
         13  -0.500000000   0.166666667   0.833333333
         14  -0.500000000   0.166666667  -0.833333333
         15  -0.833333333   0.166666667  -0.500000000
         16   0.833333333  -0.500000000   0.166666667
         17   0.833333333   0.500000000  -0.166666667
         18  -0.833333333  -0.500000000  -0.166666667
         19  -0.833333333   0.500000000   0.166666667
         20   0.166666667  -0.500000000   0.833333333
         21  -0.166666667   0.500000000   0.833333333
         22   0.166666667   0.500000000  -0.833333333
         23  -0.166666667  -0.500000000  -0.833333333
         24  -0.500000000   0.833333333   0.166666667

     Diagonalizing the dynamical matrix

     q = (    0.500000000  -0.166666667   0.833333333 ) 

 **************************************************************************
     freq (    1) =       5.139370 [THz] =     171.430924 [cm-1]
     freq (    2) =       6.140951 [THz] =     204.840082 [cm-1]
     freq (    3) =       9.677668 [THz] =     322.812251 [cm-1]
     freq (    4) =      11.166635 [THz] =     372.478853 [cm-1]
     freq (    5) =      13.638050 [THz] =     454.916381 [cm-1]
     freq (    6) =      13.859646 [THz] =     462.308012 [cm-1]
 **************************************************************************

     Calculation of q =   -0.3333333  -1.0000000   0.0000000
 
     Parallelization info
     --------------------
     sticks:   dense  smooth     PW     G-vecs:    dense   smooth      PW
     Min          54      27     11                 1078      382      99
     Max          55      28     13                 1080      390     101
     Sum         877     439    187                17261     6183    1591
 


     bravais-lattice index     =            2
     lattice parameter (alat)  =      10.3280  a.u.
     unit-cell volume          =     275.4157 (a.u.)^3
     number of atoms/cell      =            2
     number of atomic types    =            1
     number of electrons       =         8.00
     number of Kohn-Sham states=            4
     kinetic-energy cutoff     =      30.0000  Ry
     charge density cutoff     =     240.0000  Ry
     Exchange-correlation      = SLA  PW   PBE  PBE ( 1  4  3  4 0 0)

     celldm(1)=  10.328000  celldm(2)=   0.000000  celldm(3)=   0.000000
     celldm(4)=   0.000000  celldm(5)=   0.000000  celldm(6)=   0.000000

     crystal axes: (cart. coord. in units of alat)
               a(1) = (  -0.500000   0.000000   0.500000 )  
               a(2) = (   0.000000   0.500000   0.500000 )  
               a(3) = (  -0.500000   0.500000   0.000000 )  

     reciprocal axes: (cart. coord. in units 2 pi/alat)
               b(1) = ( -1.000000 -1.000000  1.000000 )  
               b(2) = (  1.000000  1.000000  1.000000 )  
               b(3) = ( -1.000000  1.000000 -1.000000 )  


     PseudoPot. # 1 for Si read from file:
     ./si_pbe_v1.uspp.F.UPF.txt
     MD5 check sum: a056efeee980c13900f22a371efd63c1
     Pseudo is Ultrasoft + core correction, Zval =  4.0
     Generated by new atomic code, or converted to UPF format
     Using radial grid of  899 points,  6 beta functions with: 
                l(1) =   0
                l(2) =   0
                l(3) =   1
                l(4) =   1
                l(5) =   2
                l(6) =   2
     Q(r) pseudized with  8 coefficients,  rinner =    0.900   0.900   0.900
                                                       0.900   0.900

     atomic species   valence    mass     pseudopotential
        Si             4.00    28.08600     Si( 1.00)

     48 Sym. Ops., with inversion, found



   Cartesian axes

     site n.     atom                  positions (alat units)
         1           Si  tau(   1) = (   0.0000000   0.0000000   0.0000000  )
         2           Si  tau(   2) = (   0.2500000   0.2500000   0.2500000  )

     number of k points=  3456

     Number of k-points >= 100: set verbosity='high' to print them.

     Dense  grid:    17261 G-vectors     FFT dimensions: (  40,  40,  40)

     Smooth grid:     6183 G-vectors     FFT dimensions: (  25,  25,  25)

     Largest allocated arrays     est. size (Mb)     dimensions
        Kohn-Sham Wavefunctions         0.00 Mb     (      56,    4)
        NL pseudopotentials             0.03 Mb     (      56,   36)
        Each V/rho on FFT grid          0.07 Mb     (    4800)
        Each G-vector array             0.01 Mb     (    1079)
        G-vector shells                 0.00 Mb     (     209)
     Largest temporary arrays     est. size (Mb)     dimensions
        Auxiliary wavefunctions         0.01 Mb     (      56,   16)
        Each subspace H/S matrix        0.00 Mb     (       8,    8)
        Each <psi_i|beta_j> matrix      0.00 Mb     (      36,    4)

     The potential is recalculated from file :
     ./silicon/_ph0/silicon.10.328.save/charge-density.dat

     Starting wfc are    8 atomic wfcs

     Band Structure Calculation
     Davidson diagonalization with overlap

     ethr =  1.25E-10,  avg # of iterations = 12.3

     total cpu time spent up to now is      108.9 secs

     End of band structure calculation

     Number of k-points >= 100: set verbosity='high' to print the bands.

     highest occupied level (ev):     5.9566

     Writing output data file silicon.10.328.save

                                                                                

     bravais-lattice index     =            2
     lattice parameter (alat)  =      10.3280  a.u.
     unit-cell volume          =     275.4157 (a.u.)^3
     number of atoms/cell      =            2
     number of atomic types    =            1
     kinetic-energy cut-off    =      30.0000  Ry
     charge density cut-off    =     240.0000  Ry
     convergence threshold     =      1.0E-16
     beta                      =       0.7000
     number of iterations used =            4
     Exchange-correlation      = SLA  PW   PBE  PBE ( 1  4  3  4 0 0)


     celldm(1)=   10.32800  celldm(2)=    0.00000  celldm(3)=    0.00000
     celldm(4)=    0.00000  celldm(5)=    0.00000  celldm(6)=    0.00000

     crystal axes: (cart. coord. in units of alat)
               a(1) = ( -0.5000  0.0000  0.5000 )  
               a(2) = (  0.0000  0.5000  0.5000 )  
               a(3) = ( -0.5000  0.5000  0.0000 )  

     reciprocal axes: (cart. coord. in units 2 pi/alat)
               b(1) = ( -1.0000 -1.0000  1.0000 )  
               b(2) = (  1.0000  1.0000  1.0000 )  
               b(3) = ( -1.0000  1.0000 -1.0000 )  


     Atoms inside the unit cell: 

     Cartesian axes

     site n.  atom      mass           positions (alat units)
        1     Si  28.0860   tau(    1) = (    0.00000    0.00000    0.00000  )
        2     Si  28.0860   tau(    2) = (    0.25000    0.25000    0.25000  )

     Computing dynamical matrix for 
                    q = (  -0.3333333  -1.0000000   0.0000000 )
 
      4 Sym.Ops. (no q -> -q+G )


     G cutoff =  648.4612  (   1079 G-vectors)     FFT grid: ( 40, 40, 40)
     G cutoff =  324.2306  (    387 G-vectors)  smooth grid: ( 25, 25, 25)
     number of k points=  3456

     PseudoPot. # 1 for Si read from file:
     ./si_pbe_v1.uspp.F.UPF.txt
     MD5 check sum: a056efeee980c13900f22a371efd63c1
     Pseudo is Ultrasoft + core correction, Zval =  4.0
     Generated by new atomic code, or converted to UPF format
     Using radial grid of  899 points,  6 beta functions with: 
                l(1) =   0
                l(2) =   0
                l(3) =   1
                l(4) =   1
                l(5) =   2
                l(6) =   2
     Q(r) pseudized with  8 coefficients,  rinner =    0.900   0.900   0.900
                                                       0.900   0.900


     Atomic displacements:
     There are   3 irreducible representations

     Representation     1      2 modes -  To be done

     Representation     2      2 modes -  To be done

     Representation     3      2 modes -  To be done



     Alpha used in Ewald sum =   2.5000
     PHONON       : 19m56.41s CPU    22m 4.79s WALL



     Representation #  1 modes #   1  2

     Self-consistent Calculation

      iter #   1 total cpu time :  1326.2 secs   av.it.:   5.6
      thresh= 1.000E-02 alpha_mix =  0.700 |ddv_scf|^2 =  3.759E-07

      iter #   2 total cpu time :  1329.1 secs   av.it.:  12.0
      thresh= 6.131E-05 alpha_mix =  0.700 |ddv_scf|^2 =  2.009E-07

      iter #   3 total cpu time :  1331.1 secs   av.it.:  11.6
      thresh= 4.482E-05 alpha_mix =  0.700 |ddv_scf|^2 =  3.033E-09

      iter #   4 total cpu time :  1333.3 secs   av.it.:  11.6
      thresh= 5.507E-06 alpha_mix =  0.700 |ddv_scf|^2 =  3.748E-10

      iter #   5 total cpu time :  1335.0 secs   av.it.:  11.5
      thresh= 1.936E-06 alpha_mix =  0.700 |ddv_scf|^2 =  9.449E-13

      iter #   6 total cpu time :  1336.6 secs   av.it.:  11.9
      thresh= 9.720E-08 alpha_mix =  0.700 |ddv_scf|^2 =  3.308E-14

      iter #   7 total cpu time :  1338.7 secs   av.it.:  11.5
      thresh= 1.819E-08 alpha_mix =  0.700 |ddv_scf|^2 =  2.659E-15

      iter #   8 total cpu time :  1340.5 secs   av.it.:  11.5
      thresh= 5.156E-09 alpha_mix =  0.700 |ddv_scf|^2 =  2.537E-17

     End of self-consistent calculation

     Convergence has been achieved 


     Representation #  2 modes #   3  4

     Self-consistent Calculation

      iter #   1 total cpu time :  1342.1 secs   av.it.:   5.8
      thresh= 1.000E-02 alpha_mix =  0.700 |ddv_scf|^2 =  9.532E-07

      iter #   2 total cpu time :  1344.6 secs   av.it.:  12.0
      thresh= 9.763E-05 alpha_mix =  0.700 |ddv_scf|^2 =  1.179E-06

      iter #   3 total cpu time :  1346.2 secs   av.it.:  11.2
      thresh= 1.086E-04 alpha_mix =  0.700 |ddv_scf|^2 =  4.423E-09

      iter #   4 total cpu time :  1348.5 secs   av.it.:  11.7
      thresh= 6.651E-06 alpha_mix =  0.700 |ddv_scf|^2 =  1.852E-10

      iter #   5 total cpu time :  1350.9 secs   av.it.:  11.6
      thresh= 1.361E-06 alpha_mix =  0.700 |ddv_scf|^2 =  3.608E-13

      iter #   6 total cpu time :  1353.1 secs   av.it.:  11.4
      thresh= 6.006E-08 alpha_mix =  0.700 |ddv_scf|^2 =  1.960E-14

      iter #   7 total cpu time :  1354.6 secs   av.it.:  11.3
      thresh= 1.400E-08 alpha_mix =  0.700 |ddv_scf|^2 =  3.356E-16

      iter #   8 total cpu time :  1356.3 secs   av.it.:  11.9
      thresh= 1.832E-09 alpha_mix =  0.700 |ddv_scf|^2 =  1.140E-16

      iter #   9 total cpu time :  1372.4 secs   av.it.:  11.6
      thresh= 1.068E-09 alpha_mix =  0.700 |ddv_scf|^2 =  7.678E-18

     End of self-consistent calculation

     Convergence has been achieved 


     Representation #  3 modes #   5  6

     Self-consistent Calculation

      iter #   1 total cpu time :  1374.1 secs   av.it.:   5.3
      thresh= 1.000E-02 alpha_mix =  0.700 |ddv_scf|^2 =  3.409E-07

      iter #   2 total cpu time :  1375.7 secs   av.it.:  12.0
      thresh= 5.839E-05 alpha_mix =  0.700 |ddv_scf|^2 =  4.199E-07

      iter #   3 total cpu time :  1377.4 secs   av.it.:  11.3
      thresh= 6.480E-05 alpha_mix =  0.700 |ddv_scf|^2 =  2.063E-09

      iter #   4 total cpu time :  1379.2 secs   av.it.:  11.7
      thresh= 4.542E-06 alpha_mix =  0.700 |ddv_scf|^2 =  2.156E-10

      iter #   5 total cpu time :  1380.8 secs   av.it.:  11.6
      thresh= 1.468E-06 alpha_mix =  0.700 |ddv_scf|^2 =  1.684E-12

      iter #   6 total cpu time :  1382.4 secs   av.it.:  11.9
      thresh= 1.298E-07 alpha_mix =  0.700 |ddv_scf|^2 =  4.449E-14

      iter #   7 total cpu time :  1384.1 secs   av.it.:  11.6
      thresh= 2.109E-08 alpha_mix =  0.700 |ddv_scf|^2 =  2.597E-15

      iter #   8 total cpu time :  1385.7 secs   av.it.:  11.6
      thresh= 5.096E-09 alpha_mix =  0.700 |ddv_scf|^2 =  2.024E-17

     End of self-consistent calculation

     Convergence has been achieved 
 
     Number of q in the star =   12
     List of q in the star:
          1  -0.333333333  -1.000000000   0.000000000
          2   0.000000000  -1.000000000  -0.333333333
          3   0.000000000  -1.000000000   0.333333333
          4   0.333333333  -1.000000000   0.000000000
          5  -1.000000000   0.000000000  -0.333333333
          6   1.000000000   0.000000000   0.333333333
          7   0.000000000   0.333333333   1.000000000
          8   0.000000000  -0.333333333  -1.000000000
          9  -1.000000000  -0.333333333   0.000000000
         10   1.000000000   0.333333333   0.000000000
         11  -0.333333333   0.000000000   1.000000000
         12   0.333333333   0.000000000   1.000000000

     Diagonalizing the dynamical matrix

     q = (   -0.333333333  -1.000000000   0.000000000 ) 

 **************************************************************************
     freq (    1) =       5.610581 [THz] =     187.148822 [cm-1]
     freq (    2) =       5.610581 [THz] =     187.148822 [cm-1]
     freq (    3) =      10.752248 [THz] =     358.656371 [cm-1]
     freq (    4) =      10.752248 [THz] =     358.656371 [cm-1]
     freq (    5) =      13.579344 [THz] =     452.958152 [cm-1]
     freq (    6) =      13.579344 [THz] =     452.958152 [cm-1]
 **************************************************************************
 
     init_run     :      0.78s CPU      1.05s WALL (      15 calls)
     electrons    :     46.83s CPU     49.27s WALL (      15 calls)

     Called by init_run:
     wfcinit      :      0.00s CPU      0.19s WALL (      15 calls)
     potinit      :      0.14s CPU      0.20s WALL (      15 calls)

     Called by electrons:
     c_bands      :     46.81s CPU     49.26s WALL (      15 calls)
     v_of_rho     :      0.05s CPU      0.04s WALL (      16 calls)
     newd         :      0.06s CPU      0.07s WALL (      16 calls)

     Called by c_bands:
     init_us_2    :      1.79s CPU      2.02s WALL (   84838 calls)
     cegterg      :     17.72s CPU     18.37s WALL (    2692 calls)

     Called by sum_band:

     Called by *egterg:
     h_psi        :     13.59s CPU     14.14s WALL (   38976 calls)
     s_psi        :     21.93s CPU     23.73s WALL ( 1792288 calls)
     g_psi        :      0.06s CPU      0.09s WALL (   33592 calls)
     cdiaghg      :      2.87s CPU      3.00s WALL (   36284 calls)

     Called by h_psi:
     add_vuspsi   :     12.98s CPU     13.84s WALL (  878223 calls)

     General routines
     calbec       :     52.28s CPU     57.41s WALL ( 1928954 calls)
     fft          :      1.66s CPU      1.71s WALL (   15507 calls)
     ffts         :      5.59s CPU      5.70s WALL (   10512 calls)
     fftw         :    231.79s CPU    253.76s WALL ( 7854428 calls)
     interpolate  :      0.40s CPU      0.41s WALL (    1788 calls)
     davcio       :     14.80s CPU     17.93s WALL (  381542 calls)
 
     Parallel routines
     fft_scatter  :    135.64s CPU    148.95s WALL ( 7880447 calls)
 
     PHONON       : 20m53.93s CPU    23m 7.31s WALL

     INITIALIZATION: 
     phq_setup    :      0.21s CPU      0.80s WALL (      16 calls)
     phq_init     :     17.88s CPU     19.17s WALL (      16 calls)
 
     phq_init     :     17.88s CPU     19.17s WALL (      16 calls)
     set_drhoc    :      0.58s CPU      0.61s WALL (      48 calls)
     init_vloc    :      0.02s CPU      0.02s WALL (      16 calls)
     init_us_1    :      0.43s CPU      0.44s WALL (      16 calls)
     newd         :      0.06s CPU      0.07s WALL (      16 calls)
     dvanqq       :      0.49s CPU      0.52s WALL (      16 calls)
     drho         :     11.93s CPU     12.25s WALL (      16 calls)
 
     DYNAMICAL MATRIX:
     dynmat0      :      2.43s CPU      3.06s WALL (      16 calls)
     phqscf       :   1146.77s CPU   1239.72s WALL (      16 calls)
     dynmatrix    :      1.99s CPU      2.58s WALL (      16 calls)
 
     phqscf       :   1146.77s CPU   1239.72s WALL (      16 calls)
     solve_linter :   1144.25s CPU   1232.19s WALL (      76 calls)
     drhodv       :      2.24s CPU      2.65s WALL (      76 calls)
 
     dynmat0      :      2.43s CPU      3.06s WALL (      16 calls)
     dynmat_us    :      1.95s CPU      2.02s WALL (      16 calls)
     d2ionq       :      0.01s CPU      0.01s WALL (      16 calls)
     dynmatcc     :      0.44s CPU      0.44s WALL (      16 calls)
 
     dynmat_us    :      1.95s CPU      2.02s WALL (      16 calls)
     addusdynmat  :      0.00s CPU      0.00s WALL (      16 calls)
 
     phqscf       :   1146.77s CPU   1239.72s WALL (      16 calls)
     solve_linter :   1144.25s CPU   1232.19s WALL (      76 calls)
 
     solve_linter :   1144.25s CPU   1232.19s WALL (      76 calls)
     dvqpsi_us    :     10.21s CPU     10.76s WALL (    8172 calls)
     ortho        :      5.26s CPU      5.83s WALL (   74794 calls)
     cgsolve      :    345.04s CPU    378.54s WALL (   74794 calls)
     incdrhoscf   :     24.37s CPU     26.15s WALL (   74794 calls)
     addusddens   :      3.52s CPU      3.62s WALL (     747 calls)
     vpsifft      :     17.23s CPU     18.71s WALL (   66478 calls)
     dv_of_drho   :      1.20s CPU      1.22s WALL (     832 calls)
     mix_pot      :      2.52s CPU     13.27s WALL (     678 calls)
     psymdvscf    :     14.76s CPU     14.81s WALL (     671 calls)
     newdq        :      3.57s CPU      3.63s WALL (     678 calls)
     adddvscf     :      1.40s CPU      1.52s WALL (   66622 calls)
     drhodvus     :      0.06s CPU      0.05s WALL (      76 calls)
 
     dvqpsi_us    :     10.21s CPU     10.76s WALL (    8172 calls)
     dvqpsi_us_on :      2.64s CPU      2.94s WALL (    8172 calls)
 
     cgsolve      :    345.04s CPU    378.54s WALL (   74794 calls)
     ch_psi       :    317.94s CPU    348.64s WALL (  839247 calls)
 
     ch_psi       :    317.94s CPU    348.64s WALL (  839247 calls)
     h_psiq       :    262.71s CPU    287.97s WALL (  839247 calls)
     last         :     52.37s CPU     57.52s WALL (  839247 calls)
 
     h_psiq       :    262.71s CPU    287.97s WALL (  839247 calls)
     firstfft     :    111.17s CPU    121.64s WALL ( 3153024 calls)
     secondfft    :     92.68s CPU    102.32s WALL ( 3153024 calls)
     add_vuspsi   :     12.98s CPU     13.84s WALL (  878223 calls)
 
     incdrhoscf   :     24.37s CPU     26.15s WALL (   74794 calls)
     addusdbec    :      3.38s CPU      3.46s WALL (   82918 calls)
 
     drhodvus     :      0.06s CPU      0.05s WALL (      76 calls)
 
      General routines
     calbec       :     52.28s CPU     57.41s WALL ( 1928954 calls)
     fft          :      1.66s CPU      1.71s WALL (   15507 calls)
     ffts         :      5.59s CPU      5.70s WALL (   10512 calls)
     fftw         :    231.79s CPU    253.76s WALL ( 7854428 calls)
     davcio       :     14.80s CPU     17.93s WALL (  381542 calls)
     write_rec    :      1.88s CPU     38.50s WALL (     754 calls)
 
 
     PHONON       : 20m53.93s CPU    23m 7.31s WALL

 
   This run was terminated on:  14:21: 1   7Apr2018            

=------------------------------------------------------------------------------=
   JOB DONE.
=------------------------------------------------------------------------------=
Application 30445984 resources: utime ~502147s, stime ~14806s, Rss ~32436, inblocks ~1099206929, outblocks ~520169420
