
     Program PHONON v.5.4.0 starts on  7Apr2018 at 13:38:16 

     This program is part of the open-source Quantum ESPRESSO suite
     for quantum simulation of materials; please cite
         "P. Giannozzi et al., J. Phys.:Condens. Matter 21 395502 (2009);
          URL http://www.quantum-espresso.org", 
     in publications or presentations arising from this work. More details at
     http://www.quantum-espresso.org/quote

     Parallel version (MPI & OpenMP), running on     384 processor cores
     Number of MPI processes:               384
     Threads/MPI process:                     1
     K-points division:     npool     =      24
     R & G space division:  proc/nbgrp/npool/nimage =      16

     Reading data from directory:
     ./silicon/silicon.10.316.save

   Info: using nr1, nr2, nr3 values from input

   Info: using nr1, nr2, nr3 values from input

     IMPORTANT: XC functional enforced from input :
     Exchange-correlation      = SLA  PW   PBE  PBE ( 1  4  3  4 0 0)
     Any further DFT definition will be discarded
     Please, verify this is what you really want

 
     Parallelization info
     --------------------
     sticks:   dense  smooth     PW     G-vecs:    dense   smooth      PW
     Min          54      27      9                 1071      370      76
     Max          56      28     10                 1073      383      79
     Sum         871     439    151                17153     6081    1243
 


     Dynamical matrices for ( 6, 6, 6)  uniform grid of q-points
     (  16q-points):
       N         xq(1)         xq(2)         xq(3) 
       1   0.000000000   0.000000000   0.000000000
       2  -0.166666667   0.166666667  -0.166666667
       3  -0.333333333   0.333333333  -0.333333333
       4   0.500000000  -0.500000000   0.500000000
       5   0.000000000   0.333333333   0.000000000
       6  -0.166666667   0.500000000  -0.166666667
       7   0.666666667  -0.333333333   0.666666667
       8   0.500000000  -0.166666667   0.500000000
       9   0.333333333   0.000000000   0.333333333
      10   0.000000000   0.666666667   0.000000000
      11   0.833333333  -0.166666667   0.833333333
      12   0.666666667  -0.000000000   0.666666667
      13   0.000000000  -1.000000000   0.000000000
      14   0.666666667  -0.333333333   1.000000000
      15   0.500000000  -0.166666667   0.833333333
      16  -0.333333333  -1.000000000   0.000000000

     Calculation of q =    0.0000000   0.0000000   0.0000000

                                                                                

     bravais-lattice index     =            2
     lattice parameter (alat)  =      10.3160  a.u.
     unit-cell volume          =     274.4568 (a.u.)^3
     number of atoms/cell      =            2
     number of atomic types    =            1
     kinetic-energy cut-off    =      30.0000  Ry
     charge density cut-off    =     240.0000  Ry
     convergence threshold     =      1.0E-16
     beta                      =       0.7000
     number of iterations used =            4
     Exchange-correlation      = SLA  PW   PBE  PBE ( 1  4  3  4 0 0)


     celldm(1)=   10.31600  celldm(2)=    0.00000  celldm(3)=    0.00000
     celldm(4)=    0.00000  celldm(5)=    0.00000  celldm(6)=    0.00000

     crystal axes: (cart. coord. in units of alat)
               a(1) = ( -0.5000  0.0000  0.5000 )  
               a(2) = (  0.0000  0.5000  0.5000 )  
               a(3) = ( -0.5000  0.5000  0.0000 )  

     reciprocal axes: (cart. coord. in units 2 pi/alat)
               b(1) = ( -1.0000 -1.0000  1.0000 )  
               b(2) = (  1.0000  1.0000  1.0000 )  
               b(3) = ( -1.0000  1.0000 -1.0000 )  


     Atoms inside the unit cell: 

     Cartesian axes

     site n.  atom      mass           positions (alat units)
        1     Si  28.0860   tau(    1) = (    0.00000    0.00000    0.00000  )
        2     Si  28.0860   tau(    2) = (    0.25000    0.25000    0.25000  )

     Computing dynamical matrix for 
                    q = (   0.0000000   0.0000000   0.0000000 )
 
     49 Sym.Ops. (with q -> -q+G )


     G cutoff =  646.9551  (   1072 G-vectors)     FFT grid: ( 36, 36, 36)
     G cutoff =  323.4776  (    380 G-vectors)  smooth grid: ( 25, 25, 25)
     number of k points=   182

     PseudoPot. # 1 for Si read from file:
     ./si_pbe_v1.uspp.F.UPF.txt
     MD5 check sum: a056efeee980c13900f22a371efd63c1
     Pseudo is Ultrasoft + core correction, Zval =  4.0
     Generated by new atomic code, or converted to UPF format
     Using radial grid of  899 points,  6 beta functions with: 
                l(1) =   0
                l(2) =   0
                l(3) =   1
                l(4) =   1
                l(5) =   2
                l(6) =   2
     Q(r) pseudized with  8 coefficients,  rinner =    0.900   0.900   0.900
                                                       0.900   0.900

     Mode symmetry, O_h (m-3m)  point group:


     Electric field:
     Dielectric constant
     Born effective charges in two ways 


     Atomic displacements:
     There are   2 irreducible representations

     Representation     1      3 modes -T_2g G_25' G_5+  To be done

     Representation     2      3 modes -T_1u G_15  G_4-  To be done



     Alpha used in Ewald sum =   2.5000
     PHONON       :     2.17s CPU         2.91s WALL


     Electric Fields Calculation

      iter #   1 total cpu time :     3.8 secs   av.it.:   6.5
      thresh= 1.000E-02 alpha_mix =  0.700 |ddv_scf|^2 =  7.574E-08

      iter #   2 total cpu time :     4.5 secs   av.it.:  12.2
      thresh= 2.752E-05 alpha_mix =  0.700 |ddv_scf|^2 =  4.318E-09

      iter #   3 total cpu time :     5.0 secs   av.it.:  12.1
      thresh= 6.571E-06 alpha_mix =  0.700 |ddv_scf|^2 =  2.758E-10

      iter #   4 total cpu time :     5.8 secs   av.it.:  11.3
      thresh= 1.661E-06 alpha_mix =  0.700 |ddv_scf|^2 =  1.777E-12

      iter #   5 total cpu time :     6.2 secs   av.it.:  11.4
      thresh= 1.333E-07 alpha_mix =  0.700 |ddv_scf|^2 =  1.695E-15

      iter #   6 total cpu time :     7.0 secs   av.it.:  11.2
      thresh= 4.117E-09 alpha_mix =  0.700 |ddv_scf|^2 =  1.124E-16

      iter #   7 total cpu time :    23.5 secs   av.it.:  11.7
      thresh= 1.060E-09 alpha_mix =  0.700 |ddv_scf|^2 =  1.731E-19

     End of electric fields calculation

          Dielectric constant in cartesian axis 

          (      12.954859944       0.000000000       0.000000000 )
          (      -0.000000000      12.954859944      -0.000000000 )
          (       0.000000000       0.000000000      12.954859944 )

          Effective charges (d Force / dE) in cartesian axis

           atom      1   Si 
      Ex  (        0.01919       -0.00000       -0.00000 )
      Ey  (       -0.00000        0.01919        0.00000 )
      Ez  (       -0.00000       -0.00000        0.01919 )
           atom      2   Si 
      Ex  (        0.01919        0.00000        0.00000 )
      Ey  (        0.00000        0.01919       -0.00000 )
      Ez  (        0.00000        0.00000        0.01919 )


     Representation #  1 modes #   1  2  3

     Self-consistent Calculation

      iter #   1 total cpu time :    26.3 secs   av.it.:   5.1
      thresh= 1.000E-02 alpha_mix =  0.700 |ddv_scf|^2 =  1.322E-08

      iter #   2 total cpu time :    26.8 secs   av.it.:  12.0
      thresh= 1.150E-05 alpha_mix =  0.700 |ddv_scf|^2 =  5.427E-10

      iter #   3 total cpu time :    27.5 secs   av.it.:  11.8
      thresh= 2.330E-06 alpha_mix =  0.700 |ddv_scf|^2 =  3.688E-11

      iter #   4 total cpu time :    28.0 secs   av.it.:  10.9
      thresh= 6.073E-07 alpha_mix =  0.700 |ddv_scf|^2 =  9.105E-14

      iter #   5 total cpu time :    28.6 secs   av.it.:  11.8
      thresh= 3.017E-08 alpha_mix =  0.700 |ddv_scf|^2 =  7.779E-16

      iter #   6 total cpu time :    29.1 secs   av.it.:  11.7
      thresh= 2.789E-09 alpha_mix =  0.700 |ddv_scf|^2 =  1.290E-17

     End of self-consistent calculation

     Convergence has been achieved 


     Representation #  2 modes #   4  5  6

     Self-consistent Calculation

      iter #   1 total cpu time :    29.6 secs   av.it.:   5.2
      thresh= 1.000E-02 alpha_mix =  0.700 |ddv_scf|^2 =  1.045E-08

      iter #   2 total cpu time :    30.1 secs   av.it.:  12.0
      thresh= 1.022E-05 alpha_mix =  0.700 |ddv_scf|^2 =  6.158E-10

      iter #   3 total cpu time :    30.6 secs   av.it.:  11.7
      thresh= 2.482E-06 alpha_mix =  0.700 |ddv_scf|^2 =  3.814E-11

      iter #   4 total cpu time :    31.1 secs   av.it.:  11.7
      thresh= 6.176E-07 alpha_mix =  0.700 |ddv_scf|^2 =  1.481E-13

      iter #   5 total cpu time :    31.6 secs   av.it.:  11.6
      thresh= 3.849E-08 alpha_mix =  0.700 |ddv_scf|^2 =  3.770E-16

      iter #   6 total cpu time :    36.8 secs   av.it.:  12.0
      thresh= 1.942E-09 alpha_mix =  0.700 |ddv_scf|^2 =  3.116E-17

     End of self-consistent calculation

     Convergence has been achieved 
 
     Number of q in the star =    1
     List of q in the star:
          1   0.000000000   0.000000000   0.000000000

          Dielectric constant in cartesian axis 

          (      12.954859944       0.000000000       0.000000000 )
          (      -0.000000000      12.954859944      -0.000000000 )
          (       0.000000000       0.000000000      12.954859944 )

          Effective charges (d Force / dE) in cartesian axis

           atom      1   Si 
      Ex  (        0.01919       -0.00000       -0.00000 )
      Ey  (       -0.00000        0.01919        0.00000 )
      Ez  (       -0.00000       -0.00000        0.01919 )
           atom      2   Si 
      Ex  (        0.01919        0.00000        0.00000 )
      Ey  (        0.00000        0.01919       -0.00000 )
      Ez  (        0.00000        0.00000        0.01919 )

          Effective charges (d P / du) in cartesian axis 

           atom      1   Si 
      Px  (       -0.00054        0.00000        0.00000 )
      Py  (        0.00000       -0.00054       -0.00000 )
      Pz  (        0.00000        0.00000       -0.00054 )
           atom      2   Si 
      Px  (       -0.00054        0.00000        0.00000 )
      Py  (        0.00000       -0.00054        0.00000 )
      Pz  (        0.00000        0.00000       -0.00054 )

     Diagonalizing the dynamical matrix

     q = (    0.000000000   0.000000000   0.000000000 ) 

 **************************************************************************
     freq (    1) =      -0.114953 [THz] =      -3.834432 [cm-1]
     freq (    2) =      -0.114953 [THz] =      -3.834432 [cm-1]
     freq (    3) =      -0.114953 [THz] =      -3.834432 [cm-1]
     freq (    4) =      15.156288 [THz] =     505.559361 [cm-1]
     freq (    5) =      15.156288 [THz] =     505.559361 [cm-1]
     freq (    6) =      15.156288 [THz] =     505.559361 [cm-1]
 **************************************************************************

     Mode symmetry, O_h (m-3m)  point group:

     freq (  1 -  3) =         -3.8  [cm-1]   --> T_1u G_15  G_4- I  
     freq (  4 -  6) =        505.6  [cm-1]   --> T_2g G_25' G_5+ R  

     Calculation of q =   -0.1666667   0.1666667  -0.1666667
 
     Parallelization info
     --------------------
     sticks:   dense  smooth     PW     G-vecs:    dense   smooth      PW
     Min          54      27     10                 1071      372      80
     Max          56      28     11                 1073      382      82
     Sum         871     439    163                17153     6081    1291
 


     bravais-lattice index     =            2
     lattice parameter (alat)  =      10.3160  a.u.
     unit-cell volume          =     274.4568 (a.u.)^3
     number of atoms/cell      =            2
     number of atomic types    =            1
     number of electrons       =         8.00
     number of Kohn-Sham states=            4
     kinetic-energy cutoff     =      30.0000  Ry
     charge density cutoff     =     240.0000  Ry
     Exchange-correlation      = SLA  PW   PBE  PBE ( 1  4  3  4 0 0)

     celldm(1)=  10.316000  celldm(2)=   0.000000  celldm(3)=   0.000000
     celldm(4)=   0.000000  celldm(5)=   0.000000  celldm(6)=   0.000000

     crystal axes: (cart. coord. in units of alat)
               a(1) = (  -0.500000   0.000000   0.500000 )  
               a(2) = (   0.000000   0.500000   0.500000 )  
               a(3) = (  -0.500000   0.500000   0.000000 )  

     reciprocal axes: (cart. coord. in units 2 pi/alat)
               b(1) = ( -1.000000 -1.000000  1.000000 )  
               b(2) = (  1.000000  1.000000  1.000000 )  
               b(3) = ( -1.000000  1.000000 -1.000000 )  


     PseudoPot. # 1 for Si read from file:
     ./si_pbe_v1.uspp.F.UPF.txt
     MD5 check sum: a056efeee980c13900f22a371efd63c1
     Pseudo is Ultrasoft + core correction, Zval =  4.0
     Generated by new atomic code, or converted to UPF format
     Using radial grid of  899 points,  6 beta functions with: 
                l(1) =   0
                l(2) =   0
                l(3) =   1
                l(4) =   1
                l(5) =   2
                l(6) =   2
     Q(r) pseudized with  8 coefficients,  rinner =    0.900   0.900   0.900
                                                       0.900   0.900

     atomic species   valence    mass     pseudopotential
        Si             4.00    28.08600     Si( 1.00)

     48 Sym. Ops., with inversion, found



   Cartesian axes

     site n.     atom                  positions (alat units)
         1           Si  tau(   1) = (   0.0000000   0.0000000   0.0000000  )
         2           Si  tau(   2) = (   0.2500000   0.2500000   0.2500000  )

     number of k points=  2600

     Number of k-points >= 100: set verbosity='high' to print them.

     Dense  grid:    17153 G-vectors     FFT dimensions: (  36,  36,  36)

     Smooth grid:     6081 G-vectors     FFT dimensions: (  25,  25,  25)

     Largest allocated arrays     est. size (Mb)     dimensions
        Kohn-Sham Wavefunctions         0.00 Mb     (      55,    4)
        NL pseudopotentials             0.03 Mb     (      55,   36)
        Each V/rho on FFT grid          0.06 Mb     (    3888)
        Each G-vector array             0.01 Mb     (    1072)
        G-vector shells                 0.00 Mb     (     208)
     Largest temporary arrays     est. size (Mb)     dimensions
        Auxiliary wavefunctions         0.01 Mb     (      55,   16)
        Each subspace H/S matrix        0.00 Mb     (       8,    8)
        Each <psi_i|beta_j> matrix      0.00 Mb     (      36,    4)

     The potential is recalculated from file :
     ./silicon/_ph0/silicon.10.316.save/charge-density.dat

     Starting wfc are    8 atomic wfcs

     Band Structure Calculation
     Davidson diagonalization with overlap

     ethr =  1.25E-10,  avg # of iterations = 12.4

     total cpu time spent up to now is        1.6 secs

     End of band structure calculation

     Number of k-points >= 100: set verbosity='high' to print the bands.

     highest occupied level (ev):     5.9923

     Writing output data file silicon.10.316.save

                                                                                

     bravais-lattice index     =            2
     lattice parameter (alat)  =      10.3160  a.u.
     unit-cell volume          =     274.4568 (a.u.)^3
     number of atoms/cell      =            2
     number of atomic types    =            1
     kinetic-energy cut-off    =      30.0000  Ry
     charge density cut-off    =     240.0000  Ry
     convergence threshold     =      1.0E-16
     beta                      =       0.7000
     number of iterations used =            4
     Exchange-correlation      = SLA  PW   PBE  PBE ( 1  4  3  4 0 0)


     celldm(1)=   10.31600  celldm(2)=    0.00000  celldm(3)=    0.00000
     celldm(4)=    0.00000  celldm(5)=    0.00000  celldm(6)=    0.00000

     crystal axes: (cart. coord. in units of alat)
               a(1) = ( -0.5000  0.0000  0.5000 )  
               a(2) = (  0.0000  0.5000  0.5000 )  
               a(3) = ( -0.5000  0.5000  0.0000 )  

     reciprocal axes: (cart. coord. in units 2 pi/alat)
               b(1) = ( -1.0000 -1.0000  1.0000 )  
               b(2) = (  1.0000  1.0000  1.0000 )  
               b(3) = ( -1.0000  1.0000 -1.0000 )  


     Atoms inside the unit cell: 

     Cartesian axes

     site n.  atom      mass           positions (alat units)
        1     Si  28.0860   tau(    1) = (    0.00000    0.00000    0.00000  )
        2     Si  28.0860   tau(    2) = (    0.25000    0.25000    0.25000  )

     Computing dynamical matrix for 
                    q = (  -0.1666667   0.1666667  -0.1666667 )
 
      6 Sym.Ops. (no q -> -q+G )


     G cutoff =  646.9551  (   1072 G-vectors)     FFT grid: ( 36, 36, 36)
     G cutoff =  323.4776  (    380 G-vectors)  smooth grid: ( 25, 25, 25)
     number of k points=  2600

     PseudoPot. # 1 for Si read from file:
     ./si_pbe_v1.uspp.F.UPF.txt
     MD5 check sum: a056efeee980c13900f22a371efd63c1
     Pseudo is Ultrasoft + core correction, Zval =  4.0
     Generated by new atomic code, or converted to UPF format
     Using radial grid of  899 points,  6 beta functions with: 
                l(1) =   0
                l(2) =   0
                l(3) =   1
                l(4) =   1
                l(5) =   2
                l(6) =   2
     Q(r) pseudized with  8 coefficients,  rinner =    0.900   0.900   0.900
                                                       0.900   0.900

     Mode symmetry, C_3v (3m)   point group:


     Atomic displacements:
     There are   4 irreducible representations

     Representation     1      1 modes -A_1  L_1  To be done

     Representation     2      1 modes -A_1  L_1  To be done

     Representation     3      2 modes -E    L_3  To be done

     Representation     4      2 modes -E    L_3  To be done



     Alpha used in Ewald sum =   2.5000
     PHONON       :    38.55s CPU        42.69s WALL



     Representation #  1 mode #   1

     Self-consistent Calculation

      iter #   1 total cpu time :    43.2 secs   av.it.:   6.1
      thresh= 1.000E-02 alpha_mix =  0.700 |ddv_scf|^2 =  1.091E-03

      iter #   2 total cpu time :    43.8 secs   av.it.:   9.1
      thresh= 3.303E-03 alpha_mix =  0.700 |ddv_scf|^2 =  3.383E-02

      iter #   3 total cpu time :    44.3 secs   av.it.:   7.2
      thresh= 1.000E-02 alpha_mix =  0.700 |ddv_scf|^2 =  3.413E-07

      iter #   4 total cpu time :    44.8 secs   av.it.:   9.8
      thresh= 5.842E-05 alpha_mix =  0.700 |ddv_scf|^2 =  6.274E-09

      iter #   5 total cpu time :    45.4 secs   av.it.:  10.4
      thresh= 7.921E-06 alpha_mix =  0.700 |ddv_scf|^2 =  9.423E-10

      iter #   6 total cpu time :    46.0 secs   av.it.:   9.5
      thresh= 3.070E-06 alpha_mix =  0.700 |ddv_scf|^2 =  1.000E-09

      iter #   7 total cpu time :    46.4 secs   av.it.:   7.0
      thresh= 3.162E-06 alpha_mix =  0.700 |ddv_scf|^2 =  5.987E-11

      iter #   8 total cpu time :    47.0 secs   av.it.:   9.0
      thresh= 7.737E-07 alpha_mix =  0.700 |ddv_scf|^2 =  1.160E-12

      iter #   9 total cpu time :    47.5 secs   av.it.:   8.2
      thresh= 1.077E-07 alpha_mix =  0.700 |ddv_scf|^2 =  4.233E-14

      iter #  10 total cpu time :    48.0 secs   av.it.:   9.0
      thresh= 2.057E-08 alpha_mix =  0.700 |ddv_scf|^2 =  9.956E-15

      iter #  11 total cpu time :    48.5 secs   av.it.:   9.2
      thresh= 9.978E-09 alpha_mix =  0.700 |ddv_scf|^2 =  4.555E-16

      iter #  12 total cpu time :    49.1 secs   av.it.:   9.7
      thresh= 2.134E-09 alpha_mix =  0.700 |ddv_scf|^2 =  1.404E-17

     End of self-consistent calculation

     Convergence has been achieved 


     Representation #  2 mode #   2

     Self-consistent Calculation

      iter #   1 total cpu time :    50.9 secs   av.it.:   6.1
      thresh= 1.000E-02 alpha_mix =  0.700 |ddv_scf|^2 =  1.091E-03

      iter #   2 total cpu time :    51.4 secs   av.it.:   9.1
      thresh= 3.303E-03 alpha_mix =  0.700 |ddv_scf|^2 =  3.383E-02

      iter #   3 total cpu time :    51.9 secs   av.it.:   7.2
      thresh= 1.000E-02 alpha_mix =  0.700 |ddv_scf|^2 =  3.413E-07

      iter #   4 total cpu time :    52.5 secs   av.it.:   9.8
      thresh= 5.842E-05 alpha_mix =  0.700 |ddv_scf|^2 =  6.274E-09

      iter #   5 total cpu time :    53.2 secs   av.it.:  10.4
      thresh= 7.921E-06 alpha_mix =  0.700 |ddv_scf|^2 =  9.423E-10

      iter #   6 total cpu time :    53.7 secs   av.it.:   9.5
      thresh= 3.070E-06 alpha_mix =  0.700 |ddv_scf|^2 =  1.000E-09

      iter #   7 total cpu time :    54.2 secs   av.it.:   7.0
      thresh= 3.162E-06 alpha_mix =  0.700 |ddv_scf|^2 =  5.987E-11

      iter #   8 total cpu time :    54.7 secs   av.it.:   9.0
      thresh= 7.737E-07 alpha_mix =  0.700 |ddv_scf|^2 =  1.160E-12

      iter #   9 total cpu time :    55.2 secs   av.it.:   8.2
      thresh= 1.077E-07 alpha_mix =  0.700 |ddv_scf|^2 =  4.233E-14

      iter #  10 total cpu time :    55.7 secs   av.it.:   9.0
      thresh= 2.057E-08 alpha_mix =  0.700 |ddv_scf|^2 =  9.956E-15

      iter #  11 total cpu time :    56.2 secs   av.it.:   9.2
      thresh= 9.978E-09 alpha_mix =  0.700 |ddv_scf|^2 =  4.555E-16

      iter #  12 total cpu time :    56.8 secs   av.it.:   9.7
      thresh= 2.134E-09 alpha_mix =  0.700 |ddv_scf|^2 =  1.404E-17

     End of self-consistent calculation

     Convergence has been achieved 


     Representation #  3 modes #   3  4

     Self-consistent Calculation

      iter #   1 total cpu time :    57.7 secs   av.it.:   5.3
      thresh= 1.000E-02 alpha_mix =  0.700 |ddv_scf|^2 =  3.216E-08

      iter #   2 total cpu time :    58.9 secs   av.it.:  11.8
      thresh= 1.793E-05 alpha_mix =  0.700 |ddv_scf|^2 =  1.819E-09

      iter #   3 total cpu time :    60.1 secs   av.it.:  11.5
      thresh= 4.265E-06 alpha_mix =  0.700 |ddv_scf|^2 =  1.104E-10

      iter #   4 total cpu time :    61.3 secs   av.it.:  11.2
      thresh= 1.051E-06 alpha_mix =  0.700 |ddv_scf|^2 =  4.729E-13

      iter #   5 total cpu time :    62.6 secs   av.it.:  11.6
      thresh= 6.877E-08 alpha_mix =  0.700 |ddv_scf|^2 =  3.106E-14

      iter #   6 total cpu time :    64.0 secs   av.it.:  11.5
      thresh= 1.762E-08 alpha_mix =  0.700 |ddv_scf|^2 =  1.792E-16

      iter #   7 total cpu time :    65.1 secs   av.it.:  10.9
      thresh= 1.339E-09 alpha_mix =  0.700 |ddv_scf|^2 =  1.510E-17

     End of self-consistent calculation

     Convergence has been achieved 


     Representation #  4 modes #   5  6

     Self-consistent Calculation

      iter #   1 total cpu time :    66.1 secs   av.it.:   5.3
      thresh= 1.000E-02 alpha_mix =  0.700 |ddv_scf|^2 =  3.217E-08

      iter #   2 total cpu time :    67.4 secs   av.it.:  12.0
      thresh= 1.794E-05 alpha_mix =  0.700 |ddv_scf|^2 =  1.820E-09

      iter #   3 total cpu time :    68.6 secs   av.it.:  11.9
      thresh= 4.266E-06 alpha_mix =  0.700 |ddv_scf|^2 =  1.104E-10

      iter #   4 total cpu time :    69.7 secs   av.it.:  11.5
      thresh= 1.051E-06 alpha_mix =  0.700 |ddv_scf|^2 =  4.728E-13

      iter #   5 total cpu time :    71.0 secs   av.it.:  11.8
      thresh= 6.876E-08 alpha_mix =  0.700 |ddv_scf|^2 =  3.103E-14

      iter #   6 total cpu time :    72.2 secs   av.it.:  11.7
      thresh= 1.762E-08 alpha_mix =  0.700 |ddv_scf|^2 =  1.788E-16

      iter #   7 total cpu time :    73.4 secs   av.it.:  11.1
      thresh= 1.337E-09 alpha_mix =  0.700 |ddv_scf|^2 =  1.506E-17

     End of self-consistent calculation

     Convergence has been achieved 
 
     Number of q in the star =    8
     List of q in the star:
          1  -0.166666667   0.166666667  -0.166666667
          2   0.166666667   0.166666667   0.166666667
          3  -0.166666667  -0.166666667  -0.166666667
          4   0.166666667  -0.166666667   0.166666667
          5   0.166666667  -0.166666667  -0.166666667
          6   0.166666667   0.166666667  -0.166666667
          7  -0.166666667  -0.166666667   0.166666667
          8  -0.166666667   0.166666667   0.166666667

     Diagonalizing the dynamical matrix

     q = (   -0.166666667   0.166666667  -0.166666667 ) 

 **************************************************************************
     freq (    1) =       2.223850 [THz] =      74.179654 [cm-1]
     freq (    2) =       2.223850 [THz] =      74.179654 [cm-1]
     freq (    3) =       4.676824 [THz] =     156.002048 [cm-1]
     freq (    4) =      14.771683 [THz] =     492.730309 [cm-1]
     freq (    5) =      14.795134 [THz] =     493.512533 [cm-1]
     freq (    6) =      14.795134 [THz] =     493.512533 [cm-1]
 **************************************************************************

     Mode symmetry, C_3v (3m)   point group:

     freq (  1 -  2) =         74.2  [cm-1]   --> E    L_3           
     freq (  3 -  3) =        156.0  [cm-1]   --> A_1  L_1           
     freq (  4 -  4) =        492.7  [cm-1]   --> A_1  L_1           
     freq (  5 -  6) =        493.5  [cm-1]   --> E    L_3           

     Calculation of q =   -0.3333333   0.3333333  -0.3333333
 
     Parallelization info
     --------------------
     sticks:   dense  smooth     PW     G-vecs:    dense   smooth      PW
     Min          54      27     10                 1071      377      87
     Max          56      28     11                 1073      384      90
     Sum         871     439    163                17153     6081    1411
 


     bravais-lattice index     =            2
     lattice parameter (alat)  =      10.3160  a.u.
     unit-cell volume          =     274.4568 (a.u.)^3
     number of atoms/cell      =            2
     number of atomic types    =            1
     number of electrons       =         8.00
     number of Kohn-Sham states=            4
     kinetic-energy cutoff     =      30.0000  Ry
     charge density cutoff     =     240.0000  Ry
     Exchange-correlation      = SLA  PW   PBE  PBE ( 1  4  3  4 0 0)

     celldm(1)=  10.316000  celldm(2)=   0.000000  celldm(3)=   0.000000
     celldm(4)=   0.000000  celldm(5)=   0.000000  celldm(6)=   0.000000

     crystal axes: (cart. coord. in units of alat)
               a(1) = (  -0.500000   0.000000   0.500000 )  
               a(2) = (   0.000000   0.500000   0.500000 )  
               a(3) = (  -0.500000   0.500000   0.000000 )  

     reciprocal axes: (cart. coord. in units 2 pi/alat)
               b(1) = ( -1.000000 -1.000000  1.000000 )  
               b(2) = (  1.000000  1.000000  1.000000 )  
               b(3) = ( -1.000000  1.000000 -1.000000 )  


     PseudoPot. # 1 for Si read from file:
     ./si_pbe_v1.uspp.F.UPF.txt
     MD5 check sum: a056efeee980c13900f22a371efd63c1
     Pseudo is Ultrasoft + core correction, Zval =  4.0
     Generated by new atomic code, or converted to UPF format
     Using radial grid of  899 points,  6 beta functions with: 
                l(1) =   0
                l(2) =   0
                l(3) =   1
                l(4) =   1
                l(5) =   2
                l(6) =   2
     Q(r) pseudized with  8 coefficients,  rinner =    0.900   0.900   0.900
                                                       0.900   0.900

     atomic species   valence    mass     pseudopotential
        Si             4.00    28.08600     Si( 1.00)

     48 Sym. Ops., with inversion, found



   Cartesian axes

     site n.     atom                  positions (alat units)
         1           Si  tau(   1) = (   0.0000000   0.0000000   0.0000000  )
         2           Si  tau(   2) = (   0.2500000   0.2500000   0.2500000  )

     number of k points=  2600

     Number of k-points >= 100: set verbosity='high' to print them.

     Dense  grid:    17153 G-vectors     FFT dimensions: (  36,  36,  36)

     Smooth grid:     6081 G-vectors     FFT dimensions: (  25,  25,  25)

     Largest allocated arrays     est. size (Mb)     dimensions
        Kohn-Sham Wavefunctions         0.00 Mb     (      53,    4)
        NL pseudopotentials             0.03 Mb     (      53,   36)
        Each V/rho on FFT grid          0.06 Mb     (    3888)
        Each G-vector array             0.01 Mb     (    1072)
        G-vector shells                 0.00 Mb     (     209)
     Largest temporary arrays     est. size (Mb)     dimensions
        Auxiliary wavefunctions         0.01 Mb     (      53,   16)
        Each subspace H/S matrix        0.00 Mb     (       8,    8)
        Each <psi_i|beta_j> matrix      0.00 Mb     (      36,    4)

     The potential is recalculated from file :
     ./silicon/_ph0/silicon.10.316.save/charge-density.dat

     Starting wfc are    8 atomic wfcs

     Band Structure Calculation
     Davidson diagonalization with overlap

     ethr =  1.25E-10,  avg # of iterations = 12.4

     total cpu time spent up to now is        5.7 secs

     End of band structure calculation

     Number of k-points >= 100: set verbosity='high' to print the bands.

     highest occupied level (ev):     5.9923

     Writing output data file silicon.10.316.save

                                                                                

     bravais-lattice index     =            2
     lattice parameter (alat)  =      10.3160  a.u.
     unit-cell volume          =     274.4568 (a.u.)^3
     number of atoms/cell      =            2
     number of atomic types    =            1
     kinetic-energy cut-off    =      30.0000  Ry
     charge density cut-off    =     240.0000  Ry
     convergence threshold     =      1.0E-16
     beta                      =       0.7000
     number of iterations used =            4
     Exchange-correlation      = SLA  PW   PBE  PBE ( 1  4  3  4 0 0)


     celldm(1)=   10.31600  celldm(2)=    0.00000  celldm(3)=    0.00000
     celldm(4)=    0.00000  celldm(5)=    0.00000  celldm(6)=    0.00000

     crystal axes: (cart. coord. in units of alat)
               a(1) = ( -0.5000  0.0000  0.5000 )  
               a(2) = (  0.0000  0.5000  0.5000 )  
               a(3) = ( -0.5000  0.5000  0.0000 )  

     reciprocal axes: (cart. coord. in units 2 pi/alat)
               b(1) = ( -1.0000 -1.0000  1.0000 )  
               b(2) = (  1.0000  1.0000  1.0000 )  
               b(3) = ( -1.0000  1.0000 -1.0000 )  


     Atoms inside the unit cell: 

     Cartesian axes

     site n.  atom      mass           positions (alat units)
        1     Si  28.0860   tau(    1) = (    0.00000    0.00000    0.00000  )
        2     Si  28.0860   tau(    2) = (    0.25000    0.25000    0.25000  )

     Computing dynamical matrix for 
                    q = (  -0.3333333   0.3333333  -0.3333333 )
 
      6 Sym.Ops. (no q -> -q+G )


     G cutoff =  646.9551  (   1072 G-vectors)     FFT grid: ( 36, 36, 36)
     G cutoff =  323.4776  (    384 G-vectors)  smooth grid: ( 25, 25, 25)
     number of k points=  2600

     PseudoPot. # 1 for Si read from file:
     ./si_pbe_v1.uspp.F.UPF.txt
     MD5 check sum: a056efeee980c13900f22a371efd63c1
     Pseudo is Ultrasoft + core correction, Zval =  4.0
     Generated by new atomic code, or converted to UPF format
     Using radial grid of  899 points,  6 beta functions with: 
                l(1) =   0
                l(2) =   0
                l(3) =   1
                l(4) =   1
                l(5) =   2
                l(6) =   2
     Q(r) pseudized with  8 coefficients,  rinner =    0.900   0.900   0.900
                                                       0.900   0.900

     Mode symmetry, C_3v (3m)   point group:


     Atomic displacements:
     There are   4 irreducible representations

     Representation     1      1 modes -A_1  L_1  To be done

     Representation     2      1 modes -A_1  L_1  To be done

     Representation     3      2 modes -E    L_3  To be done

     Representation     4      2 modes -E    L_3  To be done



     Alpha used in Ewald sum =   2.5000
     PHONON       :  1m10.22s CPU     1m18.89s WALL



     Representation #  1 mode #   1

     Self-consistent Calculation

      iter #   1 total cpu time :    79.3 secs   av.it.:   6.0
      thresh= 1.000E-02 alpha_mix =  0.700 |ddv_scf|^2 =  6.983E-05

      iter #   2 total cpu time :    79.9 secs   av.it.:  10.1
      thresh= 8.356E-04 alpha_mix =  0.700 |ddv_scf|^2 =  5.352E-04

      iter #   3 total cpu time :    80.4 secs   av.it.:   8.4
      thresh= 2.313E-03 alpha_mix =  0.700 |ddv_scf|^2 =  1.076E-07

      iter #   4 total cpu time :    81.0 secs   av.it.:  10.5
      thresh= 3.280E-05 alpha_mix =  0.700 |ddv_scf|^2 =  2.478E-09

      iter #   5 total cpu time :    81.6 secs   av.it.:  10.6
      thresh= 4.978E-06 alpha_mix =  0.700 |ddv_scf|^2 =  6.733E-11

      iter #   6 total cpu time :    82.2 secs   av.it.:  10.8
      thresh= 8.206E-07 alpha_mix =  0.700 |ddv_scf|^2 =  3.834E-12

      iter #   7 total cpu time :    82.8 secs   av.it.:  10.9
      thresh= 1.958E-07 alpha_mix =  0.700 |ddv_scf|^2 =  4.115E-12

      iter #   8 total cpu time :    83.3 secs   av.it.:   8.6
      thresh= 2.028E-07 alpha_mix =  0.700 |ddv_scf|^2 =  1.763E-13

      iter #   9 total cpu time :    83.9 secs   av.it.:  10.0
      thresh= 4.198E-08 alpha_mix =  0.700 |ddv_scf|^2 =  2.936E-13

      iter #  10 total cpu time :    84.4 secs   av.it.:   9.1
      thresh= 5.418E-08 alpha_mix =  0.700 |ddv_scf|^2 =  2.041E-15

      iter #  11 total cpu time :    85.0 secs   av.it.:  10.3
      thresh= 4.518E-09 alpha_mix =  0.700 |ddv_scf|^2 =  3.737E-16

      iter #  12 total cpu time :    85.6 secs   av.it.:  10.0
      thresh= 1.933E-09 alpha_mix =  0.700 |ddv_scf|^2 =  1.106E-17

     End of self-consistent calculation

     Convergence has been achieved 


     Representation #  2 mode #   2

     Self-consistent Calculation

      iter #   1 total cpu time :    86.7 secs   av.it.:   6.0
      thresh= 1.000E-02 alpha_mix =  0.700 |ddv_scf|^2 =  6.983E-05

      iter #   2 total cpu time :    87.3 secs   av.it.:  10.1
      thresh= 8.356E-04 alpha_mix =  0.700 |ddv_scf|^2 =  5.352E-04

      iter #   3 total cpu time :    87.8 secs   av.it.:   8.4
      thresh= 2.313E-03 alpha_mix =  0.700 |ddv_scf|^2 =  1.076E-07

      iter #   4 total cpu time :    88.3 secs   av.it.:  10.5
      thresh= 3.280E-05 alpha_mix =  0.700 |ddv_scf|^2 =  2.478E-09

      iter #   5 total cpu time :    89.6 secs   av.it.:  10.6
      thresh= 4.978E-06 alpha_mix =  0.700 |ddv_scf|^2 =  6.733E-11

      iter #   6 total cpu time :    90.2 secs   av.it.:  10.8
      thresh= 8.206E-07 alpha_mix =  0.700 |ddv_scf|^2 =  3.834E-12

      iter #   7 total cpu time :    90.8 secs   av.it.:  10.9
      thresh= 1.958E-07 alpha_mix =  0.700 |ddv_scf|^2 =  4.115E-12

      iter #   8 total cpu time :    91.3 secs   av.it.:   8.6
      thresh= 2.028E-07 alpha_mix =  0.700 |ddv_scf|^2 =  1.763E-13

      iter #   9 total cpu time :    91.9 secs   av.it.:  10.0
      thresh= 4.198E-08 alpha_mix =  0.700 |ddv_scf|^2 =  2.936E-13

      iter #  10 total cpu time :    92.4 secs   av.it.:   9.1
      thresh= 5.418E-08 alpha_mix =  0.700 |ddv_scf|^2 =  2.041E-15

      iter #  11 total cpu time :    93.0 secs   av.it.:  10.3
      thresh= 4.518E-09 alpha_mix =  0.700 |ddv_scf|^2 =  3.737E-16

      iter #  12 total cpu time :    93.6 secs   av.it.:  10.0
      thresh= 1.933E-09 alpha_mix =  0.700 |ddv_scf|^2 =  1.106E-17

     End of self-consistent calculation

     Convergence has been achieved 


     Representation #  3 modes #   3  4

     Self-consistent Calculation

      iter #   1 total cpu time :    94.4 secs   av.it.:   5.3
      thresh= 1.000E-02 alpha_mix =  0.700 |ddv_scf|^2 =  4.195E-08

      iter #   2 total cpu time :    95.7 secs   av.it.:  11.8
      thresh= 2.048E-05 alpha_mix =  0.700 |ddv_scf|^2 =  2.980E-09

      iter #   3 total cpu time :    97.5 secs   av.it.:  11.5
      thresh= 5.459E-06 alpha_mix =  0.700 |ddv_scf|^2 =  1.375E-10

      iter #   4 total cpu time :    99.4 secs   av.it.:  11.2
      thresh= 1.173E-06 alpha_mix =  0.700 |ddv_scf|^2 =  4.885E-13

      iter #   5 total cpu time :   100.6 secs   av.it.:  11.5
      thresh= 6.989E-08 alpha_mix =  0.700 |ddv_scf|^2 =  3.163E-14

      iter #   6 total cpu time :   101.7 secs   av.it.:  11.3
      thresh= 1.778E-08 alpha_mix =  0.700 |ddv_scf|^2 =  2.214E-16

      iter #   7 total cpu time :   103.6 secs   av.it.:  11.0
      thresh= 1.488E-09 alpha_mix =  0.700 |ddv_scf|^2 =  1.540E-17

     End of self-consistent calculation

     Convergence has been achieved 


     Representation #  4 modes #   5  6

     Self-consistent Calculation

      iter #   1 total cpu time :   104.5 secs   av.it.:   5.3
      thresh= 1.000E-02 alpha_mix =  0.700 |ddv_scf|^2 =  4.195E-08

      iter #   2 total cpu time :   105.7 secs   av.it.:  12.1
      thresh= 2.048E-05 alpha_mix =  0.700 |ddv_scf|^2 =  2.980E-09

      iter #   3 total cpu time :   106.9 secs   av.it.:  11.9
      thresh= 5.459E-06 alpha_mix =  0.700 |ddv_scf|^2 =  1.375E-10

      iter #   4 total cpu time :   108.1 secs   av.it.:  11.5
      thresh= 1.173E-06 alpha_mix =  0.700 |ddv_scf|^2 =  4.888E-13

      iter #   5 total cpu time :   109.3 secs   av.it.:  11.7
      thresh= 6.991E-08 alpha_mix =  0.700 |ddv_scf|^2 =  3.165E-14

      iter #   6 total cpu time :   111.9 secs   av.it.:  11.5
      thresh= 1.779E-08 alpha_mix =  0.700 |ddv_scf|^2 =  2.207E-16

      iter #   7 total cpu time :   114.0 secs   av.it.:  11.2
      thresh= 1.486E-09 alpha_mix =  0.700 |ddv_scf|^2 =  1.537E-17

     End of self-consistent calculation

     Convergence has been achieved 
 
     Number of q in the star =    8
     List of q in the star:
          1  -0.333333333   0.333333333  -0.333333333
          2   0.333333333   0.333333333   0.333333333
          3  -0.333333333  -0.333333333  -0.333333333
          4   0.333333333  -0.333333333   0.333333333
          5   0.333333333  -0.333333333  -0.333333333
          6   0.333333333   0.333333333  -0.333333333
          7  -0.333333333  -0.333333333   0.333333333
          8  -0.333333333   0.333333333   0.333333333

     Diagonalizing the dynamical matrix

     q = (   -0.333333333   0.333333333  -0.333333333 ) 

 **************************************************************************
     freq (    1) =       3.149907 [THz] =     105.069601 [cm-1]
     freq (    2) =       3.149907 [THz] =     105.069601 [cm-1]
     freq (    3) =       8.632592 [THz] =     287.952260 [cm-1]
     freq (    4) =      13.611746 [THz] =     454.038983 [cm-1]
     freq (    5) =      14.462539 [THz] =     482.418383 [cm-1]
     freq (    6) =      14.462539 [THz] =     482.418383 [cm-1]
 **************************************************************************

     Mode symmetry, C_3v (3m)   point group:

     freq (  1 -  2) =        105.1  [cm-1]   --> E    L_3           
     freq (  3 -  3) =        288.0  [cm-1]   --> A_1  L_1           
     freq (  4 -  4) =        454.0  [cm-1]   --> A_1  L_1           
     freq (  5 -  6) =        482.4  [cm-1]   --> E    L_3           

     Calculation of q =    0.5000000  -0.5000000   0.5000000
 
     Parallelization info
     --------------------
     sticks:   dense  smooth     PW     G-vecs:    dense   smooth      PW
     Min          54      27     10                 1071      373      90
     Max          56      28     11                 1073      384      94
     Sum         871     439    163                17153     6081    1459
 


     bravais-lattice index     =            2
     lattice parameter (alat)  =      10.3160  a.u.
     unit-cell volume          =     274.4568 (a.u.)^3
     number of atoms/cell      =            2
     number of atomic types    =            1
     number of electrons       =         8.00
     number of Kohn-Sham states=            4
     kinetic-energy cutoff     =      30.0000  Ry
     charge density cutoff     =     240.0000  Ry
     Exchange-correlation      = SLA  PW   PBE  PBE ( 1  4  3  4 0 0)

     celldm(1)=  10.316000  celldm(2)=   0.000000  celldm(3)=   0.000000
     celldm(4)=   0.000000  celldm(5)=   0.000000  celldm(6)=   0.000000

     crystal axes: (cart. coord. in units of alat)
               a(1) = (  -0.500000   0.000000   0.500000 )  
               a(2) = (   0.000000   0.500000   0.500000 )  
               a(3) = (  -0.500000   0.500000   0.000000 )  

     reciprocal axes: (cart. coord. in units 2 pi/alat)
               b(1) = ( -1.000000 -1.000000  1.000000 )  
               b(2) = (  1.000000  1.000000  1.000000 )  
               b(3) = ( -1.000000  1.000000 -1.000000 )  


     PseudoPot. # 1 for Si read from file:
     ./si_pbe_v1.uspp.F.UPF.txt
     MD5 check sum: a056efeee980c13900f22a371efd63c1
     Pseudo is Ultrasoft + core correction, Zval =  4.0
     Generated by new atomic code, or converted to UPF format
     Using radial grid of  899 points,  6 beta functions with: 
                l(1) =   0
                l(2) =   0
                l(3) =   1
                l(4) =   1
                l(5) =   2
                l(6) =   2
     Q(r) pseudized with  8 coefficients,  rinner =    0.900   0.900   0.900
                                                       0.900   0.900

     atomic species   valence    mass     pseudopotential
        Si             4.00    28.08600     Si( 1.00)

     48 Sym. Ops., with inversion, found



   Cartesian axes

     site n.     atom                  positions (alat units)
         1           Si  tau(   1) = (   0.0000000   0.0000000   0.0000000  )
         2           Si  tau(   2) = (   0.2500000   0.2500000   0.2500000  )

     number of k points=  1300

     Number of k-points >= 100: set verbosity='high' to print them.

     Dense  grid:    17153 G-vectors     FFT dimensions: (  36,  36,  36)

     Smooth grid:     6081 G-vectors     FFT dimensions: (  25,  25,  25)

     Largest allocated arrays     est. size (Mb)     dimensions
        Kohn-Sham Wavefunctions         0.00 Mb     (      58,    4)
        NL pseudopotentials             0.03 Mb     (      58,   36)
        Each V/rho on FFT grid          0.06 Mb     (    3888)
        Each G-vector array             0.01 Mb     (    1072)
        G-vector shells                 0.00 Mb     (     204)
     Largest temporary arrays     est. size (Mb)     dimensions
        Auxiliary wavefunctions         0.01 Mb     (      58,   16)
        Each subspace H/S matrix        0.00 Mb     (       8,    8)
        Each <psi_i|beta_j> matrix      0.00 Mb     (      36,    4)

     The potential is recalculated from file :
     ./silicon/_ph0/silicon.10.316.save/charge-density.dat

     Starting wfc are    8 atomic wfcs

     Band Structure Calculation
     Davidson diagonalization with overlap

     ethr =  1.25E-10,  avg # of iterations = 12.4

     total cpu time spent up to now is        8.7 secs

     End of band structure calculation

     Number of k-points >= 100: set verbosity='high' to print the bands.

     highest occupied level (ev):     5.9923

     Writing output data file silicon.10.316.save

                                                                                

     bravais-lattice index     =            2
     lattice parameter (alat)  =      10.3160  a.u.
     unit-cell volume          =     274.4568 (a.u.)^3
     number of atoms/cell      =            2
     number of atomic types    =            1
     kinetic-energy cut-off    =      30.0000  Ry
     charge density cut-off    =     240.0000  Ry
     convergence threshold     =      1.0E-16
     beta                      =       0.7000
     number of iterations used =            4
     Exchange-correlation      = SLA  PW   PBE  PBE ( 1  4  3  4 0 0)


     celldm(1)=   10.31600  celldm(2)=    0.00000  celldm(3)=    0.00000
     celldm(4)=    0.00000  celldm(5)=    0.00000  celldm(6)=    0.00000

     crystal axes: (cart. coord. in units of alat)
               a(1) = ( -0.5000  0.0000  0.5000 )  
               a(2) = (  0.0000  0.5000  0.5000 )  
               a(3) = ( -0.5000  0.5000  0.0000 )  

     reciprocal axes: (cart. coord. in units 2 pi/alat)
               b(1) = ( -1.0000 -1.0000  1.0000 )  
               b(2) = (  1.0000  1.0000  1.0000 )  
               b(3) = ( -1.0000  1.0000 -1.0000 )  


     Atoms inside the unit cell: 

     Cartesian axes

     site n.  atom      mass           positions (alat units)
        1     Si  28.0860   tau(    1) = (    0.00000    0.00000    0.00000  )
        2     Si  28.0860   tau(    2) = (    0.25000    0.25000    0.25000  )

     Computing dynamical matrix for 
                    q = (   0.5000000  -0.5000000   0.5000000 )
 
     13 Sym.Ops. (with q -> -q+G )


     G cutoff =  646.9551  (   1072 G-vectors)     FFT grid: ( 36, 36, 36)
     G cutoff =  323.4776  (    381 G-vectors)  smooth grid: ( 25, 25, 25)
     number of k points=  1300

     PseudoPot. # 1 for Si read from file:
     ./si_pbe_v1.uspp.F.UPF.txt
     MD5 check sum: a056efeee980c13900f22a371efd63c1
     Pseudo is Ultrasoft + core correction, Zval =  4.0
     Generated by new atomic code, or converted to UPF format
     Using radial grid of  899 points,  6 beta functions with: 
                l(1) =   0
                l(2) =   0
                l(3) =   1
                l(4) =   1
                l(5) =   2
                l(6) =   2
     Q(r) pseudized with  8 coefficients,  rinner =    0.900   0.900   0.900
                                                       0.900   0.900


     Atomic displacements:
     There are   4 irreducible representations

     Representation     1      1 modes -  To be done

     Representation     2      1 modes -  To be done

     Representation     3      2 modes -  To be done

     Representation     4      2 modes -  To be done



     Alpha used in Ewald sum =   2.5000
     PHONON       :  1m44.34s CPU     1m57.17s WALL



     Representation #  1 mode #   1

     Self-consistent Calculation

      iter #   1 total cpu time :   117.7 secs   av.it.:   5.1
      thresh= 1.000E-02 alpha_mix =  0.700 |ddv_scf|^2 =  2.364E-06

      iter #   2 total cpu time :   118.4 secs   av.it.:  10.7
      thresh= 1.538E-04 alpha_mix =  0.700 |ddv_scf|^2 =  2.163E-06

      iter #   3 total cpu time :   118.7 secs   av.it.:   9.8
      thresh= 1.471E-04 alpha_mix =  0.700 |ddv_scf|^2 =  1.311E-09

      iter #   4 total cpu time :   119.0 secs   av.it.:  10.0
      thresh= 3.621E-06 alpha_mix =  0.700 |ddv_scf|^2 =  1.321E-11

      iter #   5 total cpu time :   119.5 secs   av.it.:   9.8
      thresh= 3.635E-07 alpha_mix =  0.700 |ddv_scf|^2 =  1.692E-13

      iter #   6 total cpu time :   120.0 secs   av.it.:   9.9
      thresh= 4.113E-08 alpha_mix =  0.700 |ddv_scf|^2 =  2.438E-15

      iter #   7 total cpu time :   120.3 secs   av.it.:  10.0
      thresh= 4.938E-09 alpha_mix =  0.700 |ddv_scf|^2 =  4.510E-17

     End of self-consistent calculation

     Convergence has been achieved 


     Representation #  2 mode #   2

     Self-consistent Calculation

      iter #   1 total cpu time :   120.7 secs   av.it.:   6.0
      thresh= 1.000E-02 alpha_mix =  0.700 |ddv_scf|^2 =  3.360E-05

      iter #   2 total cpu time :   121.1 secs   av.it.:  10.6
      thresh= 5.796E-04 alpha_mix =  0.700 |ddv_scf|^2 =  1.044E-04

      iter #   3 total cpu time :   121.4 secs   av.it.:   9.2
      thresh= 1.022E-03 alpha_mix =  0.700 |ddv_scf|^2 =  7.419E-09

      iter #   4 total cpu time :   121.7 secs   av.it.:  10.6
      thresh= 8.613E-06 alpha_mix =  0.700 |ddv_scf|^2 =  3.763E-10

      iter #   5 total cpu time :   122.1 secs   av.it.:  10.8
      thresh= 1.940E-06 alpha_mix =  0.700 |ddv_scf|^2 =  1.138E-11

      iter #   6 total cpu time :   122.4 secs   av.it.:  10.5
      thresh= 3.374E-07 alpha_mix =  0.700 |ddv_scf|^2 =  8.577E-14

      iter #   7 total cpu time :   122.8 secs   av.it.:   9.9
      thresh= 2.929E-08 alpha_mix =  0.700 |ddv_scf|^2 =  9.522E-16

      iter #   8 total cpu time :   123.1 secs   av.it.:   9.7
      thresh= 3.086E-09 alpha_mix =  0.700 |ddv_scf|^2 =  3.731E-17

     End of self-consistent calculation

     Convergence has been achieved 


     Representation #  3 modes #   3  4

     Self-consistent Calculation

      iter #   1 total cpu time :   123.7 secs   av.it.:   5.1
      thresh= 1.000E-02 alpha_mix =  0.700 |ddv_scf|^2 =  1.518E-08

      iter #   2 total cpu time :   124.9 secs   av.it.:  11.6
      thresh= 1.232E-05 alpha_mix =  0.700 |ddv_scf|^2 =  8.965E-10

      iter #   3 total cpu time :   125.6 secs   av.it.:  11.2
      thresh= 2.994E-06 alpha_mix =  0.700 |ddv_scf|^2 =  3.012E-11

      iter #   4 total cpu time :   126.5 secs   av.it.:  11.2
      thresh= 5.488E-07 alpha_mix =  0.700 |ddv_scf|^2 =  2.448E-13

      iter #   5 total cpu time :   129.7 secs   av.it.:  11.1
      thresh= 4.948E-08 alpha_mix =  0.700 |ddv_scf|^2 =  2.699E-15

      iter #   6 total cpu time :   130.4 secs   av.it.:  11.2
      thresh= 5.195E-09 alpha_mix =  0.700 |ddv_scf|^2 =  2.772E-17

     End of self-consistent calculation

     Convergence has been achieved 


     Representation #  4 modes #   5  6

     Self-consistent Calculation

      iter #   1 total cpu time :   131.3 secs   av.it.:   5.2
      thresh= 1.000E-02 alpha_mix =  0.700 |ddv_scf|^2 =  7.753E-08

      iter #   2 total cpu time :   132.0 secs   av.it.:  11.8
      thresh= 2.784E-05 alpha_mix =  0.700 |ddv_scf|^2 =  6.214E-09

      iter #   3 total cpu time :   133.1 secs   av.it.:  11.5
      thresh= 7.883E-06 alpha_mix =  0.700 |ddv_scf|^2 =  1.638E-10

      iter #   4 total cpu time :   136.5 secs   av.it.:  10.4
      thresh= 1.280E-06 alpha_mix =  0.700 |ddv_scf|^2 =  2.967E-13

      iter #   5 total cpu time :   137.2 secs   av.it.:  11.1
      thresh= 5.447E-08 alpha_mix =  0.700 |ddv_scf|^2 =  2.682E-15

      iter #   6 total cpu time :   144.9 secs   av.it.:  11.2
      thresh= 5.179E-09 alpha_mix =  0.700 |ddv_scf|^2 =  7.215E-17

     End of self-consistent calculation

     Convergence has been achieved 
 
     Number of q in the star =    4
     List of q in the star:
          1   0.500000000  -0.500000000   0.500000000
          2   0.500000000   0.500000000   0.500000000
          3  -0.500000000   0.500000000   0.500000000
          4   0.500000000   0.500000000  -0.500000000

     Diagonalizing the dynamical matrix

     q = (    0.500000000  -0.500000000   0.500000000 ) 

 **************************************************************************
     freq (    1) =       3.313614 [THz] =     110.530274 [cm-1]
     freq (    2) =       3.313614 [THz] =     110.530274 [cm-1]
     freq (    3) =      11.118178 [THz] =     370.862496 [cm-1]
     freq (    4) =      12.068665 [THz] =     402.567321 [cm-1]
     freq (    5) =      14.390589 [THz] =     480.018370 [cm-1]
     freq (    6) =      14.390589 [THz] =     480.018370 [cm-1]
 **************************************************************************

     Calculation of q =    0.0000000   0.3333333   0.0000000
 
     Parallelization info
     --------------------
     sticks:   dense  smooth     PW     G-vecs:    dense   smooth      PW
     Min          54      27     10                 1071      372      84
     Max          56      28     11                 1073      384      86
     Sum         871     439    163                17153     6081    1363
 


     bravais-lattice index     =            2
     lattice parameter (alat)  =      10.3160  a.u.
     unit-cell volume          =     274.4568 (a.u.)^3
     number of atoms/cell      =            2
     number of atomic types    =            1
     number of electrons       =         8.00
     number of Kohn-Sham states=            4
     kinetic-energy cutoff     =      30.0000  Ry
     charge density cutoff     =     240.0000  Ry
     Exchange-correlation      = SLA  PW   PBE  PBE ( 1  4  3  4 0 0)

     celldm(1)=  10.316000  celldm(2)=   0.000000  celldm(3)=   0.000000
     celldm(4)=   0.000000  celldm(5)=   0.000000  celldm(6)=   0.000000

     crystal axes: (cart. coord. in units of alat)
               a(1) = (  -0.500000   0.000000   0.500000 )  
               a(2) = (   0.000000   0.500000   0.500000 )  
               a(3) = (  -0.500000   0.500000   0.000000 )  

     reciprocal axes: (cart. coord. in units 2 pi/alat)
               b(1) = ( -1.000000 -1.000000  1.000000 )  
               b(2) = (  1.000000  1.000000  1.000000 )  
               b(3) = ( -1.000000  1.000000 -1.000000 )  


     PseudoPot. # 1 for Si read from file:
     ./si_pbe_v1.uspp.F.UPF.txt
     MD5 check sum: a056efeee980c13900f22a371efd63c1
     Pseudo is Ultrasoft + core correction, Zval =  4.0
     Generated by new atomic code, or converted to UPF format
     Using radial grid of  899 points,  6 beta functions with: 
                l(1) =   0
                l(2) =   0
                l(3) =   1
                l(4) =   1
                l(5) =   2
                l(6) =   2
     Q(r) pseudized with  8 coefficients,  rinner =    0.900   0.900   0.900
                                                       0.900   0.900

     atomic species   valence    mass     pseudopotential
        Si             4.00    28.08600     Si( 1.00)

     48 Sym. Ops., with inversion, found



   Cartesian axes

     site n.     atom                  positions (alat units)
         1           Si  tau(   1) = (   0.0000000   0.0000000   0.0000000  )
         2           Si  tau(   2) = (   0.2500000   0.2500000   0.2500000  )

     number of k points=  1872

     Number of k-points >= 100: set verbosity='high' to print them.

     Dense  grid:    17153 G-vectors     FFT dimensions: (  36,  36,  36)

     Smooth grid:     6081 G-vectors     FFT dimensions: (  25,  25,  25)

     Largest allocated arrays     est. size (Mb)     dimensions
        Kohn-Sham Wavefunctions         0.00 Mb     (      54,    4)
        NL pseudopotentials             0.03 Mb     (      54,   36)
        Each V/rho on FFT grid          0.06 Mb     (    3888)
        Each G-vector array             0.01 Mb     (    1072)
        G-vector shells                 0.00 Mb     (     206)
     Largest temporary arrays     est. size (Mb)     dimensions
        Auxiliary wavefunctions         0.01 Mb     (      54,   16)
        Each subspace H/S matrix        0.00 Mb     (       8,    8)
        Each <psi_i|beta_j> matrix      0.00 Mb     (      36,    4)

     The potential is recalculated from file :
     ./silicon/_ph0/silicon.10.316.save/charge-density.dat

     Starting wfc are    8 atomic wfcs

     Band Structure Calculation
     Davidson diagonalization with overlap

     ethr =  1.25E-10,  avg # of iterations = 12.3

     total cpu time spent up to now is       10.9 secs

     End of band structure calculation

     Number of k-points >= 100: set verbosity='high' to print the bands.

     highest occupied level (ev):     5.9923

     Writing output data file silicon.10.316.save

                                                                                

     bravais-lattice index     =            2
     lattice parameter (alat)  =      10.3160  a.u.
     unit-cell volume          =     274.4568 (a.u.)^3
     number of atoms/cell      =            2
     number of atomic types    =            1
     kinetic-energy cut-off    =      30.0000  Ry
     charge density cut-off    =     240.0000  Ry
     convergence threshold     =      1.0E-16
     beta                      =       0.7000
     number of iterations used =            4
     Exchange-correlation      = SLA  PW   PBE  PBE ( 1  4  3  4 0 0)


     celldm(1)=   10.31600  celldm(2)=    0.00000  celldm(3)=    0.00000
     celldm(4)=    0.00000  celldm(5)=    0.00000  celldm(6)=    0.00000

     crystal axes: (cart. coord. in units of alat)
               a(1) = ( -0.5000  0.0000  0.5000 )  
               a(2) = (  0.0000  0.5000  0.5000 )  
               a(3) = ( -0.5000  0.5000  0.0000 )  

     reciprocal axes: (cart. coord. in units 2 pi/alat)
               b(1) = ( -1.0000 -1.0000  1.0000 )  
               b(2) = (  1.0000  1.0000  1.0000 )  
               b(3) = ( -1.0000  1.0000 -1.0000 )  


     Atoms inside the unit cell: 

     Cartesian axes

     site n.  atom      mass           positions (alat units)
        1     Si  28.0860   tau(    1) = (    0.00000    0.00000    0.00000  )
        2     Si  28.0860   tau(    2) = (    0.25000    0.25000    0.25000  )

     Computing dynamical matrix for 
                    q = (   0.0000000   0.3333333   0.0000000 )
 
      8 Sym.Ops. (no q -> -q+G )


     G cutoff =  646.9551  (   1072 G-vectors)     FFT grid: ( 36, 36, 36)
     G cutoff =  323.4776  (    378 G-vectors)  smooth grid: ( 25, 25, 25)
     number of k points=  1872

     PseudoPot. # 1 for Si read from file:
     ./si_pbe_v1.uspp.F.UPF.txt
     MD5 check sum: a056efeee980c13900f22a371efd63c1
     Pseudo is Ultrasoft + core correction, Zval =  4.0
     Generated by new atomic code, or converted to UPF format
     Using radial grid of  899 points,  6 beta functions with: 
                l(1) =   0
                l(2) =   0
                l(3) =   1
                l(4) =   1
                l(5) =   2
                l(6) =   2
     Q(r) pseudized with  8 coefficients,  rinner =    0.900   0.900   0.900
                                                       0.900   0.900

     Mode symmetry, C_4v (4mm)  point group:


     Atomic displacements:
     There are   4 irreducible representations

     Representation     1      1 modes -A_1  G_1 D_1  To be done

     Representation     2      1 modes -B_2  G_4 D_2'  To be done

     Representation     3      2 modes -E    G_5 D_5  To be done

     Representation     4      2 modes -E    G_5 D_5  To be done



     Alpha used in Ewald sum =   2.5000
     PHONON       :  2m13.84s CPU     2m29.79s WALL



     Representation #  1 mode #   1

     Self-consistent Calculation

      iter #   1 total cpu time :   150.2 secs   av.it.:   6.3
      thresh= 1.000E-02 alpha_mix =  0.700 |ddv_scf|^2 =  1.470E-03

      iter #   2 total cpu time :   151.7 secs   av.it.:   9.3
      thresh= 3.834E-03 alpha_mix =  0.700 |ddv_scf|^2 =  4.257E-02

      iter #   3 total cpu time :   152.1 secs   av.it.:   7.7
      thresh= 1.000E-02 alpha_mix =  0.700 |ddv_scf|^2 =  8.224E-08

      iter #   4 total cpu time :   152.5 secs   av.it.:   9.6
      thresh= 2.868E-05 alpha_mix =  0.700 |ddv_scf|^2 =  2.734E-09

      iter #   5 total cpu time :   152.9 secs   av.it.:   8.7
      thresh= 5.229E-06 alpha_mix =  0.700 |ddv_scf|^2 =  6.277E-10

      iter #   6 total cpu time :   153.3 secs   av.it.:   8.2
      thresh= 2.505E-06 alpha_mix =  0.700 |ddv_scf|^2 =  1.113E-13

      iter #   7 total cpu time :   153.7 secs   av.it.:   9.9
      thresh= 3.337E-08 alpha_mix =  0.700 |ddv_scf|^2 =  9.120E-14

      iter #   8 total cpu time :   154.1 secs   av.it.:   7.3
      thresh= 3.020E-08 alpha_mix =  0.700 |ddv_scf|^2 =  6.109E-17

     End of self-consistent calculation

     Convergence has been achieved 


     Representation #  2 mode #   2

     Self-consistent Calculation

      iter #   1 total cpu time :   154.6 secs   av.it.:   5.1
      thresh= 1.000E-02 alpha_mix =  0.700 |ddv_scf|^2 =  2.426E-07

      iter #   2 total cpu time :   155.0 secs   av.it.:  10.9
      thresh= 4.925E-05 alpha_mix =  0.700 |ddv_scf|^2 =  4.146E-08

      iter #   3 total cpu time :   155.5 secs   av.it.:  10.8
      thresh= 2.036E-05 alpha_mix =  0.700 |ddv_scf|^2 =  1.201E-09

      iter #   4 total cpu time :   155.9 secs   av.it.:  10.7
      thresh= 3.465E-06 alpha_mix =  0.700 |ddv_scf|^2 =  4.278E-11

      iter #   5 total cpu time :   156.4 secs   av.it.:  10.8
      thresh= 6.540E-07 alpha_mix =  0.700 |ddv_scf|^2 =  2.262E-13

      iter #   6 total cpu time :   156.8 secs   av.it.:  10.2
      thresh= 4.756E-08 alpha_mix =  0.700 |ddv_scf|^2 =  3.874E-15

      iter #   7 total cpu time :   157.3 secs   av.it.:   9.8
      thresh= 6.224E-09 alpha_mix =  0.700 |ddv_scf|^2 =  9.908E-17

     End of self-consistent calculation

     Convergence has been achieved 


     Representation #  3 modes #   3  4

     Self-consistent Calculation

      iter #   1 total cpu time :   158.6 secs   av.it.:   5.2
      thresh= 1.000E-02 alpha_mix =  0.700 |ddv_scf|^2 =  4.576E-08

      iter #   2 total cpu time :   159.5 secs   av.it.:  12.0
      thresh= 2.139E-05 alpha_mix =  0.700 |ddv_scf|^2 =  3.967E-09

      iter #   3 total cpu time :   160.3 secs   av.it.:  11.7
      thresh= 6.299E-06 alpha_mix =  0.700 |ddv_scf|^2 =  1.529E-10

      iter #   4 total cpu time :   161.1 secs   av.it.:  11.2
      thresh= 1.237E-06 alpha_mix =  0.700 |ddv_scf|^2 =  5.875E-13

      iter #   5 total cpu time :   161.9 secs   av.it.:  11.4
      thresh= 7.665E-08 alpha_mix =  0.700 |ddv_scf|^2 =  2.861E-14

      iter #   6 total cpu time :   163.1 secs   av.it.:  11.6
      thresh= 1.692E-08 alpha_mix =  0.700 |ddv_scf|^2 =  2.115E-16

      iter #   7 total cpu time :   164.8 secs   av.it.:  11.1
      thresh= 1.454E-09 alpha_mix =  0.700 |ddv_scf|^2 =  1.329E-17

     End of self-consistent calculation

     Convergence has been achieved 


     Representation #  4 modes #   5  6

     Self-consistent Calculation

      iter #   1 total cpu time :   167.9 secs   av.it.:   5.3
      thresh= 1.000E-02 alpha_mix =  0.700 |ddv_scf|^2 =  5.399E-08

      iter #   2 total cpu time :   175.6 secs   av.it.:  11.9
      thresh= 2.324E-05 alpha_mix =  0.700 |ddv_scf|^2 =  4.857E-09

      iter #   3 total cpu time :   177.4 secs   av.it.:  11.7
      thresh= 6.969E-06 alpha_mix =  0.700 |ddv_scf|^2 =  1.622E-10

      iter #   4 total cpu time :   178.4 secs   av.it.:  11.4
      thresh= 1.274E-06 alpha_mix =  0.700 |ddv_scf|^2 =  4.245E-13

      iter #   5 total cpu time :   179.3 secs   av.it.:  11.4
      thresh= 6.516E-08 alpha_mix =  0.700 |ddv_scf|^2 =  1.356E-14

      iter #   6 total cpu time :   181.7 secs   av.it.:  11.5
      thresh= 1.164E-08 alpha_mix =  0.700 |ddv_scf|^2 =  1.805E-16

      iter #   7 total cpu time :   184.5 secs   av.it.:  11.1
      thresh= 1.344E-09 alpha_mix =  0.700 |ddv_scf|^2 =  1.093E-17

     End of self-consistent calculation

     Convergence has been achieved 
 
     Number of q in the star =    6
     List of q in the star:
          1   0.000000000   0.333333333   0.000000000
          2   0.333333333   0.000000000   0.000000000
          3   0.000000000   0.000000000   0.333333333
          4   0.000000000  -0.333333333   0.000000000
          5  -0.333333333   0.000000000   0.000000000
          6   0.000000000   0.000000000  -0.333333333

     Diagonalizing the dynamical matrix

     q = (    0.000000000   0.333333333   0.000000000 ) 

 **************************************************************************
     freq (    1) =       2.968375 [THz] =      99.014316 [cm-1]
     freq (    2) =       2.968375 [THz] =      99.014316 [cm-1]
     freq (    3) =       4.880610 [THz] =     162.799612 [cm-1]
     freq (    4) =      14.389714 [THz] =     479.989193 [cm-1]
     freq (    5) =      14.389714 [THz] =     479.989193 [cm-1]
     freq (    6) =      14.892106 [THz] =     496.747171 [cm-1]
 **************************************************************************

     Mode symmetry, C_4v (4mm)  point group:

     freq (  1 -  2) =         99.0  [cm-1]   --> E    G_5 D_5       
     freq (  3 -  3) =        162.8  [cm-1]   --> A_1  G_1 D_1       
     freq (  4 -  5) =        480.0  [cm-1]   --> E    G_5 D_5       
     freq (  6 -  6) =        496.7  [cm-1]   --> B_2  G_4 D_2'      

     Calculation of q =   -0.1666667   0.5000000  -0.1666667
 
     Parallelization info
     --------------------
     sticks:   dense  smooth     PW     G-vecs:    dense   smooth      PW
     Min          54      27     10                 1071      377      87
     Max          56      28     11                 1073      384      90
     Sum         871     439    163                17153     6081    1411
 


     bravais-lattice index     =            2
     lattice parameter (alat)  =      10.3160  a.u.
     unit-cell volume          =     274.4568 (a.u.)^3
     number of atoms/cell      =            2
     number of atomic types    =            1
     number of electrons       =         8.00
     number of Kohn-Sham states=            4
     kinetic-energy cutoff     =      30.0000  Ry
     charge density cutoff     =     240.0000  Ry
     Exchange-correlation      = SLA  PW   PBE  PBE ( 1  4  3  4 0 0)

     celldm(1)=  10.316000  celldm(2)=   0.000000  celldm(3)=   0.000000
     celldm(4)=   0.000000  celldm(5)=   0.000000  celldm(6)=   0.000000

     crystal axes: (cart. coord. in units of alat)
               a(1) = (  -0.500000   0.000000   0.500000 )  
               a(2) = (   0.000000   0.500000   0.500000 )  
               a(3) = (  -0.500000   0.500000   0.000000 )  

     reciprocal axes: (cart. coord. in units 2 pi/alat)
               b(1) = ( -1.000000 -1.000000  1.000000 )  
               b(2) = (  1.000000  1.000000  1.000000 )  
               b(3) = ( -1.000000  1.000000 -1.000000 )  


     PseudoPot. # 1 for Si read from file:
     ./si_pbe_v1.uspp.F.UPF.txt
     MD5 check sum: a056efeee980c13900f22a371efd63c1
     Pseudo is Ultrasoft + core correction, Zval =  4.0
     Generated by new atomic code, or converted to UPF format
     Using radial grid of  899 points,  6 beta functions with: 
                l(1) =   0
                l(2) =   0
                l(3) =   1
                l(4) =   1
                l(5) =   2
                l(6) =   2
     Q(r) pseudized with  8 coefficients,  rinner =    0.900   0.900   0.900
                                                       0.900   0.900

     atomic species   valence    mass     pseudopotential
        Si             4.00    28.08600     Si( 1.00)

     48 Sym. Ops., with inversion, found



   Cartesian axes

     site n.     atom                  positions (alat units)
         1           Si  tau(   1) = (   0.0000000   0.0000000   0.0000000  )
         2           Si  tau(   2) = (   0.2500000   0.2500000   0.2500000  )

     number of k points=  7200

     Number of k-points >= 100: set verbosity='high' to print them.

     Dense  grid:    17153 G-vectors     FFT dimensions: (  36,  36,  36)

     Smooth grid:     6081 G-vectors     FFT dimensions: (  25,  25,  25)

     Largest allocated arrays     est. size (Mb)     dimensions
        Kohn-Sham Wavefunctions         0.00 Mb     (      53,    4)
        NL pseudopotentials             0.03 Mb     (      53,   36)
        Each V/rho on FFT grid          0.06 Mb     (    3888)
        Each G-vector array             0.01 Mb     (    1072)
        G-vector shells                 0.00 Mb     (     209)
     Largest temporary arrays     est. size (Mb)     dimensions
        Auxiliary wavefunctions         0.01 Mb     (      53,   16)
        Each subspace H/S matrix        0.00 Mb     (       8,    8)
        Each <psi_i|beta_j> matrix      0.00 Mb     (      36,    4)

     The potential is recalculated from file :
     ./silicon/_ph0/silicon.10.316.save/charge-density.dat

     Starting wfc are    8 atomic wfcs

     Band Structure Calculation
     Davidson diagonalization with overlap

     ethr =  1.25E-10,  avg # of iterations = 12.3

     total cpu time spent up to now is       17.8 secs

     End of band structure calculation

     Number of k-points >= 100: set verbosity='high' to print the bands.

     highest occupied level (ev):     5.9923

     Writing output data file silicon.10.316.save

                                                                                

     bravais-lattice index     =            2
     lattice parameter (alat)  =      10.3160  a.u.
     unit-cell volume          =     274.4568 (a.u.)^3
     number of atoms/cell      =            2
     number of atomic types    =            1
     kinetic-energy cut-off    =      30.0000  Ry
     charge density cut-off    =     240.0000  Ry
     convergence threshold     =      1.0E-16
     beta                      =       0.7000
     number of iterations used =            4
     Exchange-correlation      = SLA  PW   PBE  PBE ( 1  4  3  4 0 0)


     celldm(1)=   10.31600  celldm(2)=    0.00000  celldm(3)=    0.00000
     celldm(4)=    0.00000  celldm(5)=    0.00000  celldm(6)=    0.00000

     crystal axes: (cart. coord. in units of alat)
               a(1) = ( -0.5000  0.0000  0.5000 )  
               a(2) = (  0.0000  0.5000  0.5000 )  
               a(3) = ( -0.5000  0.5000  0.0000 )  

     reciprocal axes: (cart. coord. in units 2 pi/alat)
               b(1) = ( -1.0000 -1.0000  1.0000 )  
               b(2) = (  1.0000  1.0000  1.0000 )  
               b(3) = ( -1.0000  1.0000 -1.0000 )  


     Atoms inside the unit cell: 

     Cartesian axes

     site n.  atom      mass           positions (alat units)
        1     Si  28.0860   tau(    1) = (    0.00000    0.00000    0.00000  )
        2     Si  28.0860   tau(    2) = (    0.25000    0.25000    0.25000  )

     Computing dynamical matrix for 
                    q = (  -0.1666667   0.5000000  -0.1666667 )
 
      2 Sym.Ops. (no q -> -q+G )


     G cutoff =  646.9551  (   1072 G-vectors)     FFT grid: ( 36, 36, 36)
     G cutoff =  323.4776  (    384 G-vectors)  smooth grid: ( 25, 25, 25)
     number of k points=  7200

     PseudoPot. # 1 for Si read from file:
     ./si_pbe_v1.uspp.F.UPF.txt
     MD5 check sum: a056efeee980c13900f22a371efd63c1
     Pseudo is Ultrasoft + core correction, Zval =  4.0
     Generated by new atomic code, or converted to UPF format
     Using radial grid of  899 points,  6 beta functions with: 
                l(1) =   0
                l(2) =   0
                l(3) =   1
                l(4) =   1
                l(5) =   2
                l(6) =   2
     Q(r) pseudized with  8 coefficients,  rinner =    0.900   0.900   0.900
                                                       0.900   0.900

     Mode symmetry, C_s (m)     point group:


     Atomic displacements:
     There are   6 irreducible representations

     Representation     1      1 modes -A'  To be done

     Representation     2      1 modes -A'  To be done

     Representation     3      1 modes -A'  To be done

     Representation     4      1 modes -A'  To be done

     Representation     5      1 modes -A''  To be done

     Representation     6      1 modes -A''  To be done



     Alpha used in Ewald sum =   2.5000
     PHONON       :  2m49.73s CPU     3m17.74s WALL



     Representation #  1 mode #   1

     Self-consistent Calculation

      iter #   1 total cpu time :   198.8 secs   av.it.:   5.8
      thresh= 1.000E-02 alpha_mix =  0.700 |ddv_scf|^2 =  3.521E-05

      iter #   2 total cpu time :   200.7 secs   av.it.:  10.3
      thresh= 5.934E-04 alpha_mix =  0.700 |ddv_scf|^2 =  3.589E-04

      iter #   3 total cpu time :   202.4 secs   av.it.:   8.3
      thresh= 1.894E-03 alpha_mix =  0.700 |ddv_scf|^2 =  6.114E-08

      iter #   4 total cpu time :   204.6 secs   av.it.:  10.9
      thresh= 2.473E-05 alpha_mix =  0.700 |ddv_scf|^2 =  2.661E-09

      iter #   5 total cpu time :   206.2 secs   av.it.:  10.9
      thresh= 5.158E-06 alpha_mix =  0.700 |ddv_scf|^2 =  1.262E-10

      iter #   6 total cpu time :   207.9 secs   av.it.:  10.9
      thresh= 1.123E-06 alpha_mix =  0.700 |ddv_scf|^2 =  4.603E-12

      iter #   7 total cpu time :   210.0 secs   av.it.:  11.0
      thresh= 2.146E-07 alpha_mix =  0.700 |ddv_scf|^2 =  3.821E-13

      iter #   8 total cpu time :   211.6 secs   av.it.:  10.7
      thresh= 6.182E-08 alpha_mix =  0.700 |ddv_scf|^2 =  1.727E-12

      iter #   9 total cpu time :   213.3 secs   av.it.:   8.8
      thresh= 1.314E-07 alpha_mix =  0.700 |ddv_scf|^2 =  3.146E-14

      iter #  10 total cpu time :   214.8 secs   av.it.:  10.0
      thresh= 1.774E-08 alpha_mix =  0.700 |ddv_scf|^2 =  3.727E-14

      iter #  11 total cpu time :   216.5 secs   av.it.:   9.7
      thresh= 1.931E-08 alpha_mix =  0.700 |ddv_scf|^2 =  2.087E-16

      iter #  12 total cpu time :   218.1 secs   av.it.:  11.0
      thresh= 1.445E-09 alpha_mix =  0.700 |ddv_scf|^2 =  6.611E-17

     End of self-consistent calculation

     Convergence has been achieved 


     Representation #  2 mode #   2

     Self-consistent Calculation

      iter #   1 total cpu time :   219.4 secs   av.it.:   6.0
      thresh= 1.000E-02 alpha_mix =  0.700 |ddv_scf|^2 =  8.289E-05

      iter #   2 total cpu time :   221.0 secs   av.it.:  10.2
      thresh= 9.104E-04 alpha_mix =  0.700 |ddv_scf|^2 =  8.647E-04

      iter #   3 total cpu time :   222.3 secs   av.it.:   8.2
      thresh= 2.941E-03 alpha_mix =  0.700 |ddv_scf|^2 =  4.105E-08

      iter #   4 total cpu time :   224.0 secs   av.it.:  11.1
      thresh= 2.026E-05 alpha_mix =  0.700 |ddv_scf|^2 =  3.897E-09

      iter #   5 total cpu time :   225.5 secs   av.it.:  10.9
      thresh= 6.242E-06 alpha_mix =  0.700 |ddv_scf|^2 =  1.263E-10

      iter #   6 total cpu time :   227.1 secs   av.it.:  11.0
      thresh= 1.124E-06 alpha_mix =  0.700 |ddv_scf|^2 =  1.029E-11

      iter #   7 total cpu time :   229.3 secs   av.it.:  10.9
      thresh= 3.208E-07 alpha_mix =  0.700 |ddv_scf|^2 =  1.177E-13

      iter #   8 total cpu time :   241.5 secs   av.it.:  10.9
      thresh= 3.430E-08 alpha_mix =  0.700 |ddv_scf|^2 =  6.960E-13

      iter #   9 total cpu time :   242.9 secs   av.it.:   8.7
      thresh= 8.343E-08 alpha_mix =  0.700 |ddv_scf|^2 =  8.042E-15

      iter #  10 total cpu time :   244.4 secs   av.it.:  10.3
      thresh= 8.968E-09 alpha_mix =  0.700 |ddv_scf|^2 =  6.954E-15

      iter #  11 total cpu time :   245.9 secs   av.it.:   9.0
      thresh= 8.339E-09 alpha_mix =  0.700 |ddv_scf|^2 =  4.290E-16

      iter #  12 total cpu time :   248.2 secs   av.it.:  10.0
      thresh= 2.071E-09 alpha_mix =  0.700 |ddv_scf|^2 =  1.156E-17

     End of self-consistent calculation

     Convergence has been achieved 


     Representation #  3 mode #   3

     Self-consistent Calculation

      iter #   1 total cpu time :   249.5 secs   av.it.:   5.9
      thresh= 1.000E-02 alpha_mix =  0.700 |ddv_scf|^2 =  6.027E-05

      iter #   2 total cpu time :   251.0 secs   av.it.:  10.3
      thresh= 7.763E-04 alpha_mix =  0.700 |ddv_scf|^2 =  6.323E-04

      iter #   3 total cpu time :   252.3 secs   av.it.:   8.3
      thresh= 2.515E-03 alpha_mix =  0.700 |ddv_scf|^2 =  5.812E-08

      iter #   4 total cpu time :   254.4 secs   av.it.:  10.9
      thresh= 2.411E-05 alpha_mix =  0.700 |ddv_scf|^2 =  3.151E-09

      iter #   5 total cpu time :   256.1 secs   av.it.:  10.9
      thresh= 5.613E-06 alpha_mix =  0.700 |ddv_scf|^2 =  1.354E-10

      iter #   6 total cpu time :   257.7 secs   av.it.:  11.0
      thresh= 1.163E-06 alpha_mix =  0.700 |ddv_scf|^2 =  8.465E-12

      iter #   7 total cpu time :   259.3 secs   av.it.:  11.0
      thresh= 2.909E-07 alpha_mix =  0.700 |ddv_scf|^2 =  3.526E-13

      iter #   8 total cpu time :   260.8 secs   av.it.:  10.1
      thresh= 5.938E-08 alpha_mix =  0.700 |ddv_scf|^2 =  1.068E-12

      iter #   9 total cpu time :   262.3 secs   av.it.:   9.0
      thresh= 1.033E-07 alpha_mix =  0.700 |ddv_scf|^2 =  2.932E-14

      iter #  10 total cpu time :   272.0 secs   av.it.:   9.6
      thresh= 1.712E-08 alpha_mix =  0.700 |ddv_scf|^2 =  2.146E-14

      iter #  11 total cpu time :   273.6 secs   av.it.:   9.3
      thresh= 1.465E-08 alpha_mix =  0.700 |ddv_scf|^2 =  5.332E-17

     End of self-consistent calculation

     Convergence has been achieved 


     Representation #  4 mode #   4

     Self-consistent Calculation

      iter #   1 total cpu time :   275.1 secs   av.it.:   5.6
      thresh= 1.000E-02 alpha_mix =  0.700 |ddv_scf|^2 =  1.257E-05

      iter #   2 total cpu time :   276.9 secs   av.it.:  10.6
      thresh= 3.546E-04 alpha_mix =  0.700 |ddv_scf|^2 =  1.263E-04

      iter #   3 total cpu time :   278.2 secs   av.it.:   8.3
      thresh= 1.124E-03 alpha_mix =  0.700 |ddv_scf|^2 =  7.101E-08

      iter #   4 total cpu time :   283.3 secs   av.it.:  10.8
      thresh= 2.665E-05 alpha_mix =  0.700 |ddv_scf|^2 =  1.461E-09

      iter #   5 total cpu time :   285.0 secs   av.it.:  11.0
      thresh= 3.823E-06 alpha_mix =  0.700 |ddv_scf|^2 =  1.302E-10

      iter #   6 total cpu time :   286.6 secs   av.it.:  11.0
      thresh= 1.141E-06 alpha_mix =  0.700 |ddv_scf|^2 =  3.779E-12

      iter #   7 total cpu time :   288.2 secs   av.it.:  11.0
      thresh= 1.944E-07 alpha_mix =  0.700 |ddv_scf|^2 =  3.397E-12

      iter #   8 total cpu time :   289.6 secs   av.it.:   9.2
      thresh= 1.843E-07 alpha_mix =  0.700 |ddv_scf|^2 =  1.905E-12

      iter #   9 total cpu time :   291.0 secs   av.it.:   9.4
      thresh= 1.380E-07 alpha_mix =  0.700 |ddv_scf|^2 =  1.231E-12

      iter #  10 total cpu time :   292.4 secs   av.it.:   9.0
      thresh= 1.110E-07 alpha_mix =  0.700 |ddv_scf|^2 =  4.004E-15

      iter #  11 total cpu time :   294.4 secs   av.it.:  11.0
      thresh= 6.328E-09 alpha_mix =  0.700 |ddv_scf|^2 =  1.366E-15

      iter #  12 total cpu time :   295.9 secs   av.it.:  10.8
      thresh= 3.697E-09 alpha_mix =  0.700 |ddv_scf|^2 =  8.998E-17

     End of self-consistent calculation

     Convergence has been achieved 


     Representation #  5 mode #   5

     Self-consistent Calculation

      iter #   1 total cpu time :   297.1 secs   av.it.:   5.3
      thresh= 1.000E-02 alpha_mix =  0.700 |ddv_scf|^2 =  2.781E-07

      iter #   2 total cpu time :   298.7 secs   av.it.:  11.0
      thresh= 5.274E-05 alpha_mix =  0.700 |ddv_scf|^2 =  3.397E-08

      iter #   3 total cpu time :   300.4 secs   av.it.:  10.8
      thresh= 1.843E-05 alpha_mix =  0.700 |ddv_scf|^2 =  7.304E-10

      iter #   4 total cpu time :   302.0 secs   av.it.:  10.5
      thresh= 2.703E-06 alpha_mix =  0.700 |ddv_scf|^2 =  1.834E-12

      iter #   5 total cpu time :   303.5 secs   av.it.:  10.6
      thresh= 1.354E-07 alpha_mix =  0.700 |ddv_scf|^2 =  9.198E-14

      iter #   6 total cpu time :   305.7 secs   av.it.:  10.6
      thresh= 3.033E-08 alpha_mix =  0.700 |ddv_scf|^2 =  8.578E-16

      iter #   7 total cpu time :   307.6 secs   av.it.:  10.3
      thresh= 2.929E-09 alpha_mix =  0.700 |ddv_scf|^2 =  3.324E-17

     End of self-consistent calculation

     Convergence has been achieved 


     Representation #  6 mode #   6

     Self-consistent Calculation

      iter #   1 total cpu time :   308.8 secs   av.it.:   5.3
      thresh= 1.000E-02 alpha_mix =  0.700 |ddv_scf|^2 =  2.781E-07

      iter #   2 total cpu time :   310.4 secs   av.it.:  11.0
      thresh= 5.274E-05 alpha_mix =  0.700 |ddv_scf|^2 =  3.397E-08

      iter #   3 total cpu time :   312.1 secs   av.it.:  10.8
      thresh= 1.843E-05 alpha_mix =  0.700 |ddv_scf|^2 =  7.304E-10

      iter #   4 total cpu time :   313.8 secs   av.it.:  10.5
      thresh= 2.703E-06 alpha_mix =  0.700 |ddv_scf|^2 =  1.834E-12

      iter #   5 total cpu time :   315.4 secs   av.it.:  10.6
      thresh= 1.354E-07 alpha_mix =  0.700 |ddv_scf|^2 =  9.198E-14

      iter #   6 total cpu time :   317.0 secs   av.it.:  10.6
      thresh= 3.033E-08 alpha_mix =  0.700 |ddv_scf|^2 =  8.578E-16

      iter #   7 total cpu time :   318.6 secs   av.it.:  10.3
      thresh= 2.929E-09 alpha_mix =  0.700 |ddv_scf|^2 =  3.324E-17

     End of self-consistent calculation

     Convergence has been achieved 
 
     Number of q in the star =   24
     List of q in the star:
          1  -0.166666667   0.500000000  -0.166666667
          2   0.166666667   0.500000000   0.166666667
          3  -0.166666667   0.500000000   0.166666667
          4   0.166666667   0.500000000  -0.166666667
          5   0.500000000  -0.166666667   0.166666667
[...]

     End of self-consistent calculation

     Convergence has been achieved 
 
     Number of q in the star =   24
     List of q in the star:
          1   0.500000000  -0.166666667   0.833333333
          2   0.833333333   0.166666667   0.500000000
          3   0.500000000   0.166666667   0.833333333
          4  -0.833333333  -0.166666667   0.500000000
          5  -0.833333333  -0.166666667  -0.500000000
          6  -0.500000000  -0.166666667  -0.833333333
          7   0.833333333  -0.166666667   0.500000000
          8  -0.500000000  -0.166666667   0.833333333
          9  -0.833333333   0.166666667   0.500000000
         10   0.833333333   0.166666667  -0.500000000
         11   0.833333333  -0.166666667  -0.500000000
         12   0.500000000   0.166666667  -0.833333333
         13  -0.500000000   0.166666667   0.833333333
         14  -0.500000000   0.166666667  -0.833333333
         15  -0.833333333   0.166666667  -0.500000000
         16   0.833333333  -0.500000000   0.166666667
         17   0.833333333   0.500000000  -0.166666667
         18  -0.833333333  -0.500000000  -0.166666667
         19  -0.833333333   0.500000000   0.166666667
         20   0.166666667  -0.500000000   0.833333333
         21  -0.166666667   0.500000000   0.833333333
         22   0.166666667   0.500000000  -0.833333333
         23  -0.166666667  -0.500000000  -0.833333333
         24  -0.500000000   0.833333333   0.166666667

     Diagonalizing the dynamical matrix

     q = (    0.500000000  -0.166666667   0.833333333 ) 

 **************************************************************************
     freq (    1) =       5.129486 [THz] =     171.101239 [cm-1]
     freq (    2) =       6.134752 [THz] =     204.633309 [cm-1]
     freq (    3) =       9.708143 [THz] =     323.828798 [cm-1]
     freq (    4) =      11.219415 [THz] =     374.239405 [cm-1]
     freq (    5) =      13.705284 [THz] =     457.159059 [cm-1]
     freq (    6) =      13.929106 [THz] =     464.624978 [cm-1]
 **************************************************************************

     Calculation of q =   -0.3333333  -1.0000000   0.0000000
 
     Parallelization info
     --------------------
     sticks:   dense  smooth     PW     G-vecs:    dense   smooth      PW
     Min          54      27     11                 1071      377      99
     Max          56      28     13                 1073      383     101
     Sum         871     439    187                17153     6081    1591
 


     bravais-lattice index     =            2
     lattice parameter (alat)  =      10.3160  a.u.
     unit-cell volume          =     274.4568 (a.u.)^3
     number of atoms/cell      =            2
     number of atomic types    =            1
     number of electrons       =         8.00
     number of Kohn-Sham states=            4
     kinetic-energy cutoff     =      30.0000  Ry
     charge density cutoff     =     240.0000  Ry
     Exchange-correlation      = SLA  PW   PBE  PBE ( 1  4  3  4 0 0)

     celldm(1)=  10.316000  celldm(2)=   0.000000  celldm(3)=   0.000000
     celldm(4)=   0.000000  celldm(5)=   0.000000  celldm(6)=   0.000000

     crystal axes: (cart. coord. in units of alat)
               a(1) = (  -0.500000   0.000000   0.500000 )  
               a(2) = (   0.000000   0.500000   0.500000 )  
               a(3) = (  -0.500000   0.500000   0.000000 )  

     reciprocal axes: (cart. coord. in units 2 pi/alat)
               b(1) = ( -1.000000 -1.000000  1.000000 )  
               b(2) = (  1.000000  1.000000  1.000000 )  
               b(3) = ( -1.000000  1.000000 -1.000000 )  


     PseudoPot. # 1 for Si read from file:
     ./si_pbe_v1.uspp.F.UPF.txt
     MD5 check sum: a056efeee980c13900f22a371efd63c1
     Pseudo is Ultrasoft + core correction, Zval =  4.0
     Generated by new atomic code, or converted to UPF format
     Using radial grid of  899 points,  6 beta functions with: 
                l(1) =   0
                l(2) =   0
                l(3) =   1
                l(4) =   1
                l(5) =   2
                l(6) =   2
     Q(r) pseudized with  8 coefficients,  rinner =    0.900   0.900   0.900
                                                       0.900   0.900

     atomic species   valence    mass     pseudopotential
        Si             4.00    28.08600     Si( 1.00)

     48 Sym. Ops., with inversion, found



   Cartesian axes

     site n.     atom                  positions (alat units)
         1           Si  tau(   1) = (   0.0000000   0.0000000   0.0000000  )
         2           Si  tau(   2) = (   0.2500000   0.2500000   0.2500000  )

     number of k points=  3456

     Number of k-points >= 100: set verbosity='high' to print them.

     Dense  grid:    17153 G-vectors     FFT dimensions: (  36,  36,  36)

     Smooth grid:     6081 G-vectors     FFT dimensions: (  25,  25,  25)

     Largest allocated arrays     est. size (Mb)     dimensions
        Kohn-Sham Wavefunctions         0.00 Mb     (      57,    4)
        NL pseudopotentials             0.03 Mb     (      57,   36)
        Each V/rho on FFT grid          0.06 Mb     (    3888)
        Each G-vector array             0.01 Mb     (    1072)
        G-vector shells                 0.00 Mb     (     208)
     Largest temporary arrays     est. size (Mb)     dimensions
        Auxiliary wavefunctions         0.01 Mb     (      57,   16)
        Each subspace H/S matrix        0.00 Mb     (       8,    8)
        Each <psi_i|beta_j> matrix      0.00 Mb     (      36,    4)

     The potential is recalculated from file :
     ./silicon/_ph0/silicon.10.316.save/charge-density.dat

     Starting wfc are    8 atomic wfcs

     Band Structure Calculation
     Davidson diagonalization with overlap

     ethr =  1.25E-10,  avg # of iterations = 12.3

     total cpu time spent up to now is      106.7 secs

     End of band structure calculation

     Number of k-points >= 100: set verbosity='high' to print the bands.

     highest occupied level (ev):     5.9923

     Writing output data file silicon.10.316.save

                                                                                

     bravais-lattice index     =            2
     lattice parameter (alat)  =      10.3160  a.u.
     unit-cell volume          =     274.4568 (a.u.)^3
     number of atoms/cell      =            2
     number of atomic types    =            1
     kinetic-energy cut-off    =      30.0000  Ry
     charge density cut-off    =     240.0000  Ry
     convergence threshold     =      1.0E-16
     beta                      =       0.7000
     number of iterations used =            4
     Exchange-correlation      = SLA  PW   PBE  PBE ( 1  4  3  4 0 0)


     celldm(1)=   10.31600  celldm(2)=    0.00000  celldm(3)=    0.00000
     celldm(4)=    0.00000  celldm(5)=    0.00000  celldm(6)=    0.00000

     crystal axes: (cart. coord. in units of alat)
               a(1) = ( -0.5000  0.0000  0.5000 )  
               a(2) = (  0.0000  0.5000  0.5000 )  
               a(3) = ( -0.5000  0.5000  0.0000 )  

     reciprocal axes: (cart. coord. in units 2 pi/alat)
               b(1) = ( -1.0000 -1.0000  1.0000 )  
               b(2) = (  1.0000  1.0000  1.0000 )  
               b(3) = ( -1.0000  1.0000 -1.0000 )  


     Atoms inside the unit cell: 

     Cartesian axes

     site n.  atom      mass           positions (alat units)
        1     Si  28.0860   tau(    1) = (    0.00000    0.00000    0.00000  )
        2     Si  28.0860   tau(    2) = (    0.25000    0.25000    0.25000  )

     Computing dynamical matrix for 
                    q = (  -0.3333333  -1.0000000   0.0000000 )
 
      4 Sym.Ops. (no q -> -q+G )


     G cutoff =  646.9551  (   1072 G-vectors)     FFT grid: ( 36, 36, 36)
     G cutoff =  323.4776  (    381 G-vectors)  smooth grid: ( 25, 25, 25)
     number of k points=  3456

     PseudoPot. # 1 for Si read from file:
     ./si_pbe_v1.uspp.F.UPF.txt
     MD5 check sum: a056efeee980c13900f22a371efd63c1
     Pseudo is Ultrasoft + core correction, Zval =  4.0
     Generated by new atomic code, or converted to UPF format
     Using radial grid of  899 points,  6 beta functions with: 
                l(1) =   0
                l(2) =   0
                l(3) =   1
                l(4) =   1
                l(5) =   2
                l(6) =   2
     Q(r) pseudized with  8 coefficients,  rinner =    0.900   0.900   0.900
                                                       0.900   0.900


     Atomic displacements:
     There are   3 irreducible representations

     Representation     1      2 modes -  To be done

     Representation     2      2 modes -  To be done

     Representation     3      2 modes -  To be done



     Alpha used in Ewald sum =   2.5000
     PHONON       : 16m35.28s CPU    18m31.34s WALL



     Representation #  1 modes #   1  2

     Self-consistent Calculation

      iter #   1 total cpu time :  1113.2 secs   av.it.:   5.6
      thresh= 1.000E-02 alpha_mix =  0.700 |ddv_scf|^2 =  4.190E-07

      iter #   2 total cpu time :  1114.9 secs   av.it.:  12.0
      thresh= 6.473E-05 alpha_mix =  0.700 |ddv_scf|^2 =  2.237E-07

      iter #   3 total cpu time :  1116.4 secs   av.it.:  11.6
      thresh= 4.729E-05 alpha_mix =  0.700 |ddv_scf|^2 =  3.326E-09

      iter #   4 total cpu time :  1118.0 secs   av.it.:  11.5
      thresh= 5.767E-06 alpha_mix =  0.700 |ddv_scf|^2 =  4.195E-10

      iter #   5 total cpu time :  1119.6 secs   av.it.:  11.4
      thresh= 2.048E-06 alpha_mix =  0.700 |ddv_scf|^2 =  1.042E-12

      iter #   6 total cpu time :  1121.8 secs   av.it.:  11.8
      thresh= 1.021E-07 alpha_mix =  0.700 |ddv_scf|^2 =  3.666E-14

      iter #   7 total cpu time :  1123.4 secs   av.it.:  11.4
      thresh= 1.915E-08 alpha_mix =  0.700 |ddv_scf|^2 =  2.935E-15

      iter #   8 total cpu time :  1125.7 secs   av.it.:  11.5
      thresh= 5.418E-09 alpha_mix =  0.700 |ddv_scf|^2 =  2.907E-17

     End of self-consistent calculation

     Convergence has been achieved 


     Representation #  2 modes #   3  4

     Self-consistent Calculation

      iter #   1 total cpu time :  1128.2 secs   av.it.:   5.8
      thresh= 1.000E-02 alpha_mix =  0.700 |ddv_scf|^2 =  1.062E-06

      iter #   2 total cpu time :  1129.8 secs   av.it.:  11.9
      thresh= 1.031E-04 alpha_mix =  0.700 |ddv_scf|^2 =  1.311E-06

      iter #   3 total cpu time :  1131.4 secs   av.it.:  11.1
      thresh= 1.145E-04 alpha_mix =  0.700 |ddv_scf|^2 =  4.876E-09

      iter #   4 total cpu time :  1132.9 secs   av.it.:  11.6
      thresh= 6.983E-06 alpha_mix =  0.700 |ddv_scf|^2 =  2.068E-10

      iter #   5 total cpu time :  1135.3 secs   av.it.:  11.5
      thresh= 1.438E-06 alpha_mix =  0.700 |ddv_scf|^2 =  4.001E-13

      iter #   6 total cpu time :  1136.8 secs   av.it.:  11.3
      thresh= 6.325E-08 alpha_mix =  0.700 |ddv_scf|^2 =  2.140E-14

      iter #   7 total cpu time :  1138.4 secs   av.it.:  11.3
      thresh= 1.463E-08 alpha_mix =  0.700 |ddv_scf|^2 =  3.510E-16

      iter #   8 total cpu time :  1140.2 secs   av.it.:  11.9
      thresh= 1.873E-09 alpha_mix =  0.700 |ddv_scf|^2 =  1.250E-16

      iter #   9 total cpu time :  1141.8 secs   av.it.:  11.5
      thresh= 1.118E-09 alpha_mix =  0.700 |ddv_scf|^2 =  8.453E-18

     End of self-consistent calculation

     Convergence has been achieved 


     Representation #  3 modes #   5  6

     Self-consistent Calculation

      iter #   1 total cpu time :  1143.6 secs   av.it.:   5.3
      thresh= 1.000E-02 alpha_mix =  0.700 |ddv_scf|^2 =  3.797E-07

      iter #   2 total cpu time :  1146.3 secs   av.it.:  12.0
      thresh= 6.162E-05 alpha_mix =  0.700 |ddv_scf|^2 =  4.661E-07

      iter #   3 total cpu time :  1148.6 secs   av.it.:  11.2
      thresh= 6.827E-05 alpha_mix =  0.700 |ddv_scf|^2 =  2.289E-09

      iter #   4 total cpu time :  1150.3 secs   av.it.:  11.6
      thresh= 4.785E-06 alpha_mix =  0.700 |ddv_scf|^2 =  2.403E-10

      iter #   5 total cpu time :  1152.6 secs   av.it.:  11.6
      thresh= 1.550E-06 alpha_mix =  0.700 |ddv_scf|^2 =  1.855E-12

      iter #   6 total cpu time :  1154.9 secs   av.it.:  11.8
      thresh= 1.362E-07 alpha_mix =  0.700 |ddv_scf|^2 =  4.920E-14

      iter #   7 total cpu time :  1156.5 secs   av.it.:  11.5
      thresh= 2.218E-08 alpha_mix =  0.700 |ddv_scf|^2 =  2.875E-15

      iter #   8 total cpu time :  1158.1 secs   av.it.:  11.5
      thresh= 5.362E-09 alpha_mix =  0.700 |ddv_scf|^2 =  2.226E-17

     End of self-consistent calculation

     Convergence has been achieved 
 
     Number of q in the star =   12
     List of q in the star:
          1  -0.333333333  -1.000000000   0.000000000
          2   0.000000000  -1.000000000  -0.333333333
          3   0.000000000  -1.000000000   0.333333333
          4   0.333333333  -1.000000000   0.000000000
          5  -1.000000000   0.000000000  -0.333333333
          6   1.000000000   0.000000000   0.333333333
          7   0.000000000   0.333333333   1.000000000
          8   0.000000000  -0.333333333  -1.000000000
          9  -1.000000000  -0.333333333   0.000000000
         10   1.000000000   0.333333333   0.000000000
         11  -0.333333333   0.000000000   1.000000000
         12   0.333333333   0.000000000   1.000000000

     Diagonalizing the dynamical matrix

     q = (   -0.333333333  -1.000000000   0.000000000 ) 

 **************************************************************************
     freq (    1) =       5.598504 [THz] =     186.746003 [cm-1]
     freq (    2) =       5.598504 [THz] =     186.746003 [cm-1]
     freq (    3) =      10.794456 [THz] =     360.064293 [cm-1]
     freq (    4) =      10.794456 [THz] =     360.064293 [cm-1]
     freq (    5) =      13.650014 [THz] =     455.315449 [cm-1]
     freq (    6) =      13.650014 [THz] =     455.315449 [cm-1]
 **************************************************************************
 
     init_run     :      0.76s CPU      1.03s WALL (      15 calls)
     electrons    :     47.80s CPU     50.32s WALL (      15 calls)

     Called by init_run:
     wfcinit      :      0.00s CPU      0.21s WALL (      15 calls)
     potinit      :      0.13s CPU      0.17s WALL (      15 calls)

     Called by electrons:
     c_bands      :     47.79s CPU     50.31s WALL (      15 calls)
     v_of_rho     :      0.04s CPU      0.04s WALL (      16 calls)
     newd         :      0.06s CPU      0.07s WALL (      16 calls)

     Called by c_bands:
     init_us_2    :      1.94s CPU      2.01s WALL (   84913 calls)
     cegterg      :     17.62s CPU     18.22s WALL (    2692 calls)

     Called by sum_band:

     Called by *egterg:
     h_psi        :     13.57s CPU     14.02s WALL (   38976 calls)
     s_psi        :     21.52s CPU     23.58s WALL ( 1787557 calls)
     g_psi        :      0.08s CPU      0.08s WALL (   33592 calls)
     cdiaghg      :      2.84s CPU      2.98s WALL (   36284 calls)

     Called by h_psi:
     add_vuspsi   :     12.55s CPU     13.80s WALL (  875820 calls)

     General routines
     calbec       :     50.29s CPU     55.33s WALL ( 1924298 calls)
     fft          :      1.58s CPU      1.57s WALL (   15523 calls)
     ffts         :      1.55s CPU      1.58s WALL (   10514 calls)
     fftw         :    234.66s CPU    257.62s WALL ( 7829890 calls)
     interpolate  :      0.35s CPU      0.34s WALL (    1790 calls)
     davcio       :     14.52s CPU     18.07s WALL (  381930 calls)
 
     Parallel routines
     fft_scatter  :    135.28s CPU    149.29s WALL ( 7855927 calls)
 
     PHONON       : 17m17.80s CPU    19m18.35s WALL

     INITIALIZATION: 
     phq_setup    :      0.18s CPU      0.49s WALL (      16 calls)
     phq_init     :     23.24s CPU     23.96s WALL (      16 calls)
 
     phq_init     :     23.24s CPU     23.96s WALL (      16 calls)
     set_drhoc    :      0.59s CPU      0.61s WALL (      48 calls)
     init_vloc    :      0.02s CPU      0.02s WALL (      16 calls)
     init_us_1    :      0.43s CPU      0.44s WALL (      16 calls)
     newd         :      0.06s CPU      0.07s WALL (      16 calls)
     dvanqq       :      0.48s CPU      0.51s WALL (      16 calls)
     drho         :     19.52s CPU     19.78s WALL (      16 calls)
 
     DYNAMICAL MATRIX:
     dynmat0      :      2.07s CPU      2.23s WALL (      16 calls)
     phqscf       :    905.70s CPU    990.41s WALL (      16 calls)
     dynmatrix    :      4.71s CPU      5.02s WALL (      16 calls)
 
     phqscf       :    905.70s CPU    990.41s WALL (      16 calls)
     solve_linter :    903.18s CPU    985.21s WALL (      76 calls)
     drhodv       :      2.26s CPU      2.67s WALL (      76 calls)
 
     dynmat0      :      2.07s CPU      2.23s WALL (      16 calls)
     dynmat_us    :      1.59s CPU      1.64s WALL (      16 calls)
     d2ionq       :      0.02s CPU      0.01s WALL (      16 calls)
     dynmatcc     :      0.43s CPU      0.43s WALL (      16 calls)
 
     dynmat_us    :      1.59s CPU      1.64s WALL (      16 calls)
     addusdynmat  :      0.00s CPU      0.00s WALL (      16 calls)
 
     phqscf       :    905.70s CPU    990.41s WALL (      16 calls)
     solve_linter :    903.18s CPU    985.21s WALL (      76 calls)
 
     solve_linter :    903.18s CPU    985.21s WALL (      76 calls)
     dvqpsi_us    :      6.42s CPU      6.70s WALL (    8172 calls)
     ortho        :      5.66s CPU      5.86s WALL (   74869 calls)
     cgsolve      :    340.99s CPU    374.91s WALL (   74869 calls)
     incdrhoscf   :     26.37s CPU     28.33s WALL (   74869 calls)
     addusddens   :      3.49s CPU      3.59s WALL (     748 calls)
     vpsifft      :     17.48s CPU     18.89s WALL (   66553 calls)
     dv_of_drho   :      1.07s CPU      1.02s WALL (     833 calls)
     mix_pot      :      2.16s CPU     10.67s WALL (     679 calls)
     psymdvscf    :     10.41s CPU     10.50s WALL (     672 calls)
     newdq        :      3.52s CPU      3.60s WALL (     679 calls)
     adddvscf     :      1.46s CPU      1.50s WALL (   66697 calls)
     drhodvus     :      0.07s CPU      0.05s WALL (      76 calls)
 
     dvqpsi_us    :      6.42s CPU      6.70s WALL (    8172 calls)
     dvqpsi_us_on :      2.96s CPU      2.94s WALL (    8172 calls)
 
     cgsolve      :    340.99s CPU    374.91s WALL (   74869 calls)
     ch_psi       :    314.17s CPU    345.82s WALL (  836844 calls)
 
     ch_psi       :    314.17s CPU    345.82s WALL (  836844 calls)
     h_psiq       :    259.58s CPU    285.78s WALL (  836844 calls)
     last         :     51.78s CPU     56.96s WALL (  836844 calls)
 
     h_psiq       :    259.58s CPU    285.78s WALL (  836844 calls)
     firstfft     :    108.89s CPU    119.39s WALL ( 3140206 calls)
     secondfft    :     93.00s CPU    103.11s WALL ( 3140206 calls)
     add_vuspsi   :     12.55s CPU     13.80s WALL (  875820 calls)
 
     incdrhoscf   :     26.37s CPU     28.33s WALL (   74869 calls)
     addusdbec    :      3.28s CPU      3.44s WALL (   82993 calls)
 
     drhodvus     :      0.07s CPU      0.05s WALL (      76 calls)
 
      General routines
     calbec       :     50.29s CPU     55.33s WALL ( 1924298 calls)
     fft          :      1.58s CPU      1.57s WALL (   15523 calls)
     ffts         :      1.55s CPU      1.58s WALL (   10514 calls)
     fftw         :    234.66s CPU    257.62s WALL ( 7829890 calls)
     davcio       :     14.52s CPU     18.07s WALL (  381930 calls)
     write_rec    :      7.13s CPU     38.47s WALL (     755 calls)
 
 
     PHONON       : 17m17.80s CPU    19m18.35s WALL

 
   This run was terminated on:  13:57:34   7Apr2018            

=------------------------------------------------------------------------------=
   JOB DONE.
=------------------------------------------------------------------------------=
Application 30445895 resources: utime ~417719s, stime ~14730s, Rss ~33104, inblocks ~1036169857, outblocks ~475297382
