
     Program PHONON v.5.4.0 starts on  7Apr2018 at 13:17:13 

     This program is part of the open-source Quantum ESPRESSO suite
     for quantum simulation of materials; please cite
         "P. Giannozzi et al., J. Phys.:Condens. Matter 21 395502 (2009);
          URL http://www.quantum-espresso.org", 
     in publications or presentations arising from this work. More details at
     http://www.quantum-espresso.org/quote

     Parallel version (MPI & OpenMP), running on     384 processor cores
     Number of MPI processes:               384
     Threads/MPI process:                     1
     K-points division:     npool     =      24
     R & G space division:  proc/nbgrp/npool/nimage =      16

     Reading data from directory:
     ./silicon/silicon.10.304.save

   Info: using nr1, nr2, nr3 values from input

   Info: using nr1, nr2, nr3 values from input

     IMPORTANT: XC functional enforced from input :
     Exchange-correlation      = SLA  PW   PBE  PBE ( 1  4  3  4 0 0)
     Any further DFT definition will be discarded
     Please, verify this is what you really want

 
     Parallelization info
     --------------------
     sticks:   dense  smooth     PW     G-vecs:    dense   smooth      PW
     Min          54      27      9                 1071      367      76
     Max          56      28     10                 1073      377      79
     Sum         871     433    151                17153     5985    1243
 


     Dynamical matrices for ( 6, 6, 6)  uniform grid of q-points
     (  16q-points):
       N         xq(1)         xq(2)         xq(3) 
       1   0.000000000   0.000000000   0.000000000
       2  -0.166666667   0.166666667  -0.166666667
       3  -0.333333333   0.333333333  -0.333333333
       4   0.500000000  -0.500000000   0.500000000
       5   0.000000000   0.333333333   0.000000000
       6  -0.166666667   0.500000000  -0.166666667
       7   0.666666667  -0.333333333   0.666666667
       8   0.500000000  -0.166666667   0.500000000
       9   0.333333333   0.000000000   0.333333333
      10   0.000000000   0.666666667   0.000000000
      11   0.833333333  -0.166666667   0.833333333
      12   0.666666667  -0.000000000   0.666666667
      13   0.000000000  -1.000000000   0.000000000
      14   0.666666667  -0.333333333   1.000000000
      15   0.500000000  -0.166666667   0.833333333
      16  -0.333333333  -1.000000000   0.000000000

     Calculation of q =    0.0000000   0.0000000   0.0000000

                                                                                

     bravais-lattice index     =            2
     lattice parameter (alat)  =      10.3040  a.u.
     unit-cell volume          =     273.5001 (a.u.)^3
     number of atoms/cell      =            2
     number of atomic types    =            1
     kinetic-energy cut-off    =      30.0000  Ry
     charge density cut-off    =     240.0000  Ry
     convergence threshold     =      1.0E-16
     beta                      =       0.7000
     number of iterations used =            4
     Exchange-correlation      = SLA  PW   PBE  PBE ( 1  4  3  4 0 0)


     celldm(1)=   10.30400  celldm(2)=    0.00000  celldm(3)=    0.00000
     celldm(4)=    0.00000  celldm(5)=    0.00000  celldm(6)=    0.00000

     crystal axes: (cart. coord. in units of alat)
               a(1) = ( -0.5000  0.0000  0.5000 )  
               a(2) = (  0.0000  0.5000  0.5000 )  
               a(3) = ( -0.5000  0.5000  0.0000 )  

     reciprocal axes: (cart. coord. in units 2 pi/alat)
               b(1) = ( -1.0000 -1.0000  1.0000 )  
               b(2) = (  1.0000  1.0000  1.0000 )  
               b(3) = ( -1.0000  1.0000 -1.0000 )  


     Atoms inside the unit cell: 

     Cartesian axes

     site n.  atom      mass           positions (alat units)
        1     Si  28.0860   tau(    1) = (    0.00000    0.00000    0.00000  )
        2     Si  28.0860   tau(    2) = (    0.25000    0.25000    0.25000  )

     Computing dynamical matrix for 
                    q = (   0.0000000   0.0000000   0.0000000 )
 
     49 Sym.Ops. (with q -> -q+G )


     G cutoff =  645.4509  (   1072 G-vectors)     FFT grid: ( 36, 36, 36)
     G cutoff =  322.7254  (    373 G-vectors)  smooth grid: ( 25, 25, 25)
     number of k points=   182

     PseudoPot. # 1 for Si read from file:
     ./si_pbe_v1.uspp.F.UPF.txt
     MD5 check sum: a056efeee980c13900f22a371efd63c1
     Pseudo is Ultrasoft + core correction, Zval =  4.0
     Generated by new atomic code, or converted to UPF format
     Using radial grid of  899 points,  6 beta functions with: 
                l(1) =   0
                l(2) =   0
                l(3) =   1
                l(4) =   1
                l(5) =   2
                l(6) =   2
     Q(r) pseudized with  8 coefficients,  rinner =    0.900   0.900   0.900
                                                       0.900   0.900

     Mode symmetry, O_h (m-3m)  point group:


     Electric field:
     Dielectric constant
     Born effective charges in two ways 


     Atomic displacements:
     There are   2 irreducible representations

     Representation     1      3 modes -T_2g G_25' G_5+  To be done

     Representation     2      3 modes -T_1u G_15  G_4-  To be done



     Alpha used in Ewald sum =   2.5000
     PHONON       :     1.85s CPU         3.10s WALL


     Electric Fields Calculation

      iter #   1 total cpu time :     4.1 secs   av.it.:   6.5
      thresh= 1.000E-02 alpha_mix =  0.700 |ddv_scf|^2 =  7.580E-08

      iter #   2 total cpu time :     5.1 secs   av.it.:  12.2
      thresh= 2.753E-05 alpha_mix =  0.700 |ddv_scf|^2 =  4.300E-09

      iter #   3 total cpu time :     5.6 secs   av.it.:  12.1
      thresh= 6.557E-06 alpha_mix =  0.700 |ddv_scf|^2 =  2.734E-10

      iter #   4 total cpu time :     6.1 secs   av.it.:  11.2
      thresh= 1.654E-06 alpha_mix =  0.700 |ddv_scf|^2 =  1.749E-12

      iter #   5 total cpu time :     6.5 secs   av.it.:  11.4
      thresh= 1.322E-07 alpha_mix =  0.700 |ddv_scf|^2 =  1.667E-15

      iter #   6 total cpu time :     8.4 secs   av.it.:  11.2
      thresh= 4.083E-09 alpha_mix =  0.700 |ddv_scf|^2 =  1.107E-16

      iter #   7 total cpu time :     8.9 secs   av.it.:  11.7
      thresh= 1.052E-09 alpha_mix =  0.700 |ddv_scf|^2 =  1.691E-19

     End of electric fields calculation

          Dielectric constant in cartesian axis 

          (      12.940280317       0.000000000      -0.000000000 )
          (       0.000000000      12.940280317       0.000000000 )
          (      -0.000000000       0.000000000      12.940280317 )

          Effective charges (d Force / dE) in cartesian axis

           atom      1   Si 
      Ex  (        0.01898        0.00000        0.00000 )
      Ey  (        0.00000        0.01898       -0.00000 )
      Ez  (        0.00000       -0.00000        0.01898 )
           atom      2   Si 
      Ex  (        0.01898       -0.00000       -0.00000 )
      Ey  (       -0.00000        0.01898       -0.00000 )
      Ez  (       -0.00000       -0.00000        0.01898 )


     Representation #  1 modes #   1  2  3

     Self-consistent Calculation

      iter #   1 total cpu time :     9.8 secs   av.it.:   5.1
      thresh= 1.000E-02 alpha_mix =  0.700 |ddv_scf|^2 =  1.323E-08

      iter #   2 total cpu time :    10.6 secs   av.it.:  12.0
      thresh= 1.150E-05 alpha_mix =  0.700 |ddv_scf|^2 =  5.435E-10

      iter #   3 total cpu time :    12.0 secs   av.it.:  11.8
      thresh= 2.331E-06 alpha_mix =  0.700 |ddv_scf|^2 =  3.693E-11

      iter #   4 total cpu time :    12.5 secs   av.it.:  10.9
      thresh= 6.077E-07 alpha_mix =  0.700 |ddv_scf|^2 =  9.077E-14

      iter #   5 total cpu time :    13.0 secs   av.it.:  11.8
      thresh= 3.013E-08 alpha_mix =  0.700 |ddv_scf|^2 =  7.761E-16

      iter #   6 total cpu time :    14.0 secs   av.it.:  11.7
      thresh= 2.786E-09 alpha_mix =  0.700 |ddv_scf|^2 =  1.275E-17

     End of self-consistent calculation

     Convergence has been achieved 


     Representation #  2 modes #   4  5  6

     Self-consistent Calculation

      iter #   1 total cpu time :    14.9 secs   av.it.:   5.2
      thresh= 1.000E-02 alpha_mix =  0.700 |ddv_scf|^2 =  1.046E-08

      iter #   2 total cpu time :    15.4 secs   av.it.:  12.0
      thresh= 1.023E-05 alpha_mix =  0.700 |ddv_scf|^2 =  6.168E-10

      iter #   3 total cpu time :    15.9 secs   av.it.:  11.7
      thresh= 2.484E-06 alpha_mix =  0.700 |ddv_scf|^2 =  3.816E-11

      iter #   4 total cpu time :    16.4 secs   av.it.:  11.7
      thresh= 6.177E-07 alpha_mix =  0.700 |ddv_scf|^2 =  1.473E-13

      iter #   5 total cpu time :    16.9 secs   av.it.:  11.5
      thresh= 3.838E-08 alpha_mix =  0.700 |ddv_scf|^2 =  3.728E-16

      iter #   6 total cpu time :    17.8 secs   av.it.:  12.0
      thresh= 1.931E-09 alpha_mix =  0.700 |ddv_scf|^2 =  3.072E-17

     End of self-consistent calculation

     Convergence has been achieved 
 
     Number of q in the star =    1
     List of q in the star:
          1   0.000000000   0.000000000   0.000000000

          Dielectric constant in cartesian axis 

          (      12.940280317       0.000000000      -0.000000000 )
          (       0.000000000      12.940280317       0.000000000 )
          (      -0.000000000       0.000000000      12.940280317 )

          Effective charges (d Force / dE) in cartesian axis

           atom      1   Si 
      Ex  (        0.01898        0.00000        0.00000 )
      Ey  (        0.00000        0.01898       -0.00000 )
      Ez  (        0.00000       -0.00000        0.01898 )
           atom      2   Si 
      Ex  (        0.01898       -0.00000       -0.00000 )
      Ey  (       -0.00000        0.01898       -0.00000 )
      Ez  (       -0.00000       -0.00000        0.01898 )

          Effective charges (d P / du) in cartesian axis 

           atom      1   Si 
      Px  (       -0.00054        0.00000       -0.00000 )
      Py  (        0.00000       -0.00054        0.00000 )
      Pz  (       -0.00000        0.00000       -0.00054 )
           atom      2   Si 
      Px  (       -0.00054        0.00000       -0.00000 )
      Py  (        0.00000       -0.00054        0.00000 )
      Pz  (       -0.00000        0.00000       -0.00054 )

     Diagonalizing the dynamical matrix

     q = (    0.000000000   0.000000000   0.000000000 ) 

 **************************************************************************
     freq (    1) =      -0.114023 [THz] =      -3.803382 [cm-1]
     freq (    2) =      -0.114023 [THz] =      -3.803382 [cm-1]
     freq (    3) =      -0.114023 [THz] =      -3.803382 [cm-1]
     freq (    4) =      15.208540 [THz] =     507.302292 [cm-1]
     freq (    5) =      15.208540 [THz] =     507.302292 [cm-1]
     freq (    6) =      15.208540 [THz] =     507.302292 [cm-1]
 **************************************************************************

     Mode symmetry, O_h (m-3m)  point group:

     freq (  1 -  3) =         -3.8  [cm-1]   --> T_1u G_15  G_4- I  
     freq (  4 -  6) =        507.3  [cm-1]   --> T_2g G_25' G_5+ R  

     Calculation of q =   -0.1666667   0.1666667  -0.1666667
 
     Parallelization info
     --------------------
     sticks:   dense  smooth     PW     G-vecs:    dense   smooth      PW
     Min          54      27     10                 1071      369      80
     Max          56      28     11                 1073      379      82
     Sum         871     433    163                17153     5985    1291
 


     bravais-lattice index     =            2
     lattice parameter (alat)  =      10.3040  a.u.
     unit-cell volume          =     273.5001 (a.u.)^3
     number of atoms/cell      =            2
     number of atomic types    =            1
     number of electrons       =         8.00
     number of Kohn-Sham states=            4
     kinetic-energy cutoff     =      30.0000  Ry
     charge density cutoff     =     240.0000  Ry
     Exchange-correlation      = SLA  PW   PBE  PBE ( 1  4  3  4 0 0)

     celldm(1)=  10.304000  celldm(2)=   0.000000  celldm(3)=   0.000000
     celldm(4)=   0.000000  celldm(5)=   0.000000  celldm(6)=   0.000000

     crystal axes: (cart. coord. in units of alat)
               a(1) = (  -0.500000   0.000000   0.500000 )  
               a(2) = (   0.000000   0.500000   0.500000 )  
               a(3) = (  -0.500000   0.500000   0.000000 )  

     reciprocal axes: (cart. coord. in units 2 pi/alat)
               b(1) = ( -1.000000 -1.000000  1.000000 )  
               b(2) = (  1.000000  1.000000  1.000000 )  
               b(3) = ( -1.000000  1.000000 -1.000000 )  


     PseudoPot. # 1 for Si read from file:
     ./si_pbe_v1.uspp.F.UPF.txt
     MD5 check sum: a056efeee980c13900f22a371efd63c1
     Pseudo is Ultrasoft + core correction, Zval =  4.0
     Generated by new atomic code, or converted to UPF format
     Using radial grid of  899 points,  6 beta functions with: 
                l(1) =   0
                l(2) =   0
                l(3) =   1
                l(4) =   1
                l(5) =   2
                l(6) =   2
     Q(r) pseudized with  8 coefficients,  rinner =    0.900   0.900   0.900
                                                       0.900   0.900

     atomic species   valence    mass     pseudopotential
        Si             4.00    28.08600     Si( 1.00)

     48 Sym. Ops., with inversion, found



   Cartesian axes

     site n.     atom                  positions (alat units)
         1           Si  tau(   1) = (   0.0000000   0.0000000   0.0000000  )
         2           Si  tau(   2) = (   0.2500000   0.2500000   0.2500000  )

     number of k points=  2600

     Number of k-points >= 100: set verbosity='high' to print them.

     Dense  grid:    17153 G-vectors     FFT dimensions: (  36,  36,  36)

     Smooth grid:     5985 G-vectors     FFT dimensions: (  25,  25,  25)

     Largest allocated arrays     est. size (Mb)     dimensions
        Kohn-Sham Wavefunctions         0.00 Mb     (      53,    4)
        NL pseudopotentials             0.03 Mb     (      53,   36)
        Each V/rho on FFT grid          0.06 Mb     (    3888)
        Each G-vector array             0.01 Mb     (    1072)
        G-vector shells                 0.00 Mb     (     205)
     Largest temporary arrays     est. size (Mb)     dimensions
        Auxiliary wavefunctions         0.01 Mb     (      53,   16)
        Each subspace H/S matrix        0.00 Mb     (       8,    8)
        Each <psi_i|beta_j> matrix      0.00 Mb     (      36,    4)

     The potential is recalculated from file :
     ./silicon/_ph0/silicon.10.304.save/charge-density.dat

     Starting wfc are    8 atomic wfcs

     Band Structure Calculation
     Davidson diagonalization with overlap

     ethr =  1.25E-10,  avg # of iterations = 12.4

     total cpu time spent up to now is        1.5 secs

     End of band structure calculation

     Number of k-points >= 100: set verbosity='high' to print the bands.

     highest occupied level (ev):     6.0282

     Writing output data file silicon.10.304.save

                                                                                

     bravais-lattice index     =            2
     lattice parameter (alat)  =      10.3040  a.u.
     unit-cell volume          =     273.5001 (a.u.)^3
     number of atoms/cell      =            2
     number of atomic types    =            1
     kinetic-energy cut-off    =      30.0000  Ry
     charge density cut-off    =     240.0000  Ry
     convergence threshold     =      1.0E-16
     beta                      =       0.7000
     number of iterations used =            4
     Exchange-correlation      = SLA  PW   PBE  PBE ( 1  4  3  4 0 0)


     celldm(1)=   10.30400  celldm(2)=    0.00000  celldm(3)=    0.00000
     celldm(4)=    0.00000  celldm(5)=    0.00000  celldm(6)=    0.00000

     crystal axes: (cart. coord. in units of alat)
               a(1) = ( -0.5000  0.0000  0.5000 )  
               a(2) = (  0.0000  0.5000  0.5000 )  
               a(3) = ( -0.5000  0.5000  0.0000 )  

     reciprocal axes: (cart. coord. in units 2 pi/alat)
               b(1) = ( -1.0000 -1.0000  1.0000 )  
               b(2) = (  1.0000  1.0000  1.0000 )  
               b(3) = ( -1.0000  1.0000 -1.0000 )  


     Atoms inside the unit cell: 

     Cartesian axes

     site n.  atom      mass           positions (alat units)
        1     Si  28.0860   tau(    1) = (    0.00000    0.00000    0.00000  )
        2     Si  28.0860   tau(    2) = (    0.25000    0.25000    0.25000  )

     Computing dynamical matrix for 
                    q = (  -0.1666667   0.1666667  -0.1666667 )
 
      6 Sym.Ops. (no q -> -q+G )


     G cutoff =  645.4509  (   1072 G-vectors)     FFT grid: ( 36, 36, 36)
     G cutoff =  322.7254  (    374 G-vectors)  smooth grid: ( 25, 25, 25)
     number of k points=  2600

     PseudoPot. # 1 for Si read from file:
     ./si_pbe_v1.uspp.F.UPF.txt
     MD5 check sum: a056efeee980c13900f22a371efd63c1
     Pseudo is Ultrasoft + core correction, Zval =  4.0
     Generated by new atomic code, or converted to UPF format
     Using radial grid of  899 points,  6 beta functions with: 
                l(1) =   0
                l(2) =   0
                l(3) =   1
                l(4) =   1
                l(5) =   2
                l(6) =   2
     Q(r) pseudized with  8 coefficients,  rinner =    0.900   0.900   0.900
                                                       0.900   0.900

     Mode symmetry, C_3v (3m)   point group:


     Atomic displacements:
     There are   4 irreducible representations

     Representation     1      1 modes -A_1  L_1  To be done

     Representation     2      1 modes -A_1  L_1  To be done

     Representation     3      2 modes -E    L_3  To be done

     Representation     4      2 modes -E    L_3  To be done



     Alpha used in Ewald sum =   2.5000
     PHONON       :    16.76s CPU        22.59s WALL



     Representation #  1 mode #   1

     Self-consistent Calculation

      iter #   1 total cpu time :    23.6 secs   av.it.:   6.1
      thresh= 1.000E-02 alpha_mix =  0.700 |ddv_scf|^2 =  1.095E-03

      iter #   2 total cpu time :    24.2 secs   av.it.:   9.1
      thresh= 3.308E-03 alpha_mix =  0.700 |ddv_scf|^2 =  3.389E-02

      iter #   3 total cpu time :    24.7 secs   av.it.:   7.2
      thresh= 1.000E-02 alpha_mix =  0.700 |ddv_scf|^2 =  3.408E-07

      iter #   4 total cpu time :    25.3 secs   av.it.:   9.8
      thresh= 5.838E-05 alpha_mix =  0.700 |ddv_scf|^2 =  6.224E-09

      iter #   5 total cpu time :    25.9 secs   av.it.:  10.4
      thresh= 7.889E-06 alpha_mix =  0.700 |ddv_scf|^2 =  9.511E-10

      iter #   6 total cpu time :    26.5 secs   av.it.:   9.5
      thresh= 3.084E-06 alpha_mix =  0.700 |ddv_scf|^2 =  1.131E-09

      iter #   7 total cpu time :    27.0 secs   av.it.:   7.0
      thresh= 3.363E-06 alpha_mix =  0.700 |ddv_scf|^2 =  5.962E-11

      iter #   8 total cpu time :    27.5 secs   av.it.:   9.0
      thresh= 7.721E-07 alpha_mix =  0.700 |ddv_scf|^2 =  1.160E-12

      iter #   9 total cpu time :    28.1 secs   av.it.:   8.2
      thresh= 1.077E-07 alpha_mix =  0.700 |ddv_scf|^2 =  4.203E-14

      iter #  10 total cpu time :    28.8 secs   av.it.:   9.0
      thresh= 2.050E-08 alpha_mix =  0.700 |ddv_scf|^2 =  9.928E-15

      iter #  11 total cpu time :    29.3 secs   av.it.:   9.2
      thresh= 9.964E-09 alpha_mix =  0.700 |ddv_scf|^2 =  4.612E-16

      iter #  12 total cpu time :    30.0 secs   av.it.:   9.7
      thresh= 2.148E-09 alpha_mix =  0.700 |ddv_scf|^2 =  1.273E-17

     End of self-consistent calculation

     Convergence has been achieved 


     Representation #  2 mode #   2

     Self-consistent Calculation

      iter #   1 total cpu time :    38.3 secs   av.it.:   6.1
      thresh= 1.000E-02 alpha_mix =  0.700 |ddv_scf|^2 =  1.095E-03

      iter #   2 total cpu time :    40.0 secs   av.it.:   9.1
      thresh= 3.308E-03 alpha_mix =  0.700 |ddv_scf|^2 =  3.389E-02

      iter #   3 total cpu time :    40.5 secs   av.it.:   7.2
      thresh= 1.000E-02 alpha_mix =  0.700 |ddv_scf|^2 =  3.408E-07

      iter #   4 total cpu time :    41.1 secs   av.it.:   9.8
      thresh= 5.838E-05 alpha_mix =  0.700 |ddv_scf|^2 =  6.224E-09

      iter #   5 total cpu time :    41.7 secs   av.it.:  10.4
      thresh= 7.889E-06 alpha_mix =  0.700 |ddv_scf|^2 =  9.511E-10

      iter #   6 total cpu time :    42.3 secs   av.it.:   9.5
      thresh= 3.084E-06 alpha_mix =  0.700 |ddv_scf|^2 =  1.131E-09

      iter #   7 total cpu time :    42.8 secs   av.it.:   7.0
      thresh= 3.363E-06 alpha_mix =  0.700 |ddv_scf|^2 =  5.962E-11

      iter #   8 total cpu time :    43.3 secs   av.it.:   9.0
      thresh= 7.721E-07 alpha_mix =  0.700 |ddv_scf|^2 =  1.160E-12

      iter #   9 total cpu time :    43.8 secs   av.it.:   8.2
      thresh= 1.077E-07 alpha_mix =  0.700 |ddv_scf|^2 =  4.203E-14

      iter #  10 total cpu time :    44.3 secs   av.it.:   9.0
      thresh= 2.050E-08 alpha_mix =  0.700 |ddv_scf|^2 =  9.928E-15

      iter #  11 total cpu time :    44.8 secs   av.it.:   9.2
      thresh= 9.964E-09 alpha_mix =  0.700 |ddv_scf|^2 =  4.612E-16

      iter #  12 total cpu time :    45.4 secs   av.it.:   9.7
      thresh= 2.148E-09 alpha_mix =  0.700 |ddv_scf|^2 =  1.273E-17

     End of self-consistent calculation

     Convergence has been achieved 


     Representation #  3 modes #   3  4

     Self-consistent Calculation

      iter #   1 total cpu time :    46.8 secs   av.it.:   5.3
      thresh= 1.000E-02 alpha_mix =  0.700 |ddv_scf|^2 =  3.219E-08

      iter #   2 total cpu time :    48.5 secs   av.it.:  11.8
      thresh= 1.794E-05 alpha_mix =  0.700 |ddv_scf|^2 =  1.821E-09

      iter #   3 total cpu time :    49.8 secs   av.it.:  11.5
      thresh= 4.268E-06 alpha_mix =  0.700 |ddv_scf|^2 =  1.106E-10

      iter #   4 total cpu time :    51.0 secs   av.it.:  11.2
      thresh= 1.052E-06 alpha_mix =  0.700 |ddv_scf|^2 =  4.710E-13

      iter #   5 total cpu time :    52.3 secs   av.it.:  11.6
      thresh= 6.863E-08 alpha_mix =  0.700 |ddv_scf|^2 =  3.095E-14

      iter #   6 total cpu time :    53.6 secs   av.it.:  11.4
      thresh= 1.759E-08 alpha_mix =  0.700 |ddv_scf|^2 =  1.779E-16

      iter #   7 total cpu time :    55.6 secs   av.it.:  10.9
      thresh= 1.334E-09 alpha_mix =  0.700 |ddv_scf|^2 =  1.494E-17

     End of self-consistent calculation

     Convergence has been achieved 


     Representation #  4 modes #   5  6

     Self-consistent Calculation

      iter #   1 total cpu time :    57.6 secs   av.it.:   5.3
      thresh= 1.000E-02 alpha_mix =  0.700 |ddv_scf|^2 =  3.220E-08

      iter #   2 total cpu time :    59.1 secs   av.it.:  12.0
      thresh= 1.794E-05 alpha_mix =  0.700 |ddv_scf|^2 =  1.822E-09

      iter #   3 total cpu time :    62.2 secs   av.it.:  11.9
      thresh= 4.269E-06 alpha_mix =  0.700 |ddv_scf|^2 =  1.106E-10

      iter #   4 total cpu time :    68.2 secs   av.it.:  11.5
      thresh= 1.052E-06 alpha_mix =  0.700 |ddv_scf|^2 =  4.708E-13

      iter #   5 total cpu time :    69.9 secs   av.it.:  11.8
      thresh= 6.862E-08 alpha_mix =  0.700 |ddv_scf|^2 =  3.093E-14

      iter #   6 total cpu time :    71.2 secs   av.it.:  11.7
      thresh= 1.759E-08 alpha_mix =  0.700 |ddv_scf|^2 =  1.774E-16

      iter #   7 total cpu time :    72.5 secs   av.it.:  11.1
      thresh= 1.332E-09 alpha_mix =  0.700 |ddv_scf|^2 =  1.490E-17

     End of self-consistent calculation

     Convergence has been achieved 
 
     Number of q in the star =    8
     List of q in the star:
          1  -0.166666667   0.166666667  -0.166666667
          2   0.166666667   0.166666667   0.166666667
          3  -0.166666667  -0.166666667  -0.166666667
          4   0.166666667  -0.166666667   0.166666667
          5   0.166666667  -0.166666667  -0.166666667
          6   0.166666667   0.166666667  -0.166666667
          7  -0.166666667  -0.166666667   0.166666667
          8  -0.166666667   0.166666667   0.166666667

     Diagonalizing the dynamical matrix

     q = (   -0.166666667   0.166666667  -0.166666667 ) 

 **************************************************************************
     freq (    1) =       2.221448 [THz] =      74.099543 [cm-1]
     freq (    2) =       2.221448 [THz] =      74.099543 [cm-1]
     freq (    3) =       4.694113 [THz] =     156.578753 [cm-1]
     freq (    4) =      14.823200 [THz] =     494.448730 [cm-1]
     freq (    5) =      14.849985 [THz] =     495.342194 [cm-1]
     freq (    6) =      14.849985 [THz] =     495.342194 [cm-1]
 **************************************************************************

     Mode symmetry, C_3v (3m)   point group:

     freq (  1 -  2) =         74.1  [cm-1]   --> E    L_3           
     freq (  3 -  3) =        156.6  [cm-1]   --> A_1  L_1           
     freq (  4 -  4) =        494.4  [cm-1]   --> A_1  L_1           
     freq (  5 -  6) =        495.3  [cm-1]   --> E    L_3           

     Calculation of q =   -0.3333333   0.3333333  -0.3333333
 
     Parallelization info
     --------------------
     sticks:   dense  smooth     PW     G-vecs:    dense   smooth      PW
     Min          54      27     10                 1071      371      87
     Max          56      28     11                 1073      377      90
     Sum         871     433    163                17153     5985    1411
 


     bravais-lattice index     =            2
     lattice parameter (alat)  =      10.3040  a.u.
     unit-cell volume          =     273.5001 (a.u.)^3
     number of atoms/cell      =            2
     number of atomic types    =            1
     number of electrons       =         8.00
     number of Kohn-Sham states=            4
     kinetic-energy cutoff     =      30.0000  Ry
     charge density cutoff     =     240.0000  Ry
     Exchange-correlation      = SLA  PW   PBE  PBE ( 1  4  3  4 0 0)

     celldm(1)=  10.304000  celldm(2)=   0.000000  celldm(3)=   0.000000
     celldm(4)=   0.000000  celldm(5)=   0.000000  celldm(6)=   0.000000

     crystal axes: (cart. coord. in units of alat)
               a(1) = (  -0.500000   0.000000   0.500000 )  
               a(2) = (   0.000000   0.500000   0.500000 )  
               a(3) = (  -0.500000   0.500000   0.000000 )  

     reciprocal axes: (cart. coord. in units 2 pi/alat)
               b(1) = ( -1.000000 -1.000000  1.000000 )  
               b(2) = (  1.000000  1.000000  1.000000 )  
               b(3) = ( -1.000000  1.000000 -1.000000 )  


     PseudoPot. # 1 for Si read from file:
     ./si_pbe_v1.uspp.F.UPF.txt
     MD5 check sum: a056efeee980c13900f22a371efd63c1
     Pseudo is Ultrasoft + core correction, Zval =  4.0
     Generated by new atomic code, or converted to UPF format
     Using radial grid of  899 points,  6 beta functions with: 
                l(1) =   0
                l(2) =   0
                l(3) =   1
                l(4) =   1
                l(5) =   2
                l(6) =   2
     Q(r) pseudized with  8 coefficients,  rinner =    0.900   0.900   0.900
                                                       0.900   0.900

     atomic species   valence    mass     pseudopotential
        Si             4.00    28.08600     Si( 1.00)

     48 Sym. Ops., with inversion, found



   Cartesian axes

     site n.     atom                  positions (alat units)
         1           Si  tau(   1) = (   0.0000000   0.0000000   0.0000000  )
         2           Si  tau(   2) = (   0.2500000   0.2500000   0.2500000  )

     number of k points=  2600

     Number of k-points >= 100: set verbosity='high' to print them.

     Dense  grid:    17153 G-vectors     FFT dimensions: (  36,  36,  36)

     Smooth grid:     5985 G-vectors     FFT dimensions: (  25,  25,  25)

     Largest allocated arrays     est. size (Mb)     dimensions
        Kohn-Sham Wavefunctions         0.00 Mb     (      52,    4)
        NL pseudopotentials             0.03 Mb     (      52,   36)
        Each V/rho on FFT grid          0.06 Mb     (    3888)
        Each G-vector array             0.01 Mb     (    1072)
        G-vector shells                 0.00 Mb     (     207)
     Largest temporary arrays     est. size (Mb)     dimensions
        Auxiliary wavefunctions         0.01 Mb     (      52,   16)
        Each subspace H/S matrix        0.00 Mb     (       8,    8)
        Each <psi_i|beta_j> matrix      0.00 Mb     (      36,    4)

     The potential is recalculated from file :
     ./silicon/_ph0/silicon.10.304.save/charge-density.dat

     Starting wfc are    8 atomic wfcs

     Band Structure Calculation
     Davidson diagonalization with overlap

     ethr =  1.25E-10,  avg # of iterations = 12.4

     total cpu time spent up to now is        5.2 secs

     End of band structure calculation

     Number of k-points >= 100: set verbosity='high' to print the bands.

     highest occupied level (ev):     6.0282

     Writing output data file silicon.10.304.save

                                                                                

     bravais-lattice index     =            2
     lattice parameter (alat)  =      10.3040  a.u.
     unit-cell volume          =     273.5001 (a.u.)^3
     number of atoms/cell      =            2
     number of atomic types    =            1
     kinetic-energy cut-off    =      30.0000  Ry
     charge density cut-off    =     240.0000  Ry
     convergence threshold     =      1.0E-16
     beta                      =       0.7000
     number of iterations used =            4
     Exchange-correlation      = SLA  PW   PBE  PBE ( 1  4  3  4 0 0)


     celldm(1)=   10.30400  celldm(2)=    0.00000  celldm(3)=    0.00000
     celldm(4)=    0.00000  celldm(5)=    0.00000  celldm(6)=    0.00000

     crystal axes: (cart. coord. in units of alat)
               a(1) = ( -0.5000  0.0000  0.5000 )  
               a(2) = (  0.0000  0.5000  0.5000 )  
               a(3) = ( -0.5000  0.5000  0.0000 )  

     reciprocal axes: (cart. coord. in units 2 pi/alat)
               b(1) = ( -1.0000 -1.0000  1.0000 )  
               b(2) = (  1.0000  1.0000  1.0000 )  
               b(3) = ( -1.0000  1.0000 -1.0000 )  


     Atoms inside the unit cell: 

     Cartesian axes

     site n.  atom      mass           positions (alat units)
        1     Si  28.0860   tau(    1) = (    0.00000    0.00000    0.00000  )
        2     Si  28.0860   tau(    2) = (    0.25000    0.25000    0.25000  )

     Computing dynamical matrix for 
                    q = (  -0.3333333   0.3333333  -0.3333333 )
 
      6 Sym.Ops. (no q -> -q+G )


     G cutoff =  645.4509  (   1072 G-vectors)     FFT grid: ( 36, 36, 36)
     G cutoff =  322.7254  (    377 G-vectors)  smooth grid: ( 25, 25, 25)
     number of k points=  2600

     PseudoPot. # 1 for Si read from file:
     ./si_pbe_v1.uspp.F.UPF.txt
     MD5 check sum: a056efeee980c13900f22a371efd63c1
     Pseudo is Ultrasoft + core correction, Zval =  4.0
     Generated by new atomic code, or converted to UPF format
     Using radial grid of  899 points,  6 beta functions with: 
                l(1) =   0
                l(2) =   0
                l(3) =   1
                l(4) =   1
                l(5) =   2
                l(6) =   2
     Q(r) pseudized with  8 coefficients,  rinner =    0.900   0.900   0.900
                                                       0.900   0.900

     Mode symmetry, C_3v (3m)   point group:


     Atomic displacements:
     There are   4 irreducible representations

     Representation     1      1 modes -A_1  L_1  To be done

     Representation     2      1 modes -A_1  L_1  To be done

     Representation     3      2 modes -E    L_3  To be done

     Representation     4      2 modes -E    L_3  To be done



     Alpha used in Ewald sum =   2.5000
     PHONON       :  1m 5.89s CPU     1m17.16s WALL



     Representation #  1 mode #   1

     Self-consistent Calculation

      iter #   1 total cpu time :    77.6 secs   av.it.:   6.0
      thresh= 1.000E-02 alpha_mix =  0.700 |ddv_scf|^2 =  7.007E-05

      iter #   2 total cpu time :    78.3 secs   av.it.:  10.1
      thresh= 8.371E-04 alpha_mix =  0.700 |ddv_scf|^2 =  5.364E-04

      iter #   3 total cpu time :    78.8 secs   av.it.:   8.4
      thresh= 2.316E-03 alpha_mix =  0.700 |ddv_scf|^2 =  1.076E-07

      iter #   4 total cpu time :    79.5 secs   av.it.:  10.4
      thresh= 3.281E-05 alpha_mix =  0.700 |ddv_scf|^2 =  2.461E-09

      iter #   5 total cpu time :    80.3 secs   av.it.:  10.6
      thresh= 4.961E-06 alpha_mix =  0.700 |ddv_scf|^2 =  6.686E-11

      iter #   6 total cpu time :    80.9 secs   av.it.:  10.8
      thresh= 8.177E-07 alpha_mix =  0.700 |ddv_scf|^2 =  3.952E-12

      iter #   7 total cpu time :    81.5 secs   av.it.:  10.9
      thresh= 1.988E-07 alpha_mix =  0.700 |ddv_scf|^2 =  5.083E-12

      iter #   8 total cpu time :    82.1 secs   av.it.:   8.6
      thresh= 2.255E-07 alpha_mix =  0.700 |ddv_scf|^2 =  1.714E-13

      iter #   9 total cpu time :    82.7 secs   av.it.:  10.1
      thresh= 4.140E-08 alpha_mix =  0.700 |ddv_scf|^2 =  3.023E-13

      iter #  10 total cpu time :    83.3 secs   av.it.:   9.1
      thresh= 5.498E-08 alpha_mix =  0.700 |ddv_scf|^2 =  1.963E-15

      iter #  11 total cpu time :    83.9 secs   av.it.:  10.3
      thresh= 4.430E-09 alpha_mix =  0.700 |ddv_scf|^2 =  3.920E-16

      iter #  12 total cpu time :    84.5 secs   av.it.:  10.0
      thresh= 1.980E-09 alpha_mix =  0.700 |ddv_scf|^2 =  1.134E-17

     End of self-consistent calculation

     Convergence has been achieved 


     Representation #  2 mode #   2

     Self-consistent Calculation

      iter #   1 total cpu time :    85.1 secs   av.it.:   6.0
      thresh= 1.000E-02 alpha_mix =  0.700 |ddv_scf|^2 =  7.007E-05

      iter #   2 total cpu time :    85.8 secs   av.it.:  10.1
      thresh= 8.371E-04 alpha_mix =  0.700 |ddv_scf|^2 =  5.364E-04

      iter #   3 total cpu time :    86.3 secs   av.it.:   8.4
      thresh= 2.316E-03 alpha_mix =  0.700 |ddv_scf|^2 =  1.076E-07

      iter #   4 total cpu time :    86.9 secs   av.it.:  10.4
      thresh= 3.281E-05 alpha_mix =  0.700 |ddv_scf|^2 =  2.461E-09

      iter #   5 total cpu time :    87.6 secs   av.it.:  10.6
      thresh= 4.961E-06 alpha_mix =  0.700 |ddv_scf|^2 =  6.686E-11

      iter #   6 total cpu time :    88.3 secs   av.it.:  10.8
      thresh= 8.177E-07 alpha_mix =  0.700 |ddv_scf|^2 =  3.952E-12

      iter #   7 total cpu time :    89.9 secs   av.it.:  10.9
      thresh= 1.988E-07 alpha_mix =  0.700 |ddv_scf|^2 =  5.083E-12

      iter #   8 total cpu time :    90.9 secs   av.it.:   8.6
      thresh= 2.255E-07 alpha_mix =  0.700 |ddv_scf|^2 =  1.714E-13

      iter #   9 total cpu time :    91.5 secs   av.it.:  10.1
      thresh= 4.140E-08 alpha_mix =  0.700 |ddv_scf|^2 =  3.023E-13

      iter #  10 total cpu time :    92.1 secs   av.it.:   9.1
      thresh= 5.498E-08 alpha_mix =  0.700 |ddv_scf|^2 =  1.963E-15

      iter #  11 total cpu time :    92.7 secs   av.it.:  10.3
      thresh= 4.430E-09 alpha_mix =  0.700 |ddv_scf|^2 =  3.920E-16

      iter #  12 total cpu time :    93.2 secs   av.it.:  10.0
      thresh= 1.980E-09 alpha_mix =  0.700 |ddv_scf|^2 =  1.134E-17

     End of self-consistent calculation

     Convergence has been achieved 


     Representation #  3 modes #   3  4

     Self-consistent Calculation

      iter #   1 total cpu time :    94.1 secs   av.it.:   5.3
      thresh= 1.000E-02 alpha_mix =  0.700 |ddv_scf|^2 =  4.200E-08

      iter #   2 total cpu time :    95.3 secs   av.it.:  11.8
      thresh= 2.049E-05 alpha_mix =  0.700 |ddv_scf|^2 =  2.984E-09

      iter #   3 total cpu time :    97.4 secs   av.it.:  11.5
      thresh= 5.462E-06 alpha_mix =  0.700 |ddv_scf|^2 =  1.378E-10

      iter #   4 total cpu time :    98.5 secs   av.it.:  11.2
      thresh= 1.174E-06 alpha_mix =  0.700 |ddv_scf|^2 =  4.866E-13

      iter #   5 total cpu time :   100.1 secs   av.it.:  11.5
      thresh= 6.975E-08 alpha_mix =  0.700 |ddv_scf|^2 =  3.153E-14

      iter #   6 total cpu time :   108.0 secs   av.it.:  11.3
      thresh= 1.776E-08 alpha_mix =  0.700 |ddv_scf|^2 =  2.196E-16

      iter #   7 total cpu time :   118.8 secs   av.it.:  11.0
      thresh= 1.482E-09 alpha_mix =  0.700 |ddv_scf|^2 =  1.525E-17

     End of self-consistent calculation

     Convergence has been achieved 


     Representation #  4 modes #   5  6

     Self-consistent Calculation

      iter #   1 total cpu time :   130.9 secs   av.it.:   5.3
      thresh= 1.000E-02 alpha_mix =  0.700 |ddv_scf|^2 =  4.200E-08

      iter #   2 total cpu time :   132.2 secs   av.it.:  12.1
      thresh= 2.049E-05 alpha_mix =  0.700 |ddv_scf|^2 =  2.983E-09

      iter #   3 total cpu time :   133.5 secs   av.it.:  11.9
      thresh= 5.462E-06 alpha_mix =  0.700 |ddv_scf|^2 =  1.378E-10

      iter #   4 total cpu time :   135.0 secs   av.it.:  11.5
      thresh= 1.174E-06 alpha_mix =  0.700 |ddv_scf|^2 =  4.869E-13

      iter #   5 total cpu time :   136.2 secs   av.it.:  11.7
      thresh= 6.978E-08 alpha_mix =  0.700 |ddv_scf|^2 =  3.156E-14

      iter #   6 total cpu time :   137.5 secs   av.it.:  11.5
      thresh= 1.776E-08 alpha_mix =  0.700 |ddv_scf|^2 =  2.190E-16

      iter #   7 total cpu time :   138.7 secs   av.it.:  11.2
      thresh= 1.480E-09 alpha_mix =  0.700 |ddv_scf|^2 =  1.522E-17

     End of self-consistent calculation

     Convergence has been achieved 
 
     Number of q in the star =    8
     List of q in the star:
          1  -0.333333333   0.333333333  -0.333333333
          2   0.333333333   0.333333333   0.333333333
          3  -0.333333333  -0.333333333  -0.333333333
          4   0.333333333  -0.333333333   0.333333333
          5   0.333333333  -0.333333333  -0.333333333
          6   0.333333333   0.333333333  -0.333333333
          7  -0.333333333  -0.333333333   0.333333333
          8  -0.333333333   0.333333333   0.333333333

     Diagonalizing the dynamical matrix

     q = (   -0.333333333   0.333333333  -0.333333333 ) 

 **************************************************************************
     freq (    1) =       3.137522 [THz] =     104.656478 [cm-1]
     freq (    2) =       3.137522 [THz] =     104.656478 [cm-1]
     freq (    3) =       8.660497 [THz] =     288.883080 [cm-1]
     freq (    4) =      13.662715 [THz] =     455.739124 [cm-1]
     freq (    5) =      14.522088 [THz] =     484.404703 [cm-1]
     freq (    6) =      14.522088 [THz] =     484.404703 [cm-1]
 **************************************************************************

     Mode symmetry, C_3v (3m)   point group:

     freq (  1 -  2) =        104.7  [cm-1]   --> E    L_3           
     freq (  3 -  3) =        288.9  [cm-1]   --> A_1  L_1           
     freq (  4 -  4) =        455.7  [cm-1]   --> A_1  L_1           
     freq (  5 -  6) =        484.4  [cm-1]   --> E    L_3           

     Calculation of q =    0.5000000  -0.5000000   0.5000000
 
     Parallelization info
     --------------------
     sticks:   dense  smooth     PW     G-vecs:    dense   smooth      PW
     Min          54      27     10                 1071      368      90
     Max          56      28     11                 1073      380      94
     Sum         871     433    163                17153     5985    1459
 


     bravais-lattice index     =            2
     lattice parameter (alat)  =      10.3040  a.u.
     unit-cell volume          =     273.5001 (a.u.)^3
     number of atoms/cell      =            2
     number of atomic types    =            1
     number of electrons       =         8.00
     number of Kohn-Sham states=            4
     kinetic-energy cutoff     =      30.0000  Ry
     charge density cutoff     =     240.0000  Ry
     Exchange-correlation      = SLA  PW   PBE  PBE ( 1  4  3  4 0 0)

     celldm(1)=  10.304000  celldm(2)=   0.000000  celldm(3)=   0.000000
     celldm(4)=   0.000000  celldm(5)=   0.000000  celldm(6)=   0.000000

     crystal axes: (cart. coord. in units of alat)
               a(1) = (  -0.500000   0.000000   0.500000 )  
               a(2) = (   0.000000   0.500000   0.500000 )  
               a(3) = (  -0.500000   0.500000   0.000000 )  

     reciprocal axes: (cart. coord. in units 2 pi/alat)
               b(1) = ( -1.000000 -1.000000  1.000000 )  
               b(2) = (  1.000000  1.000000  1.000000 )  
               b(3) = ( -1.000000  1.000000 -1.000000 )  


     PseudoPot. # 1 for Si read from file:
     ./si_pbe_v1.uspp.F.UPF.txt
     MD5 check sum: a056efeee980c13900f22a371efd63c1
     Pseudo is Ultrasoft + core correction, Zval =  4.0
     Generated by new atomic code, or converted to UPF format
     Using radial grid of  899 points,  6 beta functions with: 
                l(1) =   0
                l(2) =   0
                l(3) =   1
                l(4) =   1
                l(5) =   2
                l(6) =   2
     Q(r) pseudized with  8 coefficients,  rinner =    0.900   0.900   0.900
                                                       0.900   0.900

     atomic species   valence    mass     pseudopotential
        Si             4.00    28.08600     Si( 1.00)

     48 Sym. Ops., with inversion, found



   Cartesian axes

     site n.     atom                  positions (alat units)
         1           Si  tau(   1) = (   0.0000000   0.0000000   0.0000000  )
         2           Si  tau(   2) = (   0.2500000   0.2500000   0.2500000  )

     number of k points=  1300

     Number of k-points >= 100: set verbosity='high' to print them.

     Dense  grid:    17153 G-vectors     FFT dimensions: (  36,  36,  36)

     Smooth grid:     5985 G-vectors     FFT dimensions: (  25,  25,  25)

     Largest allocated arrays     est. size (Mb)     dimensions
        Kohn-Sham Wavefunctions         0.00 Mb     (      58,    4)
        NL pseudopotentials             0.03 Mb     (      58,   36)
        Each V/rho on FFT grid          0.06 Mb     (    3888)
        Each G-vector array             0.01 Mb     (    1072)
        G-vector shells                 0.00 Mb     (     205)
     Largest temporary arrays     est. size (Mb)     dimensions
        Auxiliary wavefunctions         0.01 Mb     (      58,   16)
        Each subspace H/S matrix        0.00 Mb     (       8,    8)
        Each <psi_i|beta_j> matrix      0.00 Mb     (      36,    4)

     The potential is recalculated from file :
     ./silicon/_ph0/silicon.10.304.save/charge-density.dat

     Starting wfc are    8 atomic wfcs

     Band Structure Calculation
     Davidson diagonalization with overlap

     ethr =  1.25E-10,  avg # of iterations = 12.4

     total cpu time spent up to now is        8.3 secs

     End of band structure calculation

     Number of k-points >= 100: set verbosity='high' to print the bands.

     highest occupied level (ev):     6.0282

     Writing output data file silicon.10.304.save

                                                                                

     bravais-lattice index     =            2
     lattice parameter (alat)  =      10.3040  a.u.
     unit-cell volume          =     273.5001 (a.u.)^3
     number of atoms/cell      =            2
     number of atomic types    =            1
     kinetic-energy cut-off    =      30.0000  Ry
     charge density cut-off    =     240.0000  Ry
     convergence threshold     =      1.0E-16
     beta                      =       0.7000
     number of iterations used =            4
     Exchange-correlation      = SLA  PW   PBE  PBE ( 1  4  3  4 0 0)


     celldm(1)=   10.30400  celldm(2)=    0.00000  celldm(3)=    0.00000
     celldm(4)=    0.00000  celldm(5)=    0.00000  celldm(6)=    0.00000

     crystal axes: (cart. coord. in units of alat)
               a(1) = ( -0.5000  0.0000  0.5000 )  
               a(2) = (  0.0000  0.5000  0.5000 )  
               a(3) = ( -0.5000  0.5000  0.0000 )  

     reciprocal axes: (cart. coord. in units 2 pi/alat)
               b(1) = ( -1.0000 -1.0000  1.0000 )  
               b(2) = (  1.0000  1.0000  1.0000 )  
               b(3) = ( -1.0000  1.0000 -1.0000 )  


     Atoms inside the unit cell: 

     Cartesian axes

     site n.  atom      mass           positions (alat units)
        1     Si  28.0860   tau(    1) = (    0.00000    0.00000    0.00000  )
        2     Si  28.0860   tau(    2) = (    0.25000    0.25000    0.25000  )

     Computing dynamical matrix for 
                    q = (   0.5000000  -0.5000000   0.5000000 )
 
     13 Sym.Ops. (with q -> -q+G )


     G cutoff =  645.4509  (   1072 G-vectors)     FFT grid: ( 36, 36, 36)
     G cutoff =  322.7254  (    374 G-vectors)  smooth grid: ( 25, 25, 25)
     number of k points=  1300

     PseudoPot. # 1 for Si read from file:
     ./si_pbe_v1.uspp.F.UPF.txt
     MD5 check sum: a056efeee980c13900f22a371efd63c1
     Pseudo is Ultrasoft + core correction, Zval =  4.0
     Generated by new atomic code, or converted to UPF format
     Using radial grid of  899 points,  6 beta functions with: 
                l(1) =   0
                l(2) =   0
                l(3) =   1
                l(4) =   1
                l(5) =   2
                l(6) =   2
     Q(r) pseudized with  8 coefficients,  rinner =    0.900   0.900   0.900
                                                       0.900   0.900


     Atomic displacements:
     There are   4 irreducible representations

     Representation     1      1 modes -  To be done

     Representation     2      1 modes -  To be done

     Representation     3      2 modes -  To be done

     Representation     4      2 modes -  To be done



     Alpha used in Ewald sum =   2.5000
     PHONON       :  2m 5.87s CPU     2m21.26s WALL



     Representation #  1 mode #   1

     Self-consistent Calculation

      iter #   1 total cpu time :   141.6 secs   av.it.:   5.1
      thresh= 1.000E-02 alpha_mix =  0.700 |ddv_scf|^2 =  2.372E-06

      iter #   2 total cpu time :   142.1 secs   av.it.:  10.7
      thresh= 1.540E-04 alpha_mix =  0.700 |ddv_scf|^2 =  2.163E-06

      iter #   3 total cpu time :   142.4 secs   av.it.:   9.8
      thresh= 1.471E-04 alpha_mix =  0.700 |ddv_scf|^2 =  1.315E-09

      iter #   4 total cpu time :   142.8 secs   av.it.:  10.0
      thresh= 3.627E-06 alpha_mix =  0.700 |ddv_scf|^2 =  1.318E-11

      iter #   5 total cpu time :   143.1 secs   av.it.:   9.8
      thresh= 3.631E-07 alpha_mix =  0.700 |ddv_scf|^2 =  1.693E-13

      iter #   6 total cpu time :   143.5 secs   av.it.:   9.9
      thresh= 4.114E-08 alpha_mix =  0.700 |ddv_scf|^2 =  2.434E-15

      iter #   7 total cpu time :   143.8 secs   av.it.:  10.0
      thresh= 4.933E-09 alpha_mix =  0.700 |ddv_scf|^2 =  4.490E-17

     End of self-consistent calculation

     Convergence has been achieved 


     Representation #  2 mode #   2

     Self-consistent Calculation

      iter #   1 total cpu time :   144.3 secs   av.it.:   6.0
      thresh= 1.000E-02 alpha_mix =  0.700 |ddv_scf|^2 =  3.372E-05

      iter #   2 total cpu time :   144.6 secs   av.it.:  10.6
      thresh= 5.807E-04 alpha_mix =  0.700 |ddv_scf|^2 =  1.047E-04

      iter #   3 total cpu time :   145.0 secs   av.it.:   9.2
      thresh= 1.023E-03 alpha_mix =  0.700 |ddv_scf|^2 =  7.302E-09

      iter #   4 total cpu time :   145.3 secs   av.it.:  10.6
      thresh= 8.545E-06 alpha_mix =  0.700 |ddv_scf|^2 =  3.704E-10

      iter #   5 total cpu time :   145.6 secs   av.it.:  10.8
      thresh= 1.925E-06 alpha_mix =  0.700 |ddv_scf|^2 =  1.130E-11

      iter #   6 total cpu time :   146.0 secs   av.it.:  10.5
      thresh= 3.362E-07 alpha_mix =  0.700 |ddv_scf|^2 =  8.540E-14

      iter #   7 total cpu time :   146.4 secs   av.it.:   9.9
      thresh= 2.922E-08 alpha_mix =  0.700 |ddv_scf|^2 =  9.472E-16

      iter #   8 total cpu time :   146.9 secs   av.it.:   9.7
      thresh= 3.078E-09 alpha_mix =  0.700 |ddv_scf|^2 =  3.641E-17

     End of self-consistent calculation

     Convergence has been achieved 


     Representation #  3 modes #   3  4

     Self-consistent Calculation

      iter #   1 total cpu time :   147.5 secs   av.it.:   5.1
      thresh= 1.000E-02 alpha_mix =  0.700 |ddv_scf|^2 =  1.520E-08

      iter #   2 total cpu time :   148.2 secs   av.it.:  11.6
      thresh= 1.233E-05 alpha_mix =  0.700 |ddv_scf|^2 =  8.988E-10

      iter #   3 total cpu time :   149.1 secs   av.it.:  11.2
      thresh= 2.998E-06 alpha_mix =  0.700 |ddv_scf|^2 =  3.007E-11

      iter #   4 total cpu time :   149.8 secs   av.it.:  11.2
      thresh= 5.484E-07 alpha_mix =  0.700 |ddv_scf|^2 =  2.443E-13

      iter #   5 total cpu time :   150.5 secs   av.it.:  11.1
      thresh= 4.943E-08 alpha_mix =  0.700 |ddv_scf|^2 =  2.690E-15

      iter #   6 total cpu time :   152.1 secs   av.it.:  11.2
      thresh= 5.186E-09 alpha_mix =  0.700 |ddv_scf|^2 =  2.743E-17

     End of self-consistent calculation

     Convergence has been achieved 


     Representation #  4 modes #   5  6

     Self-consistent Calculation

      iter #   1 total cpu time :   152.6 secs   av.it.:   5.2
      thresh= 1.000E-02 alpha_mix =  0.700 |ddv_scf|^2 =  7.761E-08

      iter #   2 total cpu time :   153.3 secs   av.it.:  11.7
      thresh= 2.786E-05 alpha_mix =  0.700 |ddv_scf|^2 =  6.218E-09

      iter #   3 total cpu time :   154.0 secs   av.it.:  11.5
      thresh= 7.886E-06 alpha_mix =  0.700 |ddv_scf|^2 =  1.640E-10

      iter #   4 total cpu time :   154.6 secs   av.it.:  10.4
      thresh= 1.281E-06 alpha_mix =  0.700 |ddv_scf|^2 =  2.955E-13

      iter #   5 total cpu time :   155.3 secs   av.it.:  11.1
      thresh= 5.436E-08 alpha_mix =  0.700 |ddv_scf|^2 =  2.666E-15

      iter #   6 total cpu time :   156.0 secs   av.it.:  11.2
      thresh= 5.163E-09 alpha_mix =  0.700 |ddv_scf|^2 =  7.136E-17

     End of self-consistent calculation

     Convergence has been achieved 
 
     Number of q in the star =    4
     List of q in the star:
          1   0.500000000  -0.500000000   0.500000000
          2   0.500000000   0.500000000   0.500000000
          3  -0.500000000   0.500000000   0.500000000
          4   0.500000000   0.500000000  -0.500000000

     Diagonalizing the dynamical matrix

     q = (    0.500000000  -0.500000000   0.500000000 ) 

 **************************************************************************
     freq (    1) =       3.295196 [THz] =     109.915905 [cm-1]
     freq (    2) =       3.295196 [THz] =     109.915905 [cm-1]
     freq (    3) =      11.132123 [THz] =     371.327660 [cm-1]
     freq (    4) =      12.136887 [THz] =     404.842987 [cm-1]
     freq (    5) =      14.452334 [THz] =     482.077976 [cm-1]
     freq (    6) =      14.452334 [THz] =     482.077976 [cm-1]
 **************************************************************************

     Calculation of q =    0.0000000   0.3333333   0.0000000
 
     Parallelization info
     --------------------
     sticks:   dense  smooth     PW     G-vecs:    dense   smooth      PW
     Min          54      27     10                 1071      367      84
     Max          56      28     11                 1073      380      86
     Sum         871     433    163                17153     5985    1363
 


     bravais-lattice index     =            2
     lattice parameter (alat)  =      10.3040  a.u.
     unit-cell volume          =     273.5001 (a.u.)^3
     number of atoms/cell      =            2
     number of atomic types    =            1
     number of electrons       =         8.00
     number of Kohn-Sham states=            4
     kinetic-energy cutoff     =      30.0000  Ry
     charge density cutoff     =     240.0000  Ry
     Exchange-correlation      = SLA  PW   PBE  PBE ( 1  4  3  4 0 0)

     celldm(1)=  10.304000  celldm(2)=   0.000000  celldm(3)=   0.000000
     celldm(4)=   0.000000  celldm(5)=   0.000000  celldm(6)=   0.000000

     crystal axes: (cart. coord. in units of alat)
               a(1) = (  -0.500000   0.000000   0.500000 )  
               a(2) = (   0.000000   0.500000   0.500000 )  
               a(3) = (  -0.500000   0.500000   0.000000 )  

     reciprocal axes: (cart. coord. in units 2 pi/alat)
               b(1) = ( -1.000000 -1.000000  1.000000 )  
               b(2) = (  1.000000  1.000000  1.000000 )  
               b(3) = ( -1.000000  1.000000 -1.000000 )  


     PseudoPot. # 1 for Si read from file:
     ./si_pbe_v1.uspp.F.UPF.txt
     MD5 check sum: a056efeee980c13900f22a371efd63c1
     Pseudo is Ultrasoft + core correction, Zval =  4.0
     Generated by new atomic code, or converted to UPF format
     Using radial grid of  899 points,  6 beta functions with: 
                l(1) =   0
                l(2) =   0
                l(3) =   1
                l(4) =   1
                l(5) =   2
                l(6) =   2
     Q(r) pseudized with  8 coefficients,  rinner =    0.900   0.900   0.900
                                                       0.900   0.900

     atomic species   valence    mass     pseudopotential
        Si             4.00    28.08600     Si( 1.00)

     48 Sym. Ops., with inversion, found



   Cartesian axes

     site n.     atom                  positions (alat units)
         1           Si  tau(   1) = (   0.0000000   0.0000000   0.0000000  )
         2           Si  tau(   2) = (   0.2500000   0.2500000   0.2500000  )

     number of k points=  1872

     Number of k-points >= 100: set verbosity='high' to print them.

     Dense  grid:    17153 G-vectors     FFT dimensions: (  36,  36,  36)

     Smooth grid:     5985 G-vectors     FFT dimensions: (  25,  25,  25)

     Largest allocated arrays     est. size (Mb)     dimensions
        Kohn-Sham Wavefunctions         0.00 Mb     (      55,    4)
        NL pseudopotentials             0.03 Mb     (      55,   36)
        Each V/rho on FFT grid          0.06 Mb     (    3888)
        Each G-vector array             0.01 Mb     (    1072)
        G-vector shells                 0.00 Mb     (     207)
     Largest temporary arrays     est. size (Mb)     dimensions
        Auxiliary wavefunctions         0.01 Mb     (      55,   16)
        Each subspace H/S matrix        0.00 Mb     (       8,    8)
        Each <psi_i|beta_j> matrix      0.00 Mb     (      36,    4)

     The potential is recalculated from file :
     ./silicon/_ph0/silicon.10.304.save/charge-density.dat

     Starting wfc are    8 atomic wfcs

     Band Structure Calculation
     Davidson diagonalization with overlap

     ethr =  1.25E-10,  avg # of iterations = 12.3

     total cpu time spent up to now is       10.6 secs

     End of band structure calculation

     Number of k-points >= 100: set verbosity='high' to print the bands.

     highest occupied level (ev):     6.0282

     Writing output data file silicon.10.304.save

                                                                                

     bravais-lattice index     =            2
     lattice parameter (alat)  =      10.3040  a.u.
     unit-cell volume          =     273.5001 (a.u.)^3
     number of atoms/cell      =            2
     number of atomic types    =            1
     kinetic-energy cut-off    =      30.0000  Ry
     charge density cut-off    =     240.0000  Ry
     convergence threshold     =      1.0E-16
     beta                      =       0.7000
     number of iterations used =            4
     Exchange-correlation      = SLA  PW   PBE  PBE ( 1  4  3  4 0 0)


     celldm(1)=   10.30400  celldm(2)=    0.00000  celldm(3)=    0.00000
     celldm(4)=    0.00000  celldm(5)=    0.00000  celldm(6)=    0.00000

     crystal axes: (cart. coord. in units of alat)
               a(1) = ( -0.5000  0.0000  0.5000 )  
               a(2) = (  0.0000  0.5000  0.5000 )  
               a(3) = ( -0.5000  0.5000  0.0000 )  

     reciprocal axes: (cart. coord. in units 2 pi/alat)
               b(1) = ( -1.0000 -1.0000  1.0000 )  
               b(2) = (  1.0000  1.0000  1.0000 )  
               b(3) = ( -1.0000  1.0000 -1.0000 )  


     Atoms inside the unit cell: 

     Cartesian axes

     site n.  atom      mass           positions (alat units)
        1     Si  28.0860   tau(    1) = (    0.00000    0.00000    0.00000  )
        2     Si  28.0860   tau(    2) = (    0.25000    0.25000    0.25000  )

     Computing dynamical matrix for 
                    q = (   0.0000000   0.3333333   0.0000000 )
 
      8 Sym.Ops. (no q -> -q+G )


     G cutoff =  645.4509  (   1072 G-vectors)     FFT grid: ( 36, 36, 36)
     G cutoff =  322.7254  (    372 G-vectors)  smooth grid: ( 25, 25, 25)
     number of k points=  1872

     PseudoPot. # 1 for Si read from file:
     ./si_pbe_v1.uspp.F.UPF.txt
     MD5 check sum: a056efeee980c13900f22a371efd63c1
     Pseudo is Ultrasoft + core correction, Zval =  4.0
     Generated by new atomic code, or converted to UPF format
     Using radial grid of  899 points,  6 beta functions with: 
                l(1) =   0
                l(2) =   0
                l(3) =   1
                l(4) =   1
                l(5) =   2
                l(6) =   2
     Q(r) pseudized with  8 coefficients,  rinner =    0.900   0.900   0.900
                                                       0.900   0.900

     Mode symmetry, C_4v (4mm)  point group:


     Atomic displacements:
     There are   4 irreducible representations

     Representation     1      1 modes -A_1  G_1 D_1  To be done

     Representation     2      1 modes -B_2  G_4 D_2'  To be done

     Representation     3      2 modes -E    G_5 D_5  To be done

     Representation     4      2 modes -E    G_5 D_5  To be done



     Alpha used in Ewald sum =   2.5000
     PHONON       :  2m22.44s CPU     2m40.84s WALL



     Representation #  1 mode #   1

     Self-consistent Calculation

      iter #   1 total cpu time :   161.4 secs   av.it.:   6.3
      thresh= 1.000E-02 alpha_mix =  0.700 |ddv_scf|^2 =  1.474E-03

      iter #   2 total cpu time :   161.9 secs   av.it.:   9.3
      thresh= 3.840E-03 alpha_mix =  0.700 |ddv_scf|^2 =  4.263E-02

      iter #   3 total cpu time :   162.3 secs   av.it.:   7.7
      thresh= 1.000E-02 alpha_mix =  0.700 |ddv_scf|^2 =  8.216E-08

      iter #   4 total cpu time :   162.7 secs   av.it.:   9.6
      thresh= 2.866E-05 alpha_mix =  0.700 |ddv_scf|^2 =  2.753E-09

      iter #   5 total cpu time :   163.1 secs   av.it.:   8.7
      thresh= 5.247E-06 alpha_mix =  0.700 |ddv_scf|^2 =  6.245E-10

      iter #   6 total cpu time :   163.5 secs   av.it.:   8.2
      thresh= 2.499E-06 alpha_mix =  0.700 |ddv_scf|^2 =  1.140E-13

      iter #   7 total cpu time :   164.3 secs   av.it.:   9.9
      thresh= 3.377E-08 alpha_mix =  0.700 |ddv_scf|^2 =  8.806E-14

      iter #   8 total cpu time :   164.6 secs   av.it.:   7.3
      thresh= 2.967E-08 alpha_mix =  0.700 |ddv_scf|^2 =  7.773E-17

     End of self-consistent calculation

     Convergence has been achieved 


     Representation #  2 mode #   2

     Self-consistent Calculation

      iter #   1 total cpu time :   175.4 secs   av.it.:   5.1
      thresh= 1.000E-02 alpha_mix =  0.700 |ddv_scf|^2 =  2.428E-07

      iter #   2 total cpu time :   176.7 secs   av.it.:  10.9
      thresh= 4.928E-05 alpha_mix =  0.700 |ddv_scf|^2 =  4.125E-08

      iter #   3 total cpu time :   177.2 secs   av.it.:  10.8
      thresh= 2.031E-05 alpha_mix =  0.700 |ddv_scf|^2 =  1.192E-09

      iter #   4 total cpu time :   177.7 secs   av.it.:  10.7
      thresh= 3.452E-06 alpha_mix =  0.700 |ddv_scf|^2 =  4.218E-11

      iter #   5 total cpu time :   178.1 secs   av.it.:  10.8
      thresh= 6.495E-07 alpha_mix =  0.700 |ddv_scf|^2 =  2.245E-13

      iter #   6 total cpu time :   178.6 secs   av.it.:  10.2
      thresh= 4.738E-08 alpha_mix =  0.700 |ddv_scf|^2 =  3.841E-15

      iter #   7 total cpu time :   179.0 secs   av.it.:   9.8
      thresh= 6.197E-09 alpha_mix =  0.700 |ddv_scf|^2 =  9.784E-17

     End of self-consistent calculation

     Convergence has been achieved 


     Representation #  3 modes #   3  4

     Self-consistent Calculation

      iter #   1 total cpu time :   180.0 secs   av.it.:   5.2
      thresh= 1.000E-02 alpha_mix =  0.700 |ddv_scf|^2 =  4.583E-08

      iter #   2 total cpu time :   181.2 secs   av.it.:  12.0
      thresh= 2.141E-05 alpha_mix =  0.700 |ddv_scf|^2 =  3.973E-09

      iter #   3 total cpu time :   182.8 secs   av.it.:  11.7
      thresh= 6.303E-06 alpha_mix =  0.700 |ddv_scf|^2 =  1.532E-10

      iter #   4 total cpu time :   183.9 secs   av.it.:  11.2
      thresh= 1.238E-06 alpha_mix =  0.700 |ddv_scf|^2 =  5.844E-13

      iter #   5 total cpu time :   184.8 secs   av.it.:  11.4
      thresh= 7.645E-08 alpha_mix =  0.700 |ddv_scf|^2 =  2.852E-14

      iter #   6 total cpu time :   186.0 secs   av.it.:  11.6
      thresh= 1.689E-08 alpha_mix =  0.700 |ddv_scf|^2 =  2.101E-16

      iter #   7 total cpu time :   197.1 secs   av.it.:  11.1
      thresh= 1.449E-09 alpha_mix =  0.700 |ddv_scf|^2 =  1.316E-17

     End of self-consistent calculation

     Convergence has been achieved 


     Representation #  4 modes #   5  6

     Self-consistent Calculation

      iter #   1 total cpu time :   198.2 secs   av.it.:   5.3
      thresh= 1.000E-02 alpha_mix =  0.700 |ddv_scf|^2 =  5.407E-08

      iter #   2 total cpu time :   199.2 secs   av.it.:  11.9
      thresh= 2.325E-05 alpha_mix =  0.700 |ddv_scf|^2 =  4.863E-09

      iter #   3 total cpu time :   200.1 secs   av.it.:  11.7
      thresh= 6.973E-06 alpha_mix =  0.700 |ddv_scf|^2 =  1.626E-10

      iter #   4 total cpu time :   201.0 secs   av.it.:  11.4
      thresh= 1.275E-06 alpha_mix =  0.700 |ddv_scf|^2 =  4.228E-13

      iter #   5 total cpu time :   201.9 secs   av.it.:  11.3
      thresh= 6.502E-08 alpha_mix =  0.700 |ddv_scf|^2 =  1.350E-14

      iter #   6 total cpu time :   202.8 secs   av.it.:  11.5
      thresh= 1.162E-08 alpha_mix =  0.700 |ddv_scf|^2 =  1.791E-16

      iter #   7 total cpu time :   204.0 secs   av.it.:  11.1
      thresh= 1.338E-09 alpha_mix =  0.700 |ddv_scf|^2 =  1.076E-17

     End of self-consistent calculation

     Convergence has been achieved 
 
     Number of q in the star =    6
     List of q in the star:
          1   0.000000000   0.333333333   0.000000000
          2   0.333333333   0.000000000   0.000000000
          3   0.000000000   0.000000000   0.333333333
          4   0.000000000  -0.333333333   0.000000000
          5  -0.333333333   0.000000000   0.000000000
          6   0.000000000   0.000000000  -0.333333333

     Diagonalizing the dynamical matrix

     q = (    0.000000000   0.333333333   0.000000000 ) 

 **************************************************************************
     freq (    1) =       2.966976 [THz] =      98.967667 [cm-1]
     freq (    2) =       2.966976 [THz] =      98.967667 [cm-1]
     freq (    3) =       4.899085 [THz] =     163.415877 [cm-1]
     freq (    4) =      14.446719 [THz] =     481.890683 [cm-1]
     freq (    5) =      14.446719 [THz] =     481.890683 [cm-1]
     freq (    6) =      14.943213 [THz] =     498.451927 [cm-1]
 **************************************************************************

     Mode symmetry, C_4v (4mm)  point group:

     freq (  1 -  2) =         99.0  [cm-1]   --> E    G_5 D_5       
     freq (  3 -  3) =        163.4  [cm-1]   --> A_1  G_1 D_1       
     freq (  4 -  5) =        481.9  [cm-1]   --> E    G_5 D_5       
     freq (  6 -  6) =        498.5  [cm-1]   --> B_2  G_4 D_2'      

     Calculation of q =   -0.1666667   0.5000000  -0.1666667
 
     Parallelization info
     --------------------
     sticks:   dense  smooth     PW     G-vecs:    dense   smooth      PW
     Min          54      27     10                 1071      371      87
     Max          56      28     11                 1073      377      90
     Sum         871     433    163                17153     5985    1411
 


     bravais-lattice index     =            2
     lattice parameter (alat)  =      10.3040  a.u.
     unit-cell volume          =     273.5001 (a.u.)^3
     number of atoms/cell      =            2
     number of atomic types    =            1
     number of electrons       =         8.00
     number of Kohn-Sham states=            4
     kinetic-energy cutoff     =      30.0000  Ry
     charge density cutoff     =     240.0000  Ry
     Exchange-correlation      = SLA  PW   PBE  PBE ( 1  4  3  4 0 0)

     celldm(1)=  10.304000  celldm(2)=   0.000000  celldm(3)=   0.000000
     celldm(4)=   0.000000  celldm(5)=   0.000000  celldm(6)=   0.000000

     crystal axes: (cart. coord. in units of alat)
               a(1) = (  -0.500000   0.000000   0.500000 )  
               a(2) = (   0.000000   0.500000   0.500000 )  
               a(3) = (  -0.500000   0.500000   0.000000 )  

     reciprocal axes: (cart. coord. in units 2 pi/alat)
               b(1) = ( -1.000000 -1.000000  1.000000 )  
               b(2) = (  1.000000  1.000000  1.000000 )  
               b(3) = ( -1.000000  1.000000 -1.000000 )  


     PseudoPot. # 1 for Si read from file:
     ./si_pbe_v1.uspp.F.UPF.txt
     MD5 check sum: a056efeee980c13900f22a371efd63c1
     Pseudo is Ultrasoft + core correction, Zval =  4.0
     Generated by new atomic code, or converted to UPF format
     Using radial grid of  899 points,  6 beta functions with: 
                l(1) =   0
                l(2) =   0
                l(3) =   1
                l(4) =   1
                l(5) =   2
                l(6) =   2
     Q(r) pseudized with  8 coefficients,  rinner =    0.900   0.900   0.900
                                                       0.900   0.900

     atomic species   valence    mass     pseudopotential
        Si             4.00    28.08600     Si( 1.00)

     48 Sym. Ops., with inversion, found



   Cartesian axes

     site n.     atom                  positions (alat units)
         1           Si  tau(   1) = (   0.0000000   0.0000000   0.0000000  )
         2           Si  tau(   2) = (   0.2500000   0.2500000   0.2500000  )

     number of k points=  7200

     Number of k-points >= 100: set verbosity='high' to print them.

     Dense  grid:    17153 G-vectors     FFT dimensions: (  36,  36,  36)

     Smooth grid:     5985 G-vectors     FFT dimensions: (  25,  25,  25)

     Largest allocated arrays     est. size (Mb)     dimensions
        Kohn-Sham Wavefunctions         0.00 Mb     (      53,    4)
        NL pseudopotentials             0.03 Mb     (      53,   36)
        Each V/rho on FFT grid          0.06 Mb     (    3888)
        Each G-vector array             0.01 Mb     (    1072)
        G-vector shells                 0.00 Mb     (     207)
     Largest temporary arrays     est. size (Mb)     dimensions
        Auxiliary wavefunctions         0.01 Mb     (      53,   16)
        Each subspace H/S matrix        0.00 Mb     (       8,    8)
        Each <psi_i|beta_j> matrix      0.00 Mb     (      36,    4)

     The potential is recalculated from file :
     ./silicon/_ph0/silicon.10.304.save/charge-density.dat

     Starting wfc are    8 atomic wfcs

     Band Structure Calculation
     Davidson diagonalization with overlap

     ethr =  1.25E-10,  avg # of iterations = 12.3

     total cpu time spent up to now is       18.1 secs

     End of band structure calculation

     Number of k-points >= 100: set verbosity='high' to print the bands.

     highest occupied level (ev):     6.0282

     Writing output data file silicon.10.304.save

                                                                                

     bravais-lattice index     =            2
     lattice parameter (alat)  =      10.3040  a.u.
     unit-cell volume          =     273.5001 (a.u.)^3
     number of atoms/cell      =            2
     number of atomic types    =            1
     kinetic-energy cut-off    =      30.0000  Ry
     charge density cut-off    =     240.0000  Ry
     convergence threshold     =      1.0E-16
     beta                      =       0.7000
     number of iterations used =            4
     Exchange-correlation      = SLA  PW   PBE  PBE ( 1  4  3  4 0 0)


     celldm(1)=   10.30400  celldm(2)=    0.00000  celldm(3)=    0.00000
     celldm(4)=    0.00000  celldm(5)=    0.00000  celldm(6)=    0.00000

     crystal axes: (cart. coord. in units of alat)
               a(1) = ( -0.5000  0.0000  0.5000 )  
               a(2) = (  0.0000  0.5000  0.5000 )  
               a(3) = ( -0.5000  0.5000  0.0000 )  

     reciprocal axes: (cart. coord. in units 2 pi/alat)
               b(1) = ( -1.0000 -1.0000  1.0000 )  
               b(2) = (  1.0000  1.0000  1.0000 )  
               b(3) = ( -1.0000  1.0000 -1.0000 )  


     Atoms inside the unit cell: 

     Cartesian axes

     site n.  atom      mass           positions (alat units)
        1     Si  28.0860   tau(    1) = (    0.00000    0.00000    0.00000  )
        2     Si  28.0860   tau(    2) = (    0.25000    0.25000    0.25000  )

     Computing dynamical matrix for 
                    q = (  -0.1666667   0.5000000  -0.1666667 )
 
      2 Sym.Ops. (no q -> -q+G )


     G cutoff =  645.4509  (   1072 G-vectors)     FFT grid: ( 36, 36, 36)
     G cutoff =  322.7254  (    377 G-vectors)  smooth grid: ( 25, 25, 25)
     number of k points=  7200

     PseudoPot. # 1 for Si read from file:
     ./si_pbe_v1.uspp.F.UPF.txt
     MD5 check sum: a056efeee980c13900f22a371efd63c1
     Pseudo is Ultrasoft + core correction, Zval =  4.0
     Generated by new atomic code, or converted to UPF format
     Using radial grid of  899 points,  6 beta functions with: 
                l(1) =   0
                l(2) =   0
                l(3) =   1
                l(4) =   1
                l(5) =   2
                l(6) =   2
     Q(r) pseudized with  8 coefficients,  rinner =    0.900   0.900   0.900
                                                       0.900   0.900

     Mode symmetry, C_s (m)     point group:


     Atomic displacements:
     There are   6 irreducible representations

     Representation     1      1 modes -A'  To be done

     Representation     2      1 modes -A'  To be done

     Representation     3      1 modes -A'  To be done

     Representation     4      1 modes -A'  To be done

     Representation     5      1 modes -A''  To be done

     Representation     6      1 modes -A''  To be done



     Alpha used in Ewald sum =   2.5000
     PHONON       :  3m12.68s CPU     3m37.29s WALL



     Representation #  1 mode #   1

     Self-consistent Calculation

      iter #   1 total cpu time :   218.4 secs   av.it.:   5.8
      thresh= 1.000E-02 alpha_mix =  0.700 |ddv_scf|^2 =  3.533E-05

      iter #   2 total cpu time :   220.0 secs   av.it.:  10.3
      thresh= 5.944E-04 alpha_mix =  0.700 |ddv_scf|^2 =  3.596E-04

      iter #   3 total cpu time :   221.3 secs   av.it.:   8.3
      thresh= 1.896E-03 alpha_mix =  0.700 |ddv_scf|^2 =  6.109E-08

      iter #   4 total cpu time :   223.7 secs   av.it.:  10.9
      thresh= 2.472E-05 alpha_mix =  0.700 |ddv_scf|^2 =  2.649E-09

      iter #   5 total cpu time :   225.9 secs   av.it.:  10.9
      thresh= 5.147E-06 alpha_mix =  0.700 |ddv_scf|^2 =  1.256E-10

      iter #   6 total cpu time :   227.4 secs   av.it.:  10.9
      thresh= 1.121E-06 alpha_mix =  0.700 |ddv_scf|^2 =  4.570E-12

      iter #   7 total cpu time :   228.9 secs   av.it.:  11.0
      thresh= 2.138E-07 alpha_mix =  0.700 |ddv_scf|^2 =  3.321E-13

      iter #   8 total cpu time :   230.5 secs   av.it.:  10.8
      thresh= 5.763E-08 alpha_mix =  0.700 |ddv_scf|^2 =  1.538E-12

      iter #   9 total cpu time :   231.9 secs   av.it.:   8.8
      thresh= 1.240E-07 alpha_mix =  0.700 |ddv_scf|^2 =  2.394E-14

      iter #  10 total cpu time :   234.2 secs   av.it.:  10.1
      thresh= 1.547E-08 alpha_mix =  0.700 |ddv_scf|^2 =  3.597E-14

      iter #  11 total cpu time :   236.3 secs   av.it.:   9.5
      thresh= 1.897E-08 alpha_mix =  0.700 |ddv_scf|^2 =  1.700E-16

      iter #  12 total cpu time :   239.6 secs   av.it.:  11.0
      thresh= 1.304E-09 alpha_mix =  0.700 |ddv_scf|^2 =  4.746E-17

     End of self-consistent calculation

     Convergence has been achieved 


     Representation #  2 mode #   2

     Self-consistent Calculation

      iter #   1 total cpu time :   241.2 secs   av.it.:   6.0
      thresh= 1.000E-02 alpha_mix =  0.700 |ddv_scf|^2 =  8.317E-05

      iter #   2 total cpu time :   242.8 secs   av.it.:  10.2
      thresh= 9.120E-04 alpha_mix =  0.700 |ddv_scf|^2 =  8.665E-04

      iter #   3 total cpu time :   244.1 secs   av.it.:   8.2
      thresh= 2.944E-03 alpha_mix =  0.700 |ddv_scf|^2 =  4.103E-08

      iter #   4 total cpu time :   245.8 secs   av.it.:  11.0
      thresh= 2.026E-05 alpha_mix =  0.700 |ddv_scf|^2 =  3.873E-09

      iter #   5 total cpu time :   247.5 secs   av.it.:  10.9
      thresh= 6.223E-06 alpha_mix =  0.700 |ddv_scf|^2 =  1.257E-10

      iter #   6 total cpu time :   249.1 secs   av.it.:  11.0
      thresh= 1.121E-06 alpha_mix =  0.700 |ddv_scf|^2 =  1.026E-11

      iter #   7 total cpu time :   251.3 secs   av.it.:  10.9
      thresh= 3.203E-07 alpha_mix =  0.700 |ddv_scf|^2 =  1.799E-13

      iter #   8 total cpu time :   255.5 secs   av.it.:  10.8
      thresh= 4.242E-08 alpha_mix =  0.700 |ddv_scf|^2 =  1.184E-12

      iter #   9 total cpu time :   257.0 secs   av.it.:   8.7
      thresh= 1.088E-07 alpha_mix =  0.700 |ddv_scf|^2 =  1.425E-14

      iter #  10 total cpu time :   258.6 secs   av.it.:  10.1
      thresh= 1.194E-08 alpha_mix =  0.700 |ddv_scf|^2 =  2.019E-14

      iter #  11 total cpu time :   260.0 secs   av.it.:   9.3
      thresh= 1.421E-08 alpha_mix =  0.700 |ddv_scf|^2 =  7.858E-17

     End of self-consistent calculation

     Convergence has been achieved 


     Representation #  3 mode #   3

     Self-consistent Calculation

      iter #   1 total cpu time :   261.3 secs   av.it.:   5.9
      thresh= 1.000E-02 alpha_mix =  0.700 |ddv_scf|^2 =  6.047E-05

      iter #   2 total cpu time :   262.9 secs   av.it.:  10.3
      thresh= 7.776E-04 alpha_mix =  0.700 |ddv_scf|^2 =  6.337E-04

      iter #   3 total cpu time :   264.2 secs   av.it.:   8.3
      thresh= 2.517E-03 alpha_mix =  0.700 |ddv_scf|^2 =  5.822E-08

      iter #   4 total cpu time :   265.9 secs   av.it.:  10.9
      thresh= 2.413E-05 alpha_mix =  0.700 |ddv_scf|^2 =  3.139E-09

      iter #   5 total cpu time :   268.0 secs   av.it.:  10.9
      thresh= 5.603E-06 alpha_mix =  0.700 |ddv_scf|^2 =  1.341E-10

      iter #   6 total cpu time :   269.8 secs   av.it.:  11.0
      thresh= 1.158E-06 alpha_mix =  0.700 |ddv_scf|^2 =  8.379E-12

      iter #   7 total cpu time :   271.5 secs   av.it.:  11.0
      thresh= 2.895E-07 alpha_mix =  0.700 |ddv_scf|^2 =  1.738E-13

      iter #   8 total cpu time :   273.2 secs   av.it.:  10.6
      thresh= 4.169E-08 alpha_mix =  0.700 |ddv_scf|^2 =  9.010E-13

      iter #   9 total cpu time :   274.7 secs   av.it.:   8.8
      thresh= 9.492E-08 alpha_mix =  0.700 |ddv_scf|^2 =  5.775E-15

      iter #  10 total cpu time :   276.6 secs   av.it.:  10.5
      thresh= 7.600E-09 alpha_mix =  0.700 |ddv_scf|^2 =  1.817E-14

      iter #  11 total cpu time :   278.0 secs   av.it.:   8.8
      thresh= 1.348E-08 alpha_mix =  0.700 |ddv_scf|^2 =  1.591E-16

      iter #  12 total cpu time :   279.6 secs   av.it.:  10.6
      thresh= 1.261E-09 alpha_mix =  0.700 |ddv_scf|^2 =  1.361E-17

     End of self-consistent calculation

     Convergence has been achieved 


     Representation #  4 mode #   4

     Self-consistent Calculation

      iter #   1 total cpu time :   281.4 secs   av.it.:   5.6
      thresh= 1.000E-02 alpha_mix =  0.700 |ddv_scf|^2 =  1.261E-05

      iter #   2 total cpu time :   283.0 secs   av.it.:  10.6
      thresh= 3.552E-04 alpha_mix =  0.700 |ddv_scf|^2 =  1.265E-04

      iter #   3 total cpu time :   284.4 secs   av.it.:   8.3
      thresh= 1.125E-03 alpha_mix =  0.700 |ddv_scf|^2 =  7.099E-08

      iter #   4 total cpu time :   286.7 secs   av.it.:  10.8
      thresh= 2.664E-05 alpha_mix =  0.700 |ddv_scf|^2 =  1.453E-09

      iter #   5 total cpu time :   288.4 secs   av.it.:  11.0
      thresh= 3.811E-06 alpha_mix =  0.700 |ddv_scf|^2 =  1.291E-10

      iter #   6 total cpu time :   290.7 secs   av.it.:  11.0
      thresh= 1.136E-06 alpha_mix =  0.700 |ddv_scf|^2 =  3.803E-12

      iter #   7 total cpu time :   292.6 secs   av.it.:  11.0
      thresh= 1.950E-07 alpha_mix =  0.700 |ddv_scf|^2 =  3.828E-12

      iter #   8 total cpu time :   294.0 secs   av.it.:   9.2
      thresh= 1.957E-07 alpha_mix =  0.700 |ddv_scf|^2 =  1.815E-12

      iter #   9 total cpu time :   295.5 secs   av.it.:   9.4
      thresh= 1.347E-07 alpha_mix =  0.700 |ddv_scf|^2 =  1.295E-12

      iter #  10 total cpu time :   296.9 secs   av.it.:   9.0
      thresh= 1.138E-07 alpha_mix =  0.700 |ddv_scf|^2 =  4.089E-15

      iter #  11 total cpu time :   298.7 secs   av.it.:  11.0
      thresh= 6.394E-09 alpha_mix =  0.700 |ddv_scf|^2 =  1.397E-15

      iter #  12 total cpu time :   300.3 secs   av.it.:  10.8
      thresh= 3.737E-09 alpha_mix =  0.700 |ddv_scf|^2 =  8.908E-17

     End of self-consistent calculation

     Convergence has been achieved 


     Representation #  5 mode #   5

     Self-consistent Calculation

      iter #   1 total cpu time :   301.4 secs   av.it.:   5.3
      thresh= 1.000E-02 alpha_mix =  0.700 |ddv_scf|^2 =  2.786E-07

      iter #   2 total cpu time :   303.1 secs   av.it.:  11.0
      thresh= 5.278E-05 alpha_mix =  0.700 |ddv_scf|^2 =  3.402E-08

      iter #   3 total cpu time :   304.7 secs   av.it.:  10.8
      thresh= 1.844E-05 alpha_mix =  0.700 |ddv_scf|^2 =  7.318E-10

      iter #   4 total cpu time :   306.3 secs   av.it.:  10.5
      thresh= 2.705E-06 alpha_mix =  0.700 |ddv_scf|^2 =  1.827E-12

      iter #   5 total cpu time :   308.1 secs   av.it.:  10.6
      thresh= 1.352E-07 alpha_mix =  0.700 |ddv_scf|^2 =  9.161E-14

      iter #   6 total cpu time :   309.8 secs   av.it.:  10.6
      thresh= 3.027E-08 alpha_mix =  0.700 |ddv_scf|^2 =  8.518E-16

      iter #   7 total cpu time :   311.3 secs   av.it.:  10.3
      thresh= 2.919E-09 alpha_mix =  0.700 |ddv_scf|^2 =  3.269E-17

     End of self-consistent calculation

     Convergence has been achieved 


     Representation #  6 mode #   6

     Self-consistent Calculation

      iter #   1 total cpu time :   312.4 secs   av.it.:   5.3
      thresh= 1.000E-02 alpha_mix =  0.700 |ddv_scf|^2 =  2.786E-07

      iter #   2 total cpu time :   314.5 secs   av.it.:  11.0
      thresh= 5.278E-05 alpha_mix =  0.700 |ddv_scf|^2 =  3.402E-08

      iter #   3 total cpu time :   316.1 secs   av.it.:  10.8
      thresh= 1.844E-05 alpha_mix =  0.700 |ddv_scf|^2 =  7.318E-10

      iter #   4 total cpu time :   317.7 secs   av.it.:  10.5
      thresh= 2.705E-06 alpha_mix =  0.700 |ddv_scf|^2 =  1.827E-12

      iter #   5 total cpu time :   319.3 secs   av.it.:  10.6
      thresh= 1.352E-07 alpha_mix =  0.700 |ddv_scf|^2 =  9.161E-14

      iter #   6 total cpu time :   321.5 secs   av.it.:  10.6
      thresh= 3.027E-08 alpha_mix =  0.700 |ddv_scf|^2 =  8.518E-16

      iter #   7 total cpu time :   323.2 secs   av.it.:  10.3
      thresh= 2.919E-09 alpha_mix =  0.700 |ddv_scf|^2 =  3.270E-17

     End of self-consistent calculation

     Convergence has been achieved 
 
     Number of q in the star =   24
     List of q in the star:
          1  -0.166666667   0.500000000  -0.166666667
          2   0.166666667   0.500000000   0.166666667
          3  -0.166666667   0.500000000   0.166666667
          4   0.166666667   0.500000000  -0.166666667
          5   0.500000000  -0.166666667   0.166666667
[...]

     End of self-consistent calculation

     Convergence has been achieved 
 
     Number of q in the star =   24
     List of q in the star:
          1   0.500000000  -0.166666667   0.833333333
          2   0.833333333   0.166666667   0.500000000
          3   0.500000000   0.166666667   0.833333333
          4  -0.833333333  -0.166666667   0.500000000
          5  -0.833333333  -0.166666667  -0.500000000
          6  -0.500000000  -0.166666667  -0.833333333
          7   0.833333333  -0.166666667   0.500000000
          8  -0.500000000  -0.166666667   0.833333333
          9  -0.833333333   0.166666667   0.500000000
         10   0.833333333   0.166666667  -0.500000000
         11   0.833333333  -0.166666667  -0.500000000
         12   0.500000000   0.166666667  -0.833333333
         13  -0.500000000   0.166666667   0.833333333
         14  -0.500000000   0.166666667  -0.833333333
         15  -0.833333333   0.166666667  -0.500000000
         16   0.833333333  -0.500000000   0.166666667
         17   0.833333333   0.500000000  -0.166666667
         18  -0.833333333  -0.500000000  -0.166666667
         19  -0.833333333   0.500000000   0.166666667
         20   0.166666667  -0.500000000   0.833333333
         21  -0.166666667   0.500000000   0.833333333
         22   0.166666667   0.500000000  -0.833333333
         23  -0.166666667  -0.500000000  -0.833333333
         24  -0.500000000   0.833333333   0.166666667

     Diagonalizing the dynamical matrix

     q = (    0.500000000  -0.166666667   0.833333333 ) 

 **************************************************************************
     freq (    1) =       5.118911 [THz] =     170.748484 [cm-1]
     freq (    2) =       6.127822 [THz] =     204.402140 [cm-1]
     freq (    3) =       9.738380 [THz] =     324.837394 [cm-1]
     freq (    4) =      11.272150 [THz] =     375.998464 [cm-1]
     freq (    5) =      13.772485 [THz] =     459.400657 [cm-1]
     freq (    6) =      13.998608 [THz] =     466.943300 [cm-1]
 **************************************************************************

     Calculation of q =   -0.3333333  -1.0000000   0.0000000
 
     Parallelization info
     --------------------
     sticks:   dense  smooth     PW     G-vecs:    dense   smooth      PW
     Min          54      27     11                 1071      368      99
     Max          56      28     13                 1073      380     101
     Sum         871     433    187                17153     5985    1591
 


     bravais-lattice index     =            2
     lattice parameter (alat)  =      10.3040  a.u.
     unit-cell volume          =     273.5001 (a.u.)^3
     number of atoms/cell      =            2
     number of atomic types    =            1
     number of electrons       =         8.00
     number of Kohn-Sham states=            4
     kinetic-energy cutoff     =      30.0000  Ry
     charge density cutoff     =     240.0000  Ry
     Exchange-correlation      = SLA  PW   PBE  PBE ( 1  4  3  4 0 0)

     celldm(1)=  10.304000  celldm(2)=   0.000000  celldm(3)=   0.000000
     celldm(4)=   0.000000  celldm(5)=   0.000000  celldm(6)=   0.000000

     crystal axes: (cart. coord. in units of alat)
               a(1) = (  -0.500000   0.000000   0.500000 )  
               a(2) = (   0.000000   0.500000   0.500000 )  
               a(3) = (  -0.500000   0.500000   0.000000 )  

     reciprocal axes: (cart. coord. in units 2 pi/alat)
               b(1) = ( -1.000000 -1.000000  1.000000 )  
               b(2) = (  1.000000  1.000000  1.000000 )  
               b(3) = ( -1.000000  1.000000 -1.000000 )  


     PseudoPot. # 1 for Si read from file:
     ./si_pbe_v1.uspp.F.UPF.txt
     MD5 check sum: a056efeee980c13900f22a371efd63c1
     Pseudo is Ultrasoft + core correction, Zval =  4.0
     Generated by new atomic code, or converted to UPF format
     Using radial grid of  899 points,  6 beta functions with: 
                l(1) =   0
                l(2) =   0
                l(3) =   1
                l(4) =   1
                l(5) =   2
                l(6) =   2
     Q(r) pseudized with  8 coefficients,  rinner =    0.900   0.900   0.900
                                                       0.900   0.900

     atomic species   valence    mass     pseudopotential
        Si             4.00    28.08600     Si( 1.00)

     48 Sym. Ops., with inversion, found



   Cartesian axes

     site n.     atom                  positions (alat units)
         1           Si  tau(   1) = (   0.0000000   0.0000000   0.0000000  )
         2           Si  tau(   2) = (   0.2500000   0.2500000   0.2500000  )

     number of k points=  3456

     Number of k-points >= 100: set verbosity='high' to print them.

     Dense  grid:    17153 G-vectors     FFT dimensions: (  36,  36,  36)

     Smooth grid:     5985 G-vectors     FFT dimensions: (  25,  25,  25)

     Largest allocated arrays     est. size (Mb)     dimensions
        Kohn-Sham Wavefunctions         0.00 Mb     (      55,    4)
        NL pseudopotentials             0.03 Mb     (      55,   36)
        Each V/rho on FFT grid          0.06 Mb     (    3888)
        Each G-vector array             0.01 Mb     (    1072)
        G-vector shells                 0.00 Mb     (     203)
     Largest temporary arrays     est. size (Mb)     dimensions
        Auxiliary wavefunctions         0.01 Mb     (      55,   16)
        Each subspace H/S matrix        0.00 Mb     (       8,    8)
        Each <psi_i|beta_j> matrix      0.00 Mb     (      36,    4)

     The potential is recalculated from file :
     ./silicon/_ph0/silicon.10.304.save/charge-density.dat

     Starting wfc are    8 atomic wfcs

     Band Structure Calculation
     Davidson diagonalization with overlap

     ethr =  1.25E-10,  avg # of iterations = 12.3

     total cpu time spent up to now is      101.9 secs

     End of band structure calculation

     Number of k-points >= 100: set verbosity='high' to print the bands.

     highest occupied level (ev):     6.0282

     Writing output data file silicon.10.304.save

                                                                                

     bravais-lattice index     =            2
     lattice parameter (alat)  =      10.3040  a.u.
     unit-cell volume          =     273.5001 (a.u.)^3
     number of atoms/cell      =            2
     number of atomic types    =            1
     kinetic-energy cut-off    =      30.0000  Ry
     charge density cut-off    =     240.0000  Ry
     convergence threshold     =      1.0E-16
     beta                      =       0.7000
     number of iterations used =            4
     Exchange-correlation      = SLA  PW   PBE  PBE ( 1  4  3  4 0 0)


     celldm(1)=   10.30400  celldm(2)=    0.00000  celldm(3)=    0.00000
     celldm(4)=    0.00000  celldm(5)=    0.00000  celldm(6)=    0.00000

     crystal axes: (cart. coord. in units of alat)
               a(1) = ( -0.5000  0.0000  0.5000 )  
               a(2) = (  0.0000  0.5000  0.5000 )  
               a(3) = ( -0.5000  0.5000  0.0000 )  

     reciprocal axes: (cart. coord. in units 2 pi/alat)
               b(1) = ( -1.0000 -1.0000  1.0000 )  
               b(2) = (  1.0000  1.0000  1.0000 )  
               b(3) = ( -1.0000  1.0000 -1.0000 )  


     Atoms inside the unit cell: 

     Cartesian axes

     site n.  atom      mass           positions (alat units)
        1     Si  28.0860   tau(    1) = (    0.00000    0.00000    0.00000  )
        2     Si  28.0860   tau(    2) = (    0.25000    0.25000    0.25000  )

     Computing dynamical matrix for 
                    q = (  -0.3333333  -1.0000000   0.0000000 )
 
      4 Sym.Ops. (no q -> -q+G )


     G cutoff =  645.4509  (   1072 G-vectors)     FFT grid: ( 36, 36, 36)
     G cutoff =  322.7254  (    374 G-vectors)  smooth grid: ( 25, 25, 25)
     number of k points=  3456

     PseudoPot. # 1 for Si read from file:
     ./si_pbe_v1.uspp.F.UPF.txt
     MD5 check sum: a056efeee980c13900f22a371efd63c1
     Pseudo is Ultrasoft + core correction, Zval =  4.0
     Generated by new atomic code, or converted to UPF format
     Using radial grid of  899 points,  6 beta functions with: 
                l(1) =   0
                l(2) =   0
                l(3) =   1
                l(4) =   1
                l(5) =   2
                l(6) =   2
     Q(r) pseudized with  8 coefficients,  rinner =    0.900   0.900   0.900
                                                       0.900   0.900


     Atomic displacements:
     There are   3 irreducible representations

     Representation     1      2 modes -  To be done

     Representation     2      2 modes -  To be done

     Representation     3      2 modes -  To be done



     Alpha used in Ewald sum =   2.5000
     PHONON       : 17m47.28s CPU    19m51.41s WALL



     Representation #  1 modes #   1  2

     Self-consistent Calculation

      iter #   1 total cpu time :  1192.5 secs   av.it.:   5.6
      thresh= 1.000E-02 alpha_mix =  0.700 |ddv_scf|^2 =  4.203E-07

      iter #   2 total cpu time :  1194.8 secs   av.it.:  12.0
      thresh= 6.483E-05 alpha_mix =  0.700 |ddv_scf|^2 =  2.241E-07

      iter #   3 total cpu time :  1196.4 secs   av.it.:  11.6
      thresh= 4.734E-05 alpha_mix =  0.700 |ddv_scf|^2 =  3.283E-09

      iter #   4 total cpu time :  1198.0 secs   av.it.:  11.5
      thresh= 5.730E-06 alpha_mix =  0.700 |ddv_scf|^2 =  4.218E-10

      iter #   5 total cpu time :  1199.7 secs   av.it.:  11.4
      thresh= 2.054E-06 alpha_mix =  0.700 |ddv_scf|^2 =  1.031E-12

      iter #   6 total cpu time :  1201.3 secs   av.it.:  11.8
      thresh= 1.016E-07 alpha_mix =  0.700 |ddv_scf|^2 =  3.645E-14

      iter #   7 total cpu time :  1202.9 secs   av.it.:  11.4
      thresh= 1.909E-08 alpha_mix =  0.700 |ddv_scf|^2 =  2.910E-15

      iter #   8 total cpu time :  1204.4 secs   av.it.:  11.4
      thresh= 5.395E-09 alpha_mix =  0.700 |ddv_scf|^2 =  2.920E-17

     End of self-consistent calculation

     Convergence has been achieved 


     Representation #  2 modes #   3  4

     Self-consistent Calculation

      iter #   1 total cpu time :  1206.0 secs   av.it.:   5.8
      thresh= 1.000E-02 alpha_mix =  0.700 |ddv_scf|^2 =  1.065E-06

      iter #   2 total cpu time :  1207.6 secs   av.it.:  11.9
      thresh= 1.032E-04 alpha_mix =  0.700 |ddv_scf|^2 =  1.311E-06

      iter #   3 total cpu time :  1209.1 secs   av.it.:  11.1
      thresh= 1.145E-04 alpha_mix =  0.700 |ddv_scf|^2 =  4.838E-09

      iter #   4 total cpu time :  1210.9 secs   av.it.:  11.6
      thresh= 6.956E-06 alpha_mix =  0.700 |ddv_scf|^2 =  2.073E-10

      iter #   5 total cpu time :  1212.8 secs   av.it.:  11.5
      thresh= 1.440E-06 alpha_mix =  0.700 |ddv_scf|^2 =  3.988E-13

      iter #   6 total cpu time :  1214.4 secs   av.it.:  11.3
      thresh= 6.315E-08 alpha_mix =  0.700 |ddv_scf|^2 =  2.102E-14

      iter #   7 total cpu time :  1216.0 secs   av.it.:  11.2
      thresh= 1.450E-08 alpha_mix =  0.700 |ddv_scf|^2 =  3.288E-16

      iter #   8 total cpu time :  1218.9 secs   av.it.:  11.9
      thresh= 1.813E-09 alpha_mix =  0.700 |ddv_scf|^2 =  1.219E-16

      iter #   9 total cpu time :  1220.7 secs   av.it.:  11.5
      thresh= 1.104E-09 alpha_mix =  0.700 |ddv_scf|^2 =  8.385E-18

     End of self-consistent calculation

     Convergence has been achieved 


     Representation #  3 modes #   5  6

     Self-consistent Calculation

      iter #   1 total cpu time :  1222.1 secs   av.it.:   5.3
      thresh= 1.000E-02 alpha_mix =  0.700 |ddv_scf|^2 =  3.805E-07

      iter #   2 total cpu time :  1224.0 secs   av.it.:  12.0
      thresh= 6.169E-05 alpha_mix =  0.700 |ddv_scf|^2 =  4.656E-07

      iter #   3 total cpu time :  1235.9 secs   av.it.:  11.2
      thresh= 6.824E-05 alpha_mix =  0.700 |ddv_scf|^2 =  2.286E-09

      iter #   4 total cpu time :  1238.5 secs   av.it.:  11.6
      thresh= 4.781E-06 alpha_mix =  0.700 |ddv_scf|^2 =  2.407E-10

      iter #   5 total cpu time :  1240.1 secs   av.it.:  11.6
      thresh= 1.551E-06 alpha_mix =  0.700 |ddv_scf|^2 =  1.836E-12

      iter #   6 total cpu time :  1241.7 secs   av.it.:  11.8
      thresh= 1.355E-07 alpha_mix =  0.700 |ddv_scf|^2 =  4.888E-14

      iter #   7 total cpu time :  1243.3 secs   av.it.:  11.5
      thresh= 2.211E-08 alpha_mix =  0.700 |ddv_scf|^2 =  2.861E-15

      iter #   8 total cpu time :  1244.9 secs   av.it.:  11.5
      thresh= 5.349E-09 alpha_mix =  0.700 |ddv_scf|^2 =  2.215E-17

     End of self-consistent calculation

     Convergence has been achieved 
 
     Number of q in the star =   12
     List of q in the star:
          1  -0.333333333  -1.000000000   0.000000000
          2   0.000000000  -1.000000000  -0.333333333
          3   0.000000000  -1.000000000   0.333333333
          4   0.333333333  -1.000000000   0.000000000
          5  -1.000000000   0.000000000  -0.333333333
          6   1.000000000   0.000000000   0.333333333
          7   0.000000000   0.333333333   1.000000000
          8   0.000000000  -0.333333333  -1.000000000
          9  -1.000000000  -0.333333333   0.000000000
         10   1.000000000   0.333333333   0.000000000
         11  -0.333333333   0.000000000   1.000000000
         12   0.333333333   0.000000000   1.000000000

     Diagonalizing the dynamical matrix

     q = (   -0.333333333  -1.000000000   0.000000000 ) 

 **************************************************************************
     freq (    1) =       5.585537 [THz] =     186.313454 [cm-1]
     freq (    2) =       5.585537 [THz] =     186.313454 [cm-1]
     freq (    3) =      10.836512 [THz] =     361.467145 [cm-1]
     freq (    4) =      10.836512 [THz] =     361.467145 [cm-1]
     freq (    5) =      13.720736 [THz] =     457.674501 [cm-1]
     freq (    6) =      13.720736 [THz] =     457.674501 [cm-1]
 **************************************************************************
 
     init_run     :      0.75s CPU      0.98s WALL (      15 calls)
     electrons    :     43.20s CPU     45.73s WALL (      15 calls)

     Called by init_run:
     wfcinit      :      0.00s CPU      0.16s WALL (      15 calls)
     potinit      :      0.12s CPU      0.17s WALL (      15 calls)

     Called by electrons:
     c_bands      :     43.19s CPU     45.71s WALL (      15 calls)
     v_of_rho     :      0.03s CPU      0.04s WALL (      16 calls)
     newd         :      0.06s CPU      0.07s WALL (      16 calls)

     Called by c_bands:
     init_us_2    :      1.67s CPU      2.00s WALL (   85138 calls)
     cegterg      :     17.37s CPU     18.08s WALL (    2692 calls)

     Called by sum_band:

     Called by *egterg:
     h_psi        :     13.28s CPU     13.88s WALL (   38925 calls)
     s_psi        :     21.27s CPU     23.36s WALL ( 1792629 calls)
     g_psi        :      0.08s CPU      0.08s WALL (   33541 calls)
     cdiaghg      :      2.82s CPU      2.99s WALL (   36233 calls)

     Called by h_psi:
     add_vuspsi   :     12.51s CPU     13.72s WALL (  878218 calls)

     General routines
     calbec       :     56.84s CPU     62.66s WALL ( 1929595 calls)
     fft          :      1.78s CPU      1.80s WALL (   15555 calls)
     ffts         :      3.02s CPU      3.08s WALL (   10518 calls)
     fftw         :    230.02s CPU    252.65s WALL ( 7851958 calls)
     interpolate  :      0.55s CPU      0.56s WALL (    1794 calls)
     davcio       :     14.58s CPU     19.77s WALL (  383081 calls)
 
     Parallel routines
     fft_scatter  :    131.38s CPU    145.12s WALL ( 7878031 calls)
 
     PHONON       : 18m37.85s CPU    20m45.66s WALL

     INITIALIZATION: 
     phq_setup    :      0.18s CPU      0.48s WALL (      16 calls)
     phq_init     :     37.33s CPU     38.18s WALL (      16 calls)
 
     phq_init     :     37.33s CPU     38.18s WALL (      16 calls)
     set_drhoc    :      0.58s CPU      0.60s WALL (      48 calls)
     init_vloc    :      0.02s CPU      0.02s WALL (      16 calls)
     init_us_1    :      0.45s CPU      0.44s WALL (      16 calls)
     newd         :      0.06s CPU      0.07s WALL (      16 calls)
     dvanqq       :      0.50s CPU      0.51s WALL (      16 calls)
     drho         :     26.23s CPU     26.60s WALL (      16 calls)
 
     DYNAMICAL MATRIX:
     dynmat0      :      1.74s CPU      1.95s WALL (      16 calls)
     phqscf       :    999.26s CPU   1088.41s WALL (      16 calls)
     dynmatrix    :      0.44s CPU      0.98s WALL (      16 calls)
 
     phqscf       :    999.26s CPU   1088.41s WALL (      16 calls)
     solve_linter :    996.79s CPU   1080.99s WALL (      76 calls)
     drhodv       :      2.18s CPU      2.64s WALL (      76 calls)
 
     dynmat0      :      1.74s CPU      1.95s WALL (      16 calls)
     dynmat_us    :      1.28s CPU      1.37s WALL (      16 calls)
     d2ionq       :      0.01s CPU      0.01s WALL (      16 calls)
     dynmatcc     :      0.42s CPU      0.43s WALL (      16 calls)
 
     dynmat_us    :      1.28s CPU      1.37s WALL (      16 calls)
     addusdynmat  :      0.00s CPU      0.00s WALL (      16 calls)
 
     phqscf       :    999.26s CPU   1088.41s WALL (      16 calls)
     solve_linter :    996.79s CPU   1080.99s WALL (      76 calls)
 
     solve_linter :    996.79s CPU   1080.99s WALL (      76 calls)
     dvqpsi_us    :      7.82s CPU      8.17s WALL (    8172 calls)
     ortho        :      5.23s CPU      5.73s WALL (   75094 calls)
     cgsolve      :    338.59s CPU    372.96s WALL (   75094 calls)
     incdrhoscf   :     25.17s CPU     27.09s WALL (   75094 calls)
     addusddens   :      3.50s CPU      3.59s WALL (     750 calls)
     vpsifft      :     16.87s CPU     18.63s WALL (   66778 calls)
     dv_of_drho   :      1.04s CPU      1.03s WALL (     835 calls)
     mix_pot      :      1.74s CPU     12.02s WALL (     681 calls)
     psymdvscf    :     10.52s CPU     10.52s WALL (     674 calls)
     newdq        :      3.51s CPU      3.59s WALL (     681 calls)
     adddvscf     :      1.34s CPU      1.49s WALL (   66922 calls)
     drhodvus     :      0.04s CPU      0.04s WALL (      76 calls)
 
     dvqpsi_us    :      7.82s CPU      8.17s WALL (    8172 calls)
     dvqpsi_us_on :      2.78s CPU      2.93s WALL (    8172 calls)
 
     cgsolve      :    338.59s CPU    372.96s WALL (   75094 calls)
     ch_psi       :    311.70s CPU    343.55s WALL (  839293 calls)
 
     ch_psi       :    311.70s CPU    343.55s WALL (  839293 calls)
     h_psiq       :    256.99s CPU    283.39s WALL (  839293 calls)
     last         :     51.82s CPU     56.99s WALL (  839293 calls)
 
     h_psiq       :    256.99s CPU    283.39s WALL (  839293 calls)
     firstfft     :    106.94s CPU    118.67s WALL ( 3149519 calls)
     secondfft    :     93.13s CPU    101.34s WALL ( 3149519 calls)
     add_vuspsi   :     12.51s CPU     13.72s WALL (  878218 calls)
 
     incdrhoscf   :     25.17s CPU     27.09s WALL (   75094 calls)
     addusdbec    :      3.17s CPU      3.46s WALL (   83218 calls)
 
     drhodvus     :      0.04s CPU      0.04s WALL (      76 calls)
 
      General routines
     calbec       :     56.84s CPU     62.66s WALL ( 1929595 calls)
     fft          :      1.78s CPU      1.80s WALL (   15555 calls)
     ffts         :      3.02s CPU      3.08s WALL (   10518 calls)
     fftw         :    230.02s CPU    252.65s WALL ( 7851958 calls)
     davcio       :     14.58s CPU     19.77s WALL (  383081 calls)
     write_rec    :      1.30s CPU     35.26s WALL (     757 calls)
 
 
     PHONON       : 18m37.85s CPU    20m45.66s WALL

 
   This run was terminated on:  13:37:59   7Apr2018            

=------------------------------------------------------------------------------=
   JOB DONE.
=------------------------------------------------------------------------------=
Application 30445817 resources: utime ~451643s, stime ~14826s, Rss ~33176, inblocks ~1042791833, outblocks ~477519559
