
     Program PHONON v.5.4.0 starts on  7Apr2018 at 14:45: 3 

     This program is part of the open-source Quantum ESPRESSO suite
     for quantum simulation of materials; please cite
         "P. Giannozzi et al., J. Phys.:Condens. Matter 21 395502 (2009);
          URL http://www.quantum-espresso.org", 
     in publications or presentations arising from this work. More details at
     http://www.quantum-espresso.org/quote

     Parallel version (MPI & OpenMP), running on     384 processor cores
     Number of MPI processes:               384
     Threads/MPI process:                     1
     K-points division:     npool     =      24
     R & G space division:  proc/nbgrp/npool/nimage =      16

     Reading data from directory:
     ./silicon/silicon.10.352.save

   Info: using nr1, nr2, nr3 values from input

   Info: using nr1, nr2, nr3 values from input

     IMPORTANT: XC functional enforced from input :
     Exchange-correlation      = SLA  PW   PBE  PBE ( 1  4  3  4 0 0)
     Any further DFT definition will be discarded
     Please, verify this is what you really want

 
     Parallelization info
     --------------------
     sticks:   dense  smooth     PW     G-vecs:    dense   smooth      PW
     Min          55      27      9                 1090      380      76
     Max          57      28     10                 1091      395      79
     Sum         889     439    151                17453     6183    1243
 


     Dynamical matrices for ( 6, 6, 6)  uniform grid of q-points
     (  16q-points):
       N         xq(1)         xq(2)         xq(3) 
       1   0.000000000   0.000000000   0.000000000
       2  -0.166666667   0.166666667  -0.166666667
       3  -0.333333333   0.333333333  -0.333333333
       4   0.500000000  -0.500000000   0.500000000
       5   0.000000000   0.333333333   0.000000000
       6  -0.166666667   0.500000000  -0.166666667
       7   0.666666667  -0.333333333   0.666666667
       8   0.500000000  -0.166666667   0.500000000
       9   0.333333333   0.000000000   0.333333333
      10   0.000000000   0.666666667   0.000000000
      11   0.833333333  -0.166666667   0.833333333
      12   0.666666667  -0.000000000   0.666666667
      13   0.000000000  -1.000000000   0.000000000
      14   0.666666667  -0.333333333   1.000000000
      15   0.500000000  -0.166666667   0.833333333
      16  -0.333333333  -1.000000000   0.000000000

     Calculation of q =    0.0000000   0.0000000   0.0000000

                                                                                

     bravais-lattice index     =            2
     lattice parameter (alat)  =      10.3520  a.u.
     unit-cell volume          =     277.3402 (a.u.)^3
     number of atoms/cell      =            2
     number of atomic types    =            1
     kinetic-energy cut-off    =      30.0000  Ry
     charge density cut-off    =     240.0000  Ry
     convergence threshold     =      1.0E-16
     beta                      =       0.7000
     number of iterations used =            4
     Exchange-correlation      = SLA  PW   PBE  PBE ( 1  4  3  4 0 0)


     celldm(1)=   10.35200  celldm(2)=    0.00000  celldm(3)=    0.00000
     celldm(4)=    0.00000  celldm(5)=    0.00000  celldm(6)=    0.00000

     crystal axes: (cart. coord. in units of alat)
               a(1) = ( -0.5000  0.0000  0.5000 )  
               a(2) = (  0.0000  0.5000  0.5000 )  
               a(3) = ( -0.5000  0.5000  0.0000 )  

     reciprocal axes: (cart. coord. in units 2 pi/alat)
               b(1) = ( -1.0000 -1.0000  1.0000 )  
               b(2) = (  1.0000  1.0000  1.0000 )  
               b(3) = ( -1.0000  1.0000 -1.0000 )  


     Atoms inside the unit cell: 

     Cartesian axes

     site n.  atom      mass           positions (alat units)
        1     Si  28.0860   tau(    1) = (    0.00000    0.00000    0.00000  )
        2     Si  28.0860   tau(    2) = (    0.25000    0.25000    0.25000  )

     Computing dynamical matrix for 
                    q = (   0.0000000   0.0000000   0.0000000 )
 
     49 Sym.Ops. (with q -> -q+G )


     G cutoff =  651.4784  (   1091 G-vectors)     FFT grid: ( 40, 40, 40)
     G cutoff =  325.7392  (    387 G-vectors)  smooth grid: ( 25, 25, 25)
     number of k points=   182

     PseudoPot. # 1 for Si read from file:
     ./si_pbe_v1.uspp.F.UPF.txt
     MD5 check sum: a056efeee980c13900f22a371efd63c1
     Pseudo is Ultrasoft + core correction, Zval =  4.0
     Generated by new atomic code, or converted to UPF format
     Using radial grid of  899 points,  6 beta functions with: 
                l(1) =   0
                l(2) =   0
                l(3) =   1
                l(4) =   1
                l(5) =   2
                l(6) =   2
     Q(r) pseudized with  8 coefficients,  rinner =    0.900   0.900   0.900
                                                       0.900   0.900

     Mode symmetry, O_h (m-3m)  point group:


     Electric field:
     Dielectric constant
     Born effective charges in two ways 


     Atomic displacements:
     There are   2 irreducible representations

     Representation     1      3 modes -T_2g G_25' G_5+  To be done

     Representation     2      3 modes -T_1u G_15  G_4-  To be done



     Alpha used in Ewald sum =   2.5000
     PHONON       :     2.44s CPU         5.52s WALL


     Electric Fields Calculation

      iter #   1 total cpu time :     6.3 secs   av.it.:   6.5
      thresh= 1.000E-02 alpha_mix =  0.700 |ddv_scf|^2 =  6.799E-08

      iter #   2 total cpu time :     7.6 secs   av.it.:  12.2
      thresh= 2.608E-05 alpha_mix =  0.700 |ddv_scf|^2 =  3.934E-09

      iter #   3 total cpu time :     8.8 secs   av.it.:  12.1
      thresh= 6.272E-06 alpha_mix =  0.700 |ddv_scf|^2 =  2.546E-10

      iter #   4 total cpu time :     9.8 secs   av.it.:  11.3
      thresh= 1.596E-06 alpha_mix =  0.700 |ddv_scf|^2 =  1.678E-12

      iter #   5 total cpu time :    10.6 secs   av.it.:  11.5
      thresh= 1.295E-07 alpha_mix =  0.700 |ddv_scf|^2 =  1.602E-15

      iter #   6 total cpu time :    11.8 secs   av.it.:  11.3
      thresh= 4.002E-09 alpha_mix =  0.700 |ddv_scf|^2 =  1.057E-16

      iter #   7 total cpu time :    12.5 secs   av.it.:  11.9
      thresh= 1.028E-09 alpha_mix =  0.700 |ddv_scf|^2 =  1.680E-19

     End of electric fields calculation

          Dielectric constant in cartesian axis 

          (      13.002194410       0.000000000      -0.000000000 )
          (       0.000000000      13.002194410       0.000000000 )
          (      -0.000000000       0.000000000      13.002194410 )

          Effective charges (d Force / dE) in cartesian axis

           atom      1   Si 
      Ex  (        0.01986        0.00000        0.00000 )
      Ey  (        0.00000        0.01986       -0.00000 )
      Ez  (        0.00000       -0.00000        0.01986 )
           atom      2   Si 
      Ex  (        0.01986        0.00000        0.00000 )
      Ey  (        0.00000        0.01986       -0.00000 )
      Ez  (        0.00000       -0.00000        0.01986 )


     Representation #  1 modes #   1  2  3

     Self-consistent Calculation

      iter #   1 total cpu time :    14.2 secs   av.it.:   5.1
      thresh= 1.000E-02 alpha_mix =  0.700 |ddv_scf|^2 =  1.188E-08

      iter #   2 total cpu time :    15.2 secs   av.it.:  12.0
      thresh= 1.090E-05 alpha_mix =  0.700 |ddv_scf|^2 =  4.864E-10

      iter #   3 total cpu time :    15.9 secs   av.it.:  11.8
      thresh= 2.205E-06 alpha_mix =  0.700 |ddv_scf|^2 =  3.304E-11

      iter #   4 total cpu time :    16.9 secs   av.it.:  11.0
      thresh= 5.748E-07 alpha_mix =  0.700 |ddv_scf|^2 =  8.251E-14

      iter #   5 total cpu time :    18.1 secs   av.it.:  11.9
      thresh= 2.872E-08 alpha_mix =  0.700 |ddv_scf|^2 =  7.049E-16

      iter #   6 total cpu time :    20.9 secs   av.it.:  11.8
      thresh= 2.655E-09 alpha_mix =  0.700 |ddv_scf|^2 =  1.195E-17

     End of self-consistent calculation

     Convergence has been achieved 


     Representation #  2 modes #   4  5  6

     Self-consistent Calculation

      iter #   1 total cpu time :    22.4 secs   av.it.:   5.2
      thresh= 1.000E-02 alpha_mix =  0.700 |ddv_scf|^2 =  9.380E-09

      iter #   2 total cpu time :    23.2 secs   av.it.:  12.0
      thresh= 9.685E-06 alpha_mix =  0.700 |ddv_scf|^2 =  5.520E-10

      iter #   3 total cpu time :    24.2 secs   av.it.:  11.8
      thresh= 2.349E-06 alpha_mix =  0.700 |ddv_scf|^2 =  3.423E-11

      iter #   4 total cpu time :    25.1 secs   av.it.:  11.8
      thresh= 5.851E-07 alpha_mix =  0.700 |ddv_scf|^2 =  1.334E-13

      iter #   5 total cpu time :    25.7 secs   av.it.:  11.7
      thresh= 3.652E-08 alpha_mix =  0.700 |ddv_scf|^2 =  3.494E-16

      iter #   6 total cpu time :    26.3 secs   av.it.:  12.0
      thresh= 1.869E-09 alpha_mix =  0.700 |ddv_scf|^2 =  2.907E-17

     End of self-consistent calculation

     Convergence has been achieved 
 
     Number of q in the star =    1
     List of q in the star:
          1   0.000000000   0.000000000   0.000000000

          Dielectric constant in cartesian axis 

          (      13.002194410       0.000000000      -0.000000000 )
          (       0.000000000      13.002194410       0.000000000 )
          (      -0.000000000       0.000000000      13.002194410 )

          Effective charges (d Force / dE) in cartesian axis

           atom      1   Si 
      Ex  (        0.01986        0.00000        0.00000 )
      Ey  (        0.00000        0.01986       -0.00000 )
      Ez  (        0.00000       -0.00000        0.01986 )
           atom      2   Si 
      Ex  (        0.01986        0.00000        0.00000 )
      Ey  (        0.00000        0.01986       -0.00000 )
      Ez  (        0.00000       -0.00000        0.01986 )

          Effective charges (d P / du) in cartesian axis 

           atom      1   Si 
      Px  (       -0.00051       -0.00000        0.00000 )
      Py  (        0.00000       -0.00051        0.00000 )
      Pz  (        0.00000        0.00000       -0.00051 )
           atom      2   Si 
      Px  (       -0.00051        0.00000       -0.00000 )
      Py  (        0.00000       -0.00051       -0.00000 )
      Pz  (       -0.00000       -0.00000       -0.00051 )

     Diagonalizing the dynamical matrix

     q = (    0.000000000   0.000000000   0.000000000 ) 

 **************************************************************************
     freq (    1) =      -0.122618 [THz] =      -4.090096 [cm-1]
     freq (    2) =      -0.122618 [THz] =      -4.090096 [cm-1]
     freq (    3) =      -0.122618 [THz] =      -4.090096 [cm-1]
     freq (    4) =      15.000632 [THz] =     500.367239 [cm-1]
     freq (    5) =      15.000632 [THz] =     500.367239 [cm-1]
     freq (    6) =      15.000632 [THz] =     500.367239 [cm-1]
 **************************************************************************

     Mode symmetry, O_h (m-3m)  point group:

     freq (  1 -  3) =         -4.1  [cm-1]   --> T_1u G_15  G_4- I  
     freq (  4 -  6) =        500.4  [cm-1]   --> T_2g G_25' G_5+ R  

     Calculation of q =   -0.1666667   0.1666667  -0.1666667
 
     Parallelization info
     --------------------
     sticks:   dense  smooth     PW     G-vecs:    dense   smooth      PW
     Min          55      27     10                 1090      380      84
     Max          57      28     11                 1091      392      86
     Sum         889     439    163                17453     6183    1363
 


     bravais-lattice index     =            2
     lattice parameter (alat)  =      10.3520  a.u.
     unit-cell volume          =     277.3402 (a.u.)^3
     number of atoms/cell      =            2
     number of atomic types    =            1
     number of electrons       =         8.00
     number of Kohn-Sham states=            4
     kinetic-energy cutoff     =      30.0000  Ry
     charge density cutoff     =     240.0000  Ry
     Exchange-correlation      = SLA  PW   PBE  PBE ( 1  4  3  4 0 0)

     celldm(1)=  10.352000  celldm(2)=   0.000000  celldm(3)=   0.000000
     celldm(4)=   0.000000  celldm(5)=   0.000000  celldm(6)=   0.000000

     crystal axes: (cart. coord. in units of alat)
               a(1) = (  -0.500000   0.000000   0.500000 )  
               a(2) = (   0.000000   0.500000   0.500000 )  
               a(3) = (  -0.500000   0.500000   0.000000 )  

     reciprocal axes: (cart. coord. in units 2 pi/alat)
               b(1) = ( -1.000000 -1.000000  1.000000 )  
               b(2) = (  1.000000  1.000000  1.000000 )  
               b(3) = ( -1.000000  1.000000 -1.000000 )  


     PseudoPot. # 1 for Si read from file:
     ./si_pbe_v1.uspp.F.UPF.txt
     MD5 check sum: a056efeee980c13900f22a371efd63c1
     Pseudo is Ultrasoft + core correction, Zval =  4.0
     Generated by new atomic code, or converted to UPF format
     Using radial grid of  899 points,  6 beta functions with: 
                l(1) =   0
                l(2) =   0
                l(3) =   1
                l(4) =   1
                l(5) =   2
                l(6) =   2
     Q(r) pseudized with  8 coefficients,  rinner =    0.900   0.900   0.900
                                                       0.900   0.900

     atomic species   valence    mass     pseudopotential
        Si             4.00    28.08600     Si( 1.00)

     48 Sym. Ops., with inversion, found



   Cartesian axes

     site n.     atom                  positions (alat units)
         1           Si  tau(   1) = (   0.0000000   0.0000000   0.0000000  )
         2           Si  tau(   2) = (   0.2500000   0.2500000   0.2500000  )

     number of k points=  2600

     Number of k-points >= 100: set verbosity='high' to print them.

     Dense  grid:    17453 G-vectors     FFT dimensions: (  40,  40,  40)

     Smooth grid:     6183 G-vectors     FFT dimensions: (  25,  25,  25)

     Largest allocated arrays     est. size (Mb)     dimensions
        Kohn-Sham Wavefunctions         0.00 Mb     (      58,    4)
        NL pseudopotentials             0.03 Mb     (      58,   36)
        Each V/rho on FFT grid          0.07 Mb     (    4800)
        Each G-vector array             0.01 Mb     (    1091)
        G-vector shells                 0.00 Mb     (     208)
     Largest temporary arrays     est. size (Mb)     dimensions
        Auxiliary wavefunctions         0.01 Mb     (      58,   16)
        Each subspace H/S matrix        0.00 Mb     (       8,    8)
        Each <psi_i|beta_j> matrix      0.00 Mb     (      36,    4)

     The potential is recalculated from file :
     ./silicon/_ph0/silicon.10.352.save/charge-density.dat

     Starting wfc are    8 atomic wfcs

     Band Structure Calculation
     Davidson diagonalization with overlap

     ethr =  1.25E-10,  avg # of iterations = 12.4

     total cpu time spent up to now is        1.5 secs

     End of band structure calculation

     Number of k-points >= 100: set verbosity='high' to print the bands.

     highest occupied level (ev):     5.8857

     Writing output data file silicon.10.352.save

                                                                                

     bravais-lattice index     =            2
     lattice parameter (alat)  =      10.3520  a.u.
     unit-cell volume          =     277.3402 (a.u.)^3
     number of atoms/cell      =            2
     number of atomic types    =            1
     kinetic-energy cut-off    =      30.0000  Ry
     charge density cut-off    =     240.0000  Ry
     convergence threshold     =      1.0E-16
     beta                      =       0.7000
     number of iterations used =            4
     Exchange-correlation      = SLA  PW   PBE  PBE ( 1  4  3  4 0 0)


     celldm(1)=   10.35200  celldm(2)=    0.00000  celldm(3)=    0.00000
     celldm(4)=    0.00000  celldm(5)=    0.00000  celldm(6)=    0.00000

     crystal axes: (cart. coord. in units of alat)
               a(1) = ( -0.5000  0.0000  0.5000 )  
               a(2) = (  0.0000  0.5000  0.5000 )  
               a(3) = ( -0.5000  0.5000  0.0000 )  

     reciprocal axes: (cart. coord. in units 2 pi/alat)
               b(1) = ( -1.0000 -1.0000  1.0000 )  
               b(2) = (  1.0000  1.0000  1.0000 )  
               b(3) = ( -1.0000  1.0000 -1.0000 )  


     Atoms inside the unit cell: 

     Cartesian axes

     site n.  atom      mass           positions (alat units)
        1     Si  28.0860   tau(    1) = (    0.00000    0.00000    0.00000  )
        2     Si  28.0860   tau(    2) = (    0.25000    0.25000    0.25000  )

     Computing dynamical matrix for 
                    q = (  -0.1666667   0.1666667  -0.1666667 )
 
      6 Sym.Ops. (no q -> -q+G )


     G cutoff =  651.4784  (   1091 G-vectors)     FFT grid: ( 40, 40, 40)
     G cutoff =  325.7392  (    386 G-vectors)  smooth grid: ( 25, 25, 25)
     number of k points=  2600

     PseudoPot. # 1 for Si read from file:
     ./si_pbe_v1.uspp.F.UPF.txt
     MD5 check sum: a056efeee980c13900f22a371efd63c1
     Pseudo is Ultrasoft + core correction, Zval =  4.0
     Generated by new atomic code, or converted to UPF format
     Using radial grid of  899 points,  6 beta functions with: 
                l(1) =   0
                l(2) =   0
                l(3) =   1
                l(4) =   1
                l(5) =   2
                l(6) =   2
     Q(r) pseudized with  8 coefficients,  rinner =    0.900   0.900   0.900
                                                       0.900   0.900

     Mode symmetry, C_3v (3m)   point group:


     Atomic displacements:
     There are   4 irreducible representations

     Representation     1      1 modes -A_1  L_1  To be done

     Representation     2      1 modes -A_1  L_1  To be done

     Representation     3      2 modes -E    L_3  To be done

     Representation     4      2 modes -E    L_3  To be done



     Alpha used in Ewald sum =   2.5000
     PHONON       :    24.39s CPU        31.50s WALL



     Representation #  1 mode #   1

     Self-consistent Calculation

      iter #   1 total cpu time :    32.9 secs   av.it.:   6.1
      thresh= 1.000E-02 alpha_mix =  0.700 |ddv_scf|^2 =  9.728E-04

      iter #   2 total cpu time :    33.7 secs   av.it.:   9.2
      thresh= 3.119E-03 alpha_mix =  0.700 |ddv_scf|^2 =  3.031E-02

      iter #   3 total cpu time :    34.2 secs   av.it.:   7.2
      thresh= 1.000E-02 alpha_mix =  0.700 |ddv_scf|^2 =  3.076E-07

      iter #   4 total cpu time :    34.8 secs   av.it.:   9.8
      thresh= 5.546E-05 alpha_mix =  0.700 |ddv_scf|^2 =  5.736E-09

      iter #   5 total cpu time :    36.1 secs   av.it.:  10.5
      thresh= 7.574E-06 alpha_mix =  0.700 |ddv_scf|^2 =  8.310E-10

      iter #   6 total cpu time :    36.8 secs   av.it.:   9.6
      thresh= 2.883E-06 alpha_mix =  0.700 |ddv_scf|^2 =  3.747E-10

      iter #   7 total cpu time :    38.2 secs   av.it.:   7.1
      thresh= 1.936E-06 alpha_mix =  0.700 |ddv_scf|^2 =  5.827E-11

      iter #   8 total cpu time :    39.7 secs   av.it.:   9.1
      thresh= 7.634E-07 alpha_mix =  0.700 |ddv_scf|^2 =  1.066E-12

      iter #   9 total cpu time :    40.6 secs   av.it.:   8.3
      thresh= 1.033E-07 alpha_mix =  0.700 |ddv_scf|^2 =  3.936E-14

      iter #  10 total cpu time :    41.2 secs   av.it.:   9.0
      thresh= 1.984E-08 alpha_mix =  0.700 |ddv_scf|^2 =  9.146E-15

      iter #  11 total cpu time :    42.4 secs   av.it.:   9.3
      thresh= 9.563E-09 alpha_mix =  0.700 |ddv_scf|^2 =  3.841E-16

      iter #  12 total cpu time :    43.4 secs   av.it.:   9.8
      thresh= 1.960E-09 alpha_mix =  0.700 |ddv_scf|^2 =  2.662E-17

     End of self-consistent calculation

     Convergence has been achieved 


     Representation #  2 mode #   2

     Self-consistent Calculation

      iter #   1 total cpu time :    45.9 secs   av.it.:   6.1
      thresh= 1.000E-02 alpha_mix =  0.700 |ddv_scf|^2 =  9.728E-04

      iter #   2 total cpu time :    46.7 secs   av.it.:   9.2
      thresh= 3.119E-03 alpha_mix =  0.700 |ddv_scf|^2 =  3.031E-02

      iter #   3 total cpu time :    47.6 secs   av.it.:   7.2
      thresh= 1.000E-02 alpha_mix =  0.700 |ddv_scf|^2 =  3.076E-07

      iter #   4 total cpu time :    48.5 secs   av.it.:   9.8
      thresh= 5.546E-05 alpha_mix =  0.700 |ddv_scf|^2 =  5.736E-09

      iter #   5 total cpu time :    50.0 secs   av.it.:  10.5
      thresh= 7.574E-06 alpha_mix =  0.700 |ddv_scf|^2 =  8.310E-10

      iter #   6 total cpu time :    50.8 secs   av.it.:   9.6
      thresh= 2.883E-06 alpha_mix =  0.700 |ddv_scf|^2 =  3.747E-10

      iter #   7 total cpu time :    51.7 secs   av.it.:   7.1
      thresh= 1.936E-06 alpha_mix =  0.700 |ddv_scf|^2 =  5.827E-11

      iter #   8 total cpu time :    53.0 secs   av.it.:   9.1
      thresh= 7.634E-07 alpha_mix =  0.700 |ddv_scf|^2 =  1.066E-12

      iter #   9 total cpu time :    54.5 secs   av.it.:   8.3
      thresh= 1.033E-07 alpha_mix =  0.700 |ddv_scf|^2 =  3.936E-14

      iter #  10 total cpu time :    55.5 secs   av.it.:   9.0
      thresh= 1.984E-08 alpha_mix =  0.700 |ddv_scf|^2 =  9.146E-15

      iter #  11 total cpu time :    56.0 secs   av.it.:   9.3
      thresh= 9.563E-09 alpha_mix =  0.700 |ddv_scf|^2 =  3.841E-16

      iter #  12 total cpu time :    57.2 secs   av.it.:   9.8
      thresh= 1.960E-09 alpha_mix =  0.700 |ddv_scf|^2 =  2.662E-17

     End of self-consistent calculation

     Convergence has been achieved 


     Representation #  3 modes #   3  4

     Self-consistent Calculation

      iter #   1 total cpu time :    58.2 secs   av.it.:   5.3
      thresh= 1.000E-02 alpha_mix =  0.700 |ddv_scf|^2 =  2.887E-08

      iter #   2 total cpu time :    59.9 secs   av.it.:  11.8
      thresh= 1.699E-05 alpha_mix =  0.700 |ddv_scf|^2 =  1.631E-09

      iter #   3 total cpu time :    61.2 secs   av.it.:  11.6
      thresh= 4.039E-06 alpha_mix =  0.700 |ddv_scf|^2 =  9.890E-11

      iter #   4 total cpu time :    62.9 secs   av.it.:  11.3
      thresh= 9.945E-07 alpha_mix =  0.700 |ddv_scf|^2 =  4.281E-13

      iter #   5 total cpu time :    65.0 secs   av.it.:  11.7
      thresh= 6.543E-08 alpha_mix =  0.700 |ddv_scf|^2 =  2.809E-14

      iter #   6 total cpu time :    66.4 secs   av.it.:  11.6
      thresh= 1.676E-08 alpha_mix =  0.700 |ddv_scf|^2 =  1.651E-16

      iter #   7 total cpu time :    67.8 secs   av.it.:  11.0
      thresh= 1.285E-09 alpha_mix =  0.700 |ddv_scf|^2 =  1.399E-17

     End of self-consistent calculation

     Convergence has been achieved 


     Representation #  4 modes #   5  6

     Self-consistent Calculation

      iter #   1 total cpu time :    69.0 secs   av.it.:   5.3
      thresh= 1.000E-02 alpha_mix =  0.700 |ddv_scf|^2 =  2.888E-08

      iter #   2 total cpu time :    70.3 secs   av.it.:  12.0
      thresh= 1.699E-05 alpha_mix =  0.700 |ddv_scf|^2 =  1.632E-09

      iter #   3 total cpu time :    71.6 secs   av.it.:  11.9
      thresh= 4.039E-06 alpha_mix =  0.700 |ddv_scf|^2 =  9.890E-11

      iter #   4 total cpu time :    73.0 secs   av.it.:  11.6
      thresh= 9.945E-07 alpha_mix =  0.700 |ddv_scf|^2 =  4.280E-13

      iter #   5 total cpu time :    74.6 secs   av.it.:  11.9
      thresh= 6.542E-08 alpha_mix =  0.700 |ddv_scf|^2 =  2.806E-14

      iter #   6 total cpu time :    75.9 secs   av.it.:  11.8
      thresh= 1.675E-08 alpha_mix =  0.700 |ddv_scf|^2 =  1.647E-16

      iter #   7 total cpu time :    77.7 secs   av.it.:  11.1
      thresh= 1.283E-09 alpha_mix =  0.700 |ddv_scf|^2 =  1.395E-17

     End of self-consistent calculation

     Convergence has been achieved 
 
     Number of q in the star =    8
     List of q in the star:
          1  -0.166666667   0.166666667  -0.166666667
          2   0.166666667   0.166666667   0.166666667
          3  -0.166666667  -0.166666667  -0.166666667
          4   0.166666667  -0.166666667   0.166666667
          5   0.166666667  -0.166666667  -0.166666667
          6   0.166666667   0.166666667  -0.166666667
          7  -0.166666667  -0.166666667   0.166666667
          8  -0.166666667   0.166666667   0.166666667

     Diagonalizing the dynamical matrix

     q = (   -0.166666667   0.166666667  -0.166666667 ) 

 **************************************************************************
     freq (    1) =       2.229877 [THz] =      74.380697 [cm-1]
     freq (    2) =       2.229877 [THz] =      74.380697 [cm-1]
     freq (    3) =       4.624366 [THz] =     154.252255 [cm-1]
     freq (    4) =      14.618338 [THz] =     487.615275 [cm-1]
     freq (    5) =      14.631724 [THz] =     488.061789 [cm-1]
     freq (    6) =      14.631724 [THz] =     488.061789 [cm-1]
 **************************************************************************

     Mode symmetry, C_3v (3m)   point group:

     freq (  1 -  2) =         74.4  [cm-1]   --> E    L_3           
     freq (  3 -  3) =        154.3  [cm-1]   --> A_1  L_1           
     freq (  4 -  4) =        487.6  [cm-1]   --> A_1  L_1           
     freq (  5 -  6) =        488.1  [cm-1]   --> E    L_3           

     Calculation of q =   -0.3333333   0.3333333  -0.3333333
 
     Parallelization info
     --------------------
     sticks:   dense  smooth     PW     G-vecs:    dense   smooth      PW
     Min          55      27     10                 1090      380      87
     Max          57      28     11                 1091      391      90
     Sum         889     439    163                17453     6183    1411
 


     bravais-lattice index     =            2
     lattice parameter (alat)  =      10.3520  a.u.
     unit-cell volume          =     277.3402 (a.u.)^3
     number of atoms/cell      =            2
     number of atomic types    =            1
     number of electrons       =         8.00
     number of Kohn-Sham states=            4
     kinetic-energy cutoff     =      30.0000  Ry
     charge density cutoff     =     240.0000  Ry
     Exchange-correlation      = SLA  PW   PBE  PBE ( 1  4  3  4 0 0)

     celldm(1)=  10.352000  celldm(2)=   0.000000  celldm(3)=   0.000000
     celldm(4)=   0.000000  celldm(5)=   0.000000  celldm(6)=   0.000000

     crystal axes: (cart. coord. in units of alat)
               a(1) = (  -0.500000   0.000000   0.500000 )  
               a(2) = (   0.000000   0.500000   0.500000 )  
               a(3) = (  -0.500000   0.500000   0.000000 )  

     reciprocal axes: (cart. coord. in units 2 pi/alat)
               b(1) = ( -1.000000 -1.000000  1.000000 )  
               b(2) = (  1.000000  1.000000  1.000000 )  
               b(3) = ( -1.000000  1.000000 -1.000000 )  


     PseudoPot. # 1 for Si read from file:
     ./si_pbe_v1.uspp.F.UPF.txt
     MD5 check sum: a056efeee980c13900f22a371efd63c1
     Pseudo is Ultrasoft + core correction, Zval =  4.0
     Generated by new atomic code, or converted to UPF format
     Using radial grid of  899 points,  6 beta functions with: 
                l(1) =   0
                l(2) =   0
                l(3) =   1
                l(4) =   1
                l(5) =   2
                l(6) =   2
     Q(r) pseudized with  8 coefficients,  rinner =    0.900   0.900   0.900
                                                       0.900   0.900

     atomic species   valence    mass     pseudopotential
        Si             4.00    28.08600     Si( 1.00)

     48 Sym. Ops., with inversion, found



   Cartesian axes

     site n.     atom                  positions (alat units)
         1           Si  tau(   1) = (   0.0000000   0.0000000   0.0000000  )
         2           Si  tau(   2) = (   0.2500000   0.2500000   0.2500000  )

     number of k points=  2600

     Number of k-points >= 100: set verbosity='high' to print them.

     Dense  grid:    17453 G-vectors     FFT dimensions: (  40,  40,  40)

     Smooth grid:     6183 G-vectors     FFT dimensions: (  25,  25,  25)

     Largest allocated arrays     est. size (Mb)     dimensions
        Kohn-Sham Wavefunctions         0.00 Mb     (      56,    4)
        NL pseudopotentials             0.03 Mb     (      56,   36)
        Each V/rho on FFT grid          0.07 Mb     (    4800)
        Each G-vector array             0.01 Mb     (    1091)
        G-vector shells                 0.00 Mb     (     212)
     Largest temporary arrays     est. size (Mb)     dimensions
        Auxiliary wavefunctions         0.01 Mb     (      56,   16)
        Each subspace H/S matrix        0.00 Mb     (       8,    8)
        Each <psi_i|beta_j> matrix      0.00 Mb     (      36,    4)

     The potential is recalculated from file :
     ./silicon/_ph0/silicon.10.352.save/charge-density.dat

     Starting wfc are    8 atomic wfcs

     Band Structure Calculation
     Davidson diagonalization with overlap

     ethr =  1.25E-10,  avg # of iterations = 12.4

     total cpu time spent up to now is        5.5 secs

     End of band structure calculation

     Number of k-points >= 100: set verbosity='high' to print the bands.

     highest occupied level (ev):     5.8857

     Writing output data file silicon.10.352.save

                                                                                

     bravais-lattice index     =            2
     lattice parameter (alat)  =      10.3520  a.u.
     unit-cell volume          =     277.3402 (a.u.)^3
     number of atoms/cell      =            2
     number of atomic types    =            1
     kinetic-energy cut-off    =      30.0000  Ry
     charge density cut-off    =     240.0000  Ry
     convergence threshold     =      1.0E-16
     beta                      =       0.7000
     number of iterations used =            4
     Exchange-correlation      = SLA  PW   PBE  PBE ( 1  4  3  4 0 0)


     celldm(1)=   10.35200  celldm(2)=    0.00000  celldm(3)=    0.00000
     celldm(4)=    0.00000  celldm(5)=    0.00000  celldm(6)=    0.00000

     crystal axes: (cart. coord. in units of alat)
               a(1) = ( -0.5000  0.0000  0.5000 )  
               a(2) = (  0.0000  0.5000  0.5000 )  
               a(3) = ( -0.5000  0.5000  0.0000 )  

     reciprocal axes: (cart. coord. in units 2 pi/alat)
               b(1) = ( -1.0000 -1.0000  1.0000 )  
               b(2) = (  1.0000  1.0000  1.0000 )  
               b(3) = ( -1.0000  1.0000 -1.0000 )  


     Atoms inside the unit cell: 

     Cartesian axes

     site n.  atom      mass           positions (alat units)
        1     Si  28.0860   tau(    1) = (    0.00000    0.00000    0.00000  )
        2     Si  28.0860   tau(    2) = (    0.25000    0.25000    0.25000  )

     Computing dynamical matrix for 
                    q = (  -0.3333333   0.3333333  -0.3333333 )
 
      6 Sym.Ops. (no q -> -q+G )


     G cutoff =  651.4784  (   1091 G-vectors)     FFT grid: ( 40, 40, 40)
     G cutoff =  325.7392  (    388 G-vectors)  smooth grid: ( 25, 25, 25)
     number of k points=  2600

     PseudoPot. # 1 for Si read from file:
     ./si_pbe_v1.uspp.F.UPF.txt
     MD5 check sum: a056efeee980c13900f22a371efd63c1
     Pseudo is Ultrasoft + core correction, Zval =  4.0
     Generated by new atomic code, or converted to UPF format
     Using radial grid of  899 points,  6 beta functions with: 
                l(1) =   0
                l(2) =   0
                l(3) =   1
                l(4) =   1
                l(5) =   2
                l(6) =   2
     Q(r) pseudized with  8 coefficients,  rinner =    0.900   0.900   0.900
                                                       0.900   0.900

     Mode symmetry, C_3v (3m)   point group:


     Atomic displacements:
     There are   4 irreducible representations

     Representation     1      1 modes -A_1  L_1  To be done

     Representation     2      1 modes -A_1  L_1  To be done

     Representation     3      2 modes -E    L_3  To be done

     Representation     4      2 modes -E    L_3  To be done



     Alpha used in Ewald sum =   2.5000
     PHONON       :  1m11.44s CPU     1m26.56s WALL



     Representation #  1 mode #   1

     Self-consistent Calculation

      iter #   1 total cpu time :    87.7 secs   av.it.:   6.0
      thresh= 1.000E-02 alpha_mix =  0.700 |ddv_scf|^2 =  6.220E-05

      iter #   2 total cpu time :    89.2 secs   av.it.:  10.2
      thresh= 7.886E-04 alpha_mix =  0.700 |ddv_scf|^2 =  4.784E-04

      iter #   3 total cpu time :    89.7 secs   av.it.:   8.4
      thresh= 2.187E-03 alpha_mix =  0.700 |ddv_scf|^2 =  9.664E-08

      iter #   4 total cpu time :    90.5 secs   av.it.:  10.5
      thresh= 3.109E-05 alpha_mix =  0.700 |ddv_scf|^2 =  2.276E-09

      iter #   5 total cpu time :    91.1 secs   av.it.:  10.7
      thresh= 4.770E-06 alpha_mix =  0.700 |ddv_scf|^2 =  6.171E-11

      iter #   6 total cpu time :    92.1 secs   av.it.:  10.9
      thresh= 7.855E-07 alpha_mix =  0.700 |ddv_scf|^2 =  3.609E-12

      iter #   7 total cpu time :    92.8 secs   av.it.:  11.0
      thresh= 1.900E-07 alpha_mix =  0.700 |ddv_scf|^2 =  3.643E-12

      iter #   8 total cpu time :    93.3 secs   av.it.:   8.7
      thresh= 1.909E-07 alpha_mix =  0.700 |ddv_scf|^2 =  1.579E-13

      iter #   9 total cpu time :    93.9 secs   av.it.:  10.1
      thresh= 3.974E-08 alpha_mix =  0.700 |ddv_scf|^2 =  2.681E-13

      iter #  10 total cpu time :    94.8 secs   av.it.:   9.2
      thresh= 5.178E-08 alpha_mix =  0.700 |ddv_scf|^2 =  1.849E-15

      iter #  11 total cpu time :    95.4 secs   av.it.:  10.4
      thresh= 4.300E-09 alpha_mix =  0.700 |ddv_scf|^2 =  3.628E-16

      iter #  12 total cpu time :    96.1 secs   av.it.:  10.0
      thresh= 1.905E-09 alpha_mix =  0.700 |ddv_scf|^2 =  9.627E-18

     End of self-consistent calculation

     Convergence has been achieved 


     Representation #  2 mode #   2

     Self-consistent Calculation

      iter #   1 total cpu time :    97.2 secs   av.it.:   6.0
      thresh= 1.000E-02 alpha_mix =  0.700 |ddv_scf|^2 =  6.220E-05

      iter #   2 total cpu time :    97.9 secs   av.it.:  10.2
      thresh= 7.886E-04 alpha_mix =  0.700 |ddv_scf|^2 =  4.784E-04

      iter #   3 total cpu time :    98.4 secs   av.it.:   8.4
      thresh= 2.187E-03 alpha_mix =  0.700 |ddv_scf|^2 =  9.664E-08

      iter #   4 total cpu time :    99.0 secs   av.it.:  10.5
      thresh= 3.109E-05 alpha_mix =  0.700 |ddv_scf|^2 =  2.276E-09

      iter #   5 total cpu time :    99.7 secs   av.it.:  10.7
      thresh= 4.770E-06 alpha_mix =  0.700 |ddv_scf|^2 =  6.171E-11

      iter #   6 total cpu time :   100.4 secs   av.it.:  10.9
      thresh= 7.855E-07 alpha_mix =  0.700 |ddv_scf|^2 =  3.609E-12

      iter #   7 total cpu time :   101.0 secs   av.it.:  11.0
      thresh= 1.900E-07 alpha_mix =  0.700 |ddv_scf|^2 =  3.643E-12

      iter #   8 total cpu time :   101.6 secs   av.it.:   8.7
      thresh= 1.909E-07 alpha_mix =  0.700 |ddv_scf|^2 =  1.579E-13

      iter #   9 total cpu time :   102.7 secs   av.it.:  10.1
      thresh= 3.974E-08 alpha_mix =  0.700 |ddv_scf|^2 =  2.681E-13

      iter #  10 total cpu time :   103.6 secs   av.it.:   9.2
      thresh= 5.178E-08 alpha_mix =  0.700 |ddv_scf|^2 =  1.849E-15

      iter #  11 total cpu time :   104.4 secs   av.it.:  10.4
      thresh= 4.300E-09 alpha_mix =  0.700 |ddv_scf|^2 =  3.628E-16

      iter #  12 total cpu time :   105.5 secs   av.it.:  10.0
      thresh= 1.905E-09 alpha_mix =  0.700 |ddv_scf|^2 =  9.627E-18

     End of self-consistent calculation

     Convergence has been achieved 


     Representation #  3 modes #   3  4

     Self-consistent Calculation

      iter #   1 total cpu time :   108.1 secs   av.it.:   5.2
      thresh= 1.000E-02 alpha_mix =  0.700 |ddv_scf|^2 =  3.763E-08

      iter #   2 total cpu time :   113.1 secs   av.it.:  11.8
      thresh= 1.940E-05 alpha_mix =  0.700 |ddv_scf|^2 =  2.675E-09

      iter #   3 total cpu time :   114.6 secs   av.it.:  11.6
      thresh= 5.172E-06 alpha_mix =  0.700 |ddv_scf|^2 =  1.231E-10

      iter #   4 total cpu time :   116.3 secs   av.it.:  11.3
      thresh= 1.110E-06 alpha_mix =  0.700 |ddv_scf|^2 =  4.420E-13

      iter #   5 total cpu time :   118.7 secs   av.it.:  11.6
      thresh= 6.648E-08 alpha_mix =  0.700 |ddv_scf|^2 =  2.859E-14

      iter #   6 total cpu time :   121.0 secs   av.it.:  11.4
      thresh= 1.691E-08 alpha_mix =  0.700 |ddv_scf|^2 =  2.042E-16

      iter #   7 total cpu time :   123.5 secs   av.it.:  11.0
      thresh= 1.429E-09 alpha_mix =  0.700 |ddv_scf|^2 =  1.424E-17

     End of self-consistent calculation

     Convergence has been achieved 


     Representation #  4 modes #   5  6

     Self-consistent Calculation

      iter #   1 total cpu time :   124.8 secs   av.it.:   5.3
      thresh= 1.000E-02 alpha_mix =  0.700 |ddv_scf|^2 =  3.763E-08

      iter #   2 total cpu time :   127.1 secs   av.it.:  12.1
      thresh= 1.940E-05 alpha_mix =  0.700 |ddv_scf|^2 =  2.675E-09

      iter #   3 total cpu time :   128.4 secs   av.it.:  11.9
      thresh= 5.172E-06 alpha_mix =  0.700 |ddv_scf|^2 =  1.231E-10

      iter #   4 total cpu time :   129.6 secs   av.it.:  11.5
      thresh= 1.109E-06 alpha_mix =  0.700 |ddv_scf|^2 =  4.422E-13

      iter #   5 total cpu time :   131.4 secs   av.it.:  11.8
      thresh= 6.650E-08 alpha_mix =  0.700 |ddv_scf|^2 =  2.860E-14

      iter #   6 total cpu time :   132.7 secs   av.it.:  11.6
      thresh= 1.691E-08 alpha_mix =  0.700 |ddv_scf|^2 =  2.037E-16

      iter #   7 total cpu time :   133.9 secs   av.it.:  11.3
      thresh= 1.427E-09 alpha_mix =  0.700 |ddv_scf|^2 =  1.421E-17

     End of self-consistent calculation

     Convergence has been achieved 
 
     Number of q in the star =    8
     List of q in the star:
          1  -0.333333333   0.333333333  -0.333333333
          2   0.333333333   0.333333333   0.333333333
          3  -0.333333333  -0.333333333  -0.333333333
          4   0.333333333  -0.333333333   0.333333333
          5   0.333333333  -0.333333333  -0.333333333
          6   0.333333333   0.333333333  -0.333333333
          7  -0.333333333  -0.333333333   0.333333333
          8  -0.333333333   0.333333333   0.333333333

     Diagonalizing the dynamical matrix

     q = (   -0.333333333   0.333333333  -0.333333333 ) 

 **************************************************************************
     freq (    1) =       3.184533 [THz] =     106.224579 [cm-1]
     freq (    2) =       3.184533 [THz] =     106.224579 [cm-1]
     freq (    3) =       8.547274 [THz] =     285.106388 [cm-1]
     freq (    4) =      13.460680 [THz] =     448.999945 [cm-1]
     freq (    5) =      14.285089 [THz] =     476.499279 [cm-1]
     freq (    6) =      14.285089 [THz] =     476.499279 [cm-1]
 **************************************************************************

     Mode symmetry, C_3v (3m)   point group:

     freq (  1 -  2) =        106.2  [cm-1]   --> E    L_3           
     freq (  3 -  3) =        285.1  [cm-1]   --> A_1  L_1           
     freq (  4 -  4) =        449.0  [cm-1]   --> A_1  L_1           
     freq (  5 -  6) =        476.5  [cm-1]   --> E    L_3           

     Calculation of q =    0.5000000  -0.5000000   0.5000000
 
     Parallelization info
     --------------------
     sticks:   dense  smooth     PW     G-vecs:    dense   smooth      PW
     Min          55      27     10                 1090      381      91
     Max          57      28     11                 1091      396      94
     Sum         889     439    169                17453     6183    1471
 


     bravais-lattice index     =            2
     lattice parameter (alat)  =      10.3520  a.u.
     unit-cell volume          =     277.3402 (a.u.)^3
     number of atoms/cell      =            2
     number of atomic types    =            1
     number of electrons       =         8.00
     number of Kohn-Sham states=            4
     kinetic-energy cutoff     =      30.0000  Ry
     charge density cutoff     =     240.0000  Ry
     Exchange-correlation      = SLA  PW   PBE  PBE ( 1  4  3  4 0 0)

     celldm(1)=  10.352000  celldm(2)=   0.000000  celldm(3)=   0.000000
     celldm(4)=   0.000000  celldm(5)=   0.000000  celldm(6)=   0.000000

     crystal axes: (cart. coord. in units of alat)
               a(1) = (  -0.500000   0.000000   0.500000 )  
               a(2) = (   0.000000   0.500000   0.500000 )  
               a(3) = (  -0.500000   0.500000   0.000000 )  

     reciprocal axes: (cart. coord. in units 2 pi/alat)
               b(1) = ( -1.000000 -1.000000  1.000000 )  
               b(2) = (  1.000000  1.000000  1.000000 )  
               b(3) = ( -1.000000  1.000000 -1.000000 )  


     PseudoPot. # 1 for Si read from file:
     ./si_pbe_v1.uspp.F.UPF.txt
     MD5 check sum: a056efeee980c13900f22a371efd63c1
     Pseudo is Ultrasoft + core correction, Zval =  4.0
     Generated by new atomic code, or converted to UPF format
     Using radial grid of  899 points,  6 beta functions with: 
                l(1) =   0
                l(2) =   0
                l(3) =   1
                l(4) =   1
                l(5) =   2
                l(6) =   2
     Q(r) pseudized with  8 coefficients,  rinner =    0.900   0.900   0.900
                                                       0.900   0.900

     atomic species   valence    mass     pseudopotential
        Si             4.00    28.08600     Si( 1.00)

     48 Sym. Ops., with inversion, found



   Cartesian axes

     site n.     atom                  positions (alat units)
         1           Si  tau(   1) = (   0.0000000   0.0000000   0.0000000  )
         2           Si  tau(   2) = (   0.2500000   0.2500000   0.2500000  )

     number of k points=  1300

     Number of k-points >= 100: set verbosity='high' to print them.

     Dense  grid:    17453 G-vectors     FFT dimensions: (  40,  40,  40)

     Smooth grid:     6183 G-vectors     FFT dimensions: (  25,  25,  25)

     Largest allocated arrays     est. size (Mb)     dimensions
        Kohn-Sham Wavefunctions         0.00 Mb     (      56,    4)
        NL pseudopotentials             0.03 Mb     (      56,   36)
        Each V/rho on FFT grid          0.07 Mb     (    4800)
        Each G-vector array             0.01 Mb     (    1091)
        G-vector shells                 0.00 Mb     (     214)
     Largest temporary arrays     est. size (Mb)     dimensions
        Auxiliary wavefunctions         0.01 Mb     (      56,   16)
        Each subspace H/S matrix        0.00 Mb     (       8,    8)
        Each <psi_i|beta_j> matrix      0.00 Mb     (      36,    4)

     The potential is recalculated from file :
     ./silicon/_ph0/silicon.10.352.save/charge-density.dat

     Starting wfc are    8 atomic wfcs

     Band Structure Calculation
     Davidson diagonalization with overlap

     ethr =  1.25E-10,  avg # of iterations = 12.4

     total cpu time spent up to now is       11.6 secs

     End of band structure calculation

     Number of k-points >= 100: set verbosity='high' to print the bands.

     highest occupied level (ev):     5.8857

     Writing output data file silicon.10.352.save

                                                                                

     bravais-lattice index     =            2
     lattice parameter (alat)  =      10.3520  a.u.
     unit-cell volume          =     277.3402 (a.u.)^3
     number of atoms/cell      =            2
     number of atomic types    =            1
     kinetic-energy cut-off    =      30.0000  Ry
     charge density cut-off    =     240.0000  Ry
     convergence threshold     =      1.0E-16
     beta                      =       0.7000
     number of iterations used =            4
     Exchange-correlation      = SLA  PW   PBE  PBE ( 1  4  3  4 0 0)


     celldm(1)=   10.35200  celldm(2)=    0.00000  celldm(3)=    0.00000
     celldm(4)=    0.00000  celldm(5)=    0.00000  celldm(6)=    0.00000

     crystal axes: (cart. coord. in units of alat)
               a(1) = ( -0.5000  0.0000  0.5000 )  
               a(2) = (  0.0000  0.5000  0.5000 )  
               a(3) = ( -0.5000  0.5000  0.0000 )  

     reciprocal axes: (cart. coord. in units 2 pi/alat)
               b(1) = ( -1.0000 -1.0000  1.0000 )  
               b(2) = (  1.0000  1.0000  1.0000 )  
               b(3) = ( -1.0000  1.0000 -1.0000 )  


     Atoms inside the unit cell: 

     Cartesian axes

     site n.  atom      mass           positions (alat units)
        1     Si  28.0860   tau(    1) = (    0.00000    0.00000    0.00000  )
        2     Si  28.0860   tau(    2) = (    0.25000    0.25000    0.25000  )

     Computing dynamical matrix for 
                    q = (   0.5000000  -0.5000000   0.5000000 )
 
     13 Sym.Ops. (with q -> -q+G )


     G cutoff =  651.4784  (   1091 G-vectors)     FFT grid: ( 40, 40, 40)
     G cutoff =  325.7392  (    391 G-vectors)  smooth grid: ( 25, 25, 25)
     number of k points=  1300

     PseudoPot. # 1 for Si read from file:
     ./si_pbe_v1.uspp.F.UPF.txt
     MD5 check sum: a056efeee980c13900f22a371efd63c1
     Pseudo is Ultrasoft + core correction, Zval =  4.0
     Generated by new atomic code, or converted to UPF format
     Using radial grid of  899 points,  6 beta functions with: 
                l(1) =   0
                l(2) =   0
                l(3) =   1
                l(4) =   1
                l(5) =   2
                l(6) =   2
     Q(r) pseudized with  8 coefficients,  rinner =    0.900   0.900   0.900
                                                       0.900   0.900


     Atomic displacements:
     There are   4 irreducible representations

     Representation     1      1 modes -  To be done

     Representation     2      1 modes -  To be done

     Representation     3      2 modes -  To be done

     Representation     4      2 modes -  To be done



     Alpha used in Ewald sum =   2.5000
     PHONON       :  1m56.71s CPU     2m17.03s WALL



     Representation #  1 mode #   1

     Self-consistent Calculation

      iter #   1 total cpu time :   137.9 secs   av.it.:   5.1
      thresh= 1.000E-02 alpha_mix =  0.700 |ddv_scf|^2 =  2.108E-06

      iter #   2 total cpu time :   138.5 secs   av.it.:  10.7
      thresh= 1.452E-04 alpha_mix =  0.700 |ddv_scf|^2 =  1.947E-06

      iter #   3 total cpu time :   138.8 secs   av.it.:   9.9
      thresh= 1.395E-04 alpha_mix =  0.700 |ddv_scf|^2 =  1.168E-09

      iter #   4 total cpu time :   139.2 secs   av.it.:  10.1
      thresh= 3.417E-06 alpha_mix =  0.700 |ddv_scf|^2 =  1.188E-11

      iter #   5 total cpu time :   139.6 secs   av.it.:   9.9
      thresh= 3.447E-07 alpha_mix =  0.700 |ddv_scf|^2 =  1.523E-13

      iter #   6 total cpu time :   140.9 secs   av.it.:  10.0
      thresh= 3.903E-08 alpha_mix =  0.700 |ddv_scf|^2 =  2.210E-15

      iter #   7 total cpu time :   142.1 secs   av.it.:  10.1
      thresh= 4.701E-09 alpha_mix =  0.700 |ddv_scf|^2 =  4.105E-17

     End of self-consistent calculation

     Convergence has been achieved 


     Representation #  2 mode #   2

     Self-consistent Calculation

      iter #   1 total cpu time :   145.4 secs   av.it.:   6.0
      thresh= 1.000E-02 alpha_mix =  0.700 |ddv_scf|^2 =  2.991E-05

      iter #   2 total cpu time :   145.7 secs   av.it.:  10.6
      thresh= 5.469E-04 alpha_mix =  0.700 |ddv_scf|^2 =  9.319E-05

      iter #   3 total cpu time :   146.1 secs   av.it.:   9.3
      thresh= 9.654E-04 alpha_mix =  0.700 |ddv_scf|^2 =  6.988E-09

      iter #   4 total cpu time :   147.4 secs   av.it.:  10.7
      thresh= 8.359E-06 alpha_mix =  0.700 |ddv_scf|^2 =  3.528E-10

      iter #   5 total cpu time :   148.2 secs   av.it.:  10.8
      thresh= 1.878E-06 alpha_mix =  0.700 |ddv_scf|^2 =  1.047E-11

      iter #   6 total cpu time :   149.5 secs   av.it.:  10.6
      thresh= 3.236E-07 alpha_mix =  0.700 |ddv_scf|^2 =  7.810E-14

      iter #   7 total cpu time :   150.5 secs   av.it.:  10.0
      thresh= 2.795E-08 alpha_mix =  0.700 |ddv_scf|^2 =  8.704E-16

      iter #   8 total cpu time :   151.7 secs   av.it.:   9.8
      thresh= 2.950E-09 alpha_mix =  0.700 |ddv_scf|^2 =  3.664E-17

     End of self-consistent calculation

     Convergence has been achieved 


     Representation #  3 modes #   3  4

     Self-consistent Calculation

      iter #   1 total cpu time :   153.5 secs   av.it.:   5.1
      thresh= 1.000E-02 alpha_mix =  0.700 |ddv_scf|^2 =  1.357E-08

      iter #   2 total cpu time :   154.7 secs   av.it.:  11.7
      thresh= 1.165E-05 alpha_mix =  0.700 |ddv_scf|^2 =  7.993E-10

      iter #   3 total cpu time :   155.5 secs   av.it.:  11.2
      thresh= 2.827E-06 alpha_mix =  0.700 |ddv_scf|^2 =  2.719E-11

      iter #   4 total cpu time :   156.6 secs   av.it.:  11.3
      thresh= 5.214E-07 alpha_mix =  0.700 |ddv_scf|^2 =  2.208E-13

      iter #   5 total cpu time :   157.6 secs   av.it.:  11.2
      thresh= 4.699E-08 alpha_mix =  0.700 |ddv_scf|^2 =  2.458E-15

      iter #   6 total cpu time :   159.4 secs   av.it.:  11.2
      thresh= 4.958E-09 alpha_mix =  0.700 |ddv_scf|^2 =  2.572E-17

     End of self-consistent calculation

     Convergence has been achieved 


     Representation #  4 modes #   5  6

     Self-consistent Calculation

      iter #   1 total cpu time :   163.5 secs   av.it.:   5.2
      thresh= 1.000E-02 alpha_mix =  0.700 |ddv_scf|^2 =  6.955E-08

      iter #   2 total cpu time :   164.2 secs   av.it.:  11.8
      thresh= 2.637E-05 alpha_mix =  0.700 |ddv_scf|^2 =  5.583E-09

      iter #   3 total cpu time :   164.9 secs   av.it.:  11.6
      thresh= 7.472E-06 alpha_mix =  0.700 |ddv_scf|^2 =  1.466E-10

      iter #   4 total cpu time :   165.7 secs   av.it.:  10.5
      thresh= 1.211E-06 alpha_mix =  0.700 |ddv_scf|^2 =  2.684E-13

      iter #   5 total cpu time :   166.4 secs   av.it.:  11.2
      thresh= 5.181E-08 alpha_mix =  0.700 |ddv_scf|^2 =  2.459E-15

      iter #   6 total cpu time :   167.2 secs   av.it.:  11.3
      thresh= 4.959E-09 alpha_mix =  0.700 |ddv_scf|^2 =  6.708E-17

     End of self-consistent calculation

     Convergence has been achieved 
 
     Number of q in the star =    4
     List of q in the star:
          1   0.500000000  -0.500000000   0.500000000
          2   0.500000000   0.500000000   0.500000000
          3  -0.500000000   0.500000000   0.500000000
          4   0.500000000   0.500000000  -0.500000000

     Diagonalizing the dynamical matrix

     q = (    0.500000000  -0.500000000   0.500000000 ) 

 **************************************************************************
     freq (    1) =       3.365738 [THz] =     112.268927 [cm-1]
     freq (    2) =       3.365738 [THz] =     112.268927 [cm-1]
     freq (    3) =      11.075449 [THz] =     369.437204 [cm-1]
     freq (    4) =      11.865227 [THz] =     395.781362 [cm-1]
     freq (    5) =      14.206598 [THz] =     473.881097 [cm-1]
     freq (    6) =      14.206598 [THz] =     473.881097 [cm-1]
 **************************************************************************

     Calculation of q =    0.0000000   0.3333333   0.0000000
 
     Parallelization info
     --------------------
     sticks:   dense  smooth     PW     G-vecs:    dense   smooth      PW
     Min          55      27     10                 1090      380      84
     Max          57      28     11                 1091      392      86
     Sum         889     439    163                17453     6183    1363
 


     bravais-lattice index     =            2
     lattice parameter (alat)  =      10.3520  a.u.
     unit-cell volume          =     277.3402 (a.u.)^3
     number of atoms/cell      =            2
     number of atomic types    =            1
     number of electrons       =         8.00
     number of Kohn-Sham states=            4
     kinetic-energy cutoff     =      30.0000  Ry
     charge density cutoff     =     240.0000  Ry
     Exchange-correlation      = SLA  PW   PBE  PBE ( 1  4  3  4 0 0)

     celldm(1)=  10.352000  celldm(2)=   0.000000  celldm(3)=   0.000000
     celldm(4)=   0.000000  celldm(5)=   0.000000  celldm(6)=   0.000000

     crystal axes: (cart. coord. in units of alat)
               a(1) = (  -0.500000   0.000000   0.500000 )  
               a(2) = (   0.000000   0.500000   0.500000 )  
               a(3) = (  -0.500000   0.500000   0.000000 )  

     reciprocal axes: (cart. coord. in units 2 pi/alat)
               b(1) = ( -1.000000 -1.000000  1.000000 )  
               b(2) = (  1.000000  1.000000  1.000000 )  
               b(3) = ( -1.000000  1.000000 -1.000000 )  


     PseudoPot. # 1 for Si read from file:
     ./si_pbe_v1.uspp.F.UPF.txt
     MD5 check sum: a056efeee980c13900f22a371efd63c1
     Pseudo is Ultrasoft + core correction, Zval =  4.0
     Generated by new atomic code, or converted to UPF format
     Using radial grid of  899 points,  6 beta functions with: 
                l(1) =   0
                l(2) =   0
                l(3) =   1
                l(4) =   1
                l(5) =   2
                l(6) =   2
     Q(r) pseudized with  8 coefficients,  rinner =    0.900   0.900   0.900
                                                       0.900   0.900

     atomic species   valence    mass     pseudopotential
        Si             4.00    28.08600     Si( 1.00)

     48 Sym. Ops., with inversion, found



   Cartesian axes

     site n.     atom                  positions (alat units)
         1           Si  tau(   1) = (   0.0000000   0.0000000   0.0000000  )
         2           Si  tau(   2) = (   0.2500000   0.2500000   0.2500000  )

     number of k points=  1872

     Number of k-points >= 100: set verbosity='high' to print them.

     Dense  grid:    17453 G-vectors     FFT dimensions: (  40,  40,  40)

     Smooth grid:     6183 G-vectors     FFT dimensions: (  25,  25,  25)

     Largest allocated arrays     est. size (Mb)     dimensions
        Kohn-Sham Wavefunctions         0.00 Mb     (      55,    4)
        NL pseudopotentials             0.03 Mb     (      55,   36)
        Each V/rho on FFT grid          0.07 Mb     (    4800)
        Each G-vector array             0.01 Mb     (    1091)
        G-vector shells                 0.00 Mb     (     208)
     Largest temporary arrays     est. size (Mb)     dimensions
        Auxiliary wavefunctions         0.01 Mb     (      55,   16)
        Each subspace H/S matrix        0.00 Mb     (       8,    8)
        Each <psi_i|beta_j> matrix      0.00 Mb     (      36,    4)

     The potential is recalculated from file :
     ./silicon/_ph0/silicon.10.352.save/charge-density.dat

     Starting wfc are    8 atomic wfcs

     Band Structure Calculation
     Davidson diagonalization with overlap

     ethr =  1.25E-10,  avg # of iterations = 12.4

     total cpu time spent up to now is       14.1 secs

     End of band structure calculation

     Number of k-points >= 100: set verbosity='high' to print the bands.

     highest occupied level (ev):     5.8857

     Writing output data file silicon.10.352.save

                                                                                

     bravais-lattice index     =            2
     lattice parameter (alat)  =      10.3520  a.u.
     unit-cell volume          =     277.3402 (a.u.)^3
     number of atoms/cell      =            2
     number of atomic types    =            1
     kinetic-energy cut-off    =      30.0000  Ry
     charge density cut-off    =     240.0000  Ry
     convergence threshold     =      1.0E-16
     beta                      =       0.7000
     number of iterations used =            4
     Exchange-correlation      = SLA  PW   PBE  PBE ( 1  4  3  4 0 0)


     celldm(1)=   10.35200  celldm(2)=    0.00000  celldm(3)=    0.00000
     celldm(4)=    0.00000  celldm(5)=    0.00000  celldm(6)=    0.00000

     crystal axes: (cart. coord. in units of alat)
               a(1) = ( -0.5000  0.0000  0.5000 )  
               a(2) = (  0.0000  0.5000  0.5000 )  
               a(3) = ( -0.5000  0.5000  0.0000 )  

     reciprocal axes: (cart. coord. in units 2 pi/alat)
               b(1) = ( -1.0000 -1.0000  1.0000 )  
               b(2) = (  1.0000  1.0000  1.0000 )  
               b(3) = ( -1.0000  1.0000 -1.0000 )  


     Atoms inside the unit cell: 

     Cartesian axes

     site n.  atom      mass           positions (alat units)
        1     Si  28.0860   tau(    1) = (    0.00000    0.00000    0.00000  )
        2     Si  28.0860   tau(    2) = (    0.25000    0.25000    0.25000  )

     Computing dynamical matrix for 
                    q = (   0.0000000   0.3333333   0.0000000 )
 
      8 Sym.Ops. (no q -> -q+G )


     G cutoff =  651.4784  (   1091 G-vectors)     FFT grid: ( 40, 40, 40)
     G cutoff =  325.7392  (    386 G-vectors)  smooth grid: ( 25, 25, 25)
     number of k points=  1872

     PseudoPot. # 1 for Si read from file:
     ./si_pbe_v1.uspp.F.UPF.txt
     MD5 check sum: a056efeee980c13900f22a371efd63c1
     Pseudo is Ultrasoft + core correction, Zval =  4.0
     Generated by new atomic code, or converted to UPF format
     Using radial grid of  899 points,  6 beta functions with: 
                l(1) =   0
                l(2) =   0
                l(3) =   1
                l(4) =   1
                l(5) =   2
                l(6) =   2
     Q(r) pseudized with  8 coefficients,  rinner =    0.900   0.900   0.900
                                                       0.900   0.900

     Mode symmetry, C_4v (4mm)  point group:


     Atomic displacements:
     There are   4 irreducible representations

     Representation     1      1 modes -A_1  G_1 D_1  To be done

     Representation     2      1 modes -B_2  G_4 D_2'  To be done

     Representation     3      2 modes -E    G_5 D_5  To be done

     Representation     4      2 modes -E    G_5 D_5  To be done



     Alpha used in Ewald sum =   2.5000
     PHONON       :  2m27.21s CPU     2m51.36s WALL



     Representation #  1 mode #   1

     Self-consistent Calculation

      iter #   1 total cpu time :   172.3 secs   av.it.:   6.3
      thresh= 1.000E-02 alpha_mix =  0.700 |ddv_scf|^2 =  1.311E-03

      iter #   2 total cpu time :   173.1 secs   av.it.:   9.4
      thresh= 3.621E-03 alpha_mix =  0.700 |ddv_scf|^2 =  3.818E-02

      iter #   3 total cpu time :   173.5 secs   av.it.:   7.7
      thresh= 1.000E-02 alpha_mix =  0.700 |ddv_scf|^2 =  7.385E-08

      iter #   4 total cpu time :   174.0 secs   av.it.:   9.7
      thresh= 2.718E-05 alpha_mix =  0.700 |ddv_scf|^2 =  2.440E-09

      iter #   5 total cpu time :   174.4 secs   av.it.:   8.8
      thresh= 4.939E-06 alpha_mix =  0.700 |ddv_scf|^2 =  5.720E-10

      iter #   6 total cpu time :   174.8 secs   av.it.:   8.3
      thresh= 2.392E-06 alpha_mix =  0.700 |ddv_scf|^2 =  9.776E-14

      iter #   7 total cpu time :   176.1 secs   av.it.:  10.0
      thresh= 3.127E-08 alpha_mix =  0.700 |ddv_scf|^2 =  8.608E-14

      iter #   8 total cpu time :   177.4 secs   av.it.:   7.4
      thresh= 2.934E-08 alpha_mix =  0.700 |ddv_scf|^2 =  4.008E-17

     End of self-consistent calculation

     Convergence has been achieved 


     Representation #  2 mode #   2

     Self-consistent Calculation

      iter #   1 total cpu time :   183.5 secs   av.it.:   5.1
      thresh= 1.000E-02 alpha_mix =  0.700 |ddv_scf|^2 =  2.177E-07

      iter #   2 total cpu time :   184.6 secs   av.it.:  10.9
      thresh= 4.666E-05 alpha_mix =  0.700 |ddv_scf|^2 =  3.788E-08

      iter #   3 total cpu time :   185.7 secs   av.it.:  10.8
      thresh= 1.946E-05 alpha_mix =  0.700 |ddv_scf|^2 =  1.107E-09

      iter #   4 total cpu time :   186.2 secs   av.it.:  10.8
      thresh= 3.327E-06 alpha_mix =  0.700 |ddv_scf|^2 =  4.009E-11

      iter #   5 total cpu time :   186.8 secs   av.it.:  10.8
      thresh= 6.331E-07 alpha_mix =  0.700 |ddv_scf|^2 =  2.077E-13

      iter #   6 total cpu time :   187.2 secs   av.it.:  10.3
      thresh= 4.557E-08 alpha_mix =  0.700 |ddv_scf|^2 =  3.581E-15

      iter #   7 total cpu time :   188.5 secs   av.it.:   9.9
      thresh= 5.984E-09 alpha_mix =  0.700 |ddv_scf|^2 =  9.255E-17

     End of self-consistent calculation

     Convergence has been achieved 


     Representation #  3 modes #   3  4

     Self-consistent Calculation

      iter #   1 total cpu time :   190.1 secs   av.it.:   5.2
      thresh= 1.000E-02 alpha_mix =  0.700 |ddv_scf|^2 =  4.102E-08

      iter #   2 total cpu time :   191.9 secs   av.it.:  12.0
      thresh= 2.025E-05 alpha_mix =  0.700 |ddv_scf|^2 =  3.557E-09

      iter #   3 total cpu time :   194.4 secs   av.it.:  11.8
      thresh= 5.964E-06 alpha_mix =  0.700 |ddv_scf|^2 =  1.370E-10

      iter #   4 total cpu time :   196.2 secs   av.it.:  11.3
      thresh= 1.170E-06 alpha_mix =  0.700 |ddv_scf|^2 =  5.354E-13

      iter #   5 total cpu time :   197.1 secs   av.it.:  11.5
      thresh= 7.317E-08 alpha_mix =  0.700 |ddv_scf|^2 =  2.596E-14

      iter #   6 total cpu time :   198.1 secs   av.it.:  11.7
      thresh= 1.611E-08 alpha_mix =  0.700 |ddv_scf|^2 =  1.941E-16

      iter #   7 total cpu time :   199.0 secs   av.it.:  11.1
      thresh= 1.393E-09 alpha_mix =  0.700 |ddv_scf|^2 =  1.232E-17

     End of self-consistent calculation

     Convergence has been achieved 


     Representation #  4 modes #   5  6

     Self-consistent Calculation

      iter #   1 total cpu time :   199.9 secs   av.it.:   5.3
      thresh= 1.000E-02 alpha_mix =  0.700 |ddv_scf|^2 =  4.837E-08

      iter #   2 total cpu time :   201.2 secs   av.it.:  12.0
      thresh= 2.199E-05 alpha_mix =  0.700 |ddv_scf|^2 =  4.357E-09

      iter #   3 total cpu time :   210.7 secs   av.it.:  11.7
      thresh= 6.601E-06 alpha_mix =  0.700 |ddv_scf|^2 =  1.451E-10

      iter #   4 total cpu time :   211.7 secs   av.it.:  11.5
      thresh= 1.205E-06 alpha_mix =  0.700 |ddv_scf|^2 =  3.818E-13

      iter #   5 total cpu time :   213.4 secs   av.it.:  11.5
      thresh= 6.179E-08 alpha_mix =  0.700 |ddv_scf|^2 =  1.235E-14

      iter #   6 total cpu time :   214.8 secs   av.it.:  11.6
      thresh= 1.111E-08 alpha_mix =  0.700 |ddv_scf|^2 =  1.664E-16

      iter #   7 total cpu time :   215.9 secs   av.it.:  11.2
      thresh= 1.290E-09 alpha_mix =  0.700 |ddv_scf|^2 =  1.027E-17

     End of self-consistent calculation

     Convergence has been achieved 
 
     Number of q in the star =    6
     List of q in the star:
          1   0.000000000   0.333333333   0.000000000
          2   0.333333333   0.000000000   0.000000000
          3   0.000000000   0.000000000   0.333333333
          4   0.000000000  -0.333333333   0.000000000
          5  -0.333333333   0.000000000   0.000000000
          6   0.000000000   0.000000000  -0.333333333

     Diagonalizing the dynamical matrix

     q = (    0.000000000   0.333333333   0.000000000 ) 

 **************************************************************************
     freq (    1) =       2.970954 [THz] =      99.100363 [cm-1]
     freq (    2) =       2.970954 [THz] =      99.100363 [cm-1]
     freq (    3) =       4.825037 [THz] =     160.945904 [cm-1]
     freq (    4) =      14.219940 [THz] =     474.326132 [cm-1]
     freq (    5) =      14.219940 [THz] =     474.326132 [cm-1]
     freq (    6) =      14.739774 [THz] =     491.665951 [cm-1]
 **************************************************************************

     Mode symmetry, C_4v (4mm)  point group:

     freq (  1 -  2) =         99.1  [cm-1]   --> E    G_5 D_5       
     freq (  3 -  3) =        160.9  [cm-1]   --> A_1  G_1 D_1       
     freq (  4 -  5) =        474.3  [cm-1]   --> E    G_5 D_5       
     freq (  6 -  6) =        491.7  [cm-1]   --> B_2  G_4 D_2'      

     Calculation of q =   -0.1666667   0.5000000  -0.1666667
 
     Parallelization info
     --------------------
     sticks:   dense  smooth     PW     G-vecs:    dense   smooth      PW
     Min          55      27     10                 1090      379      90
     Max          57      28     11                 1091      392      94
     Sum         889     439    163                17453     6183    1459
 


     bravais-lattice index     =            2
     lattice parameter (alat)  =      10.3520  a.u.
     unit-cell volume          =     277.3402 (a.u.)^3
     number of atoms/cell      =            2
     number of atomic types    =            1
     number of electrons       =         8.00
     number of Kohn-Sham states=            4
     kinetic-energy cutoff     =      30.0000  Ry
     charge density cutoff     =     240.0000  Ry
     Exchange-correlation      = SLA  PW   PBE  PBE ( 1  4  3  4 0 0)

     celldm(1)=  10.352000  celldm(2)=   0.000000  celldm(3)=   0.000000
     celldm(4)=   0.000000  celldm(5)=   0.000000  celldm(6)=   0.000000

     crystal axes: (cart. coord. in units of alat)
               a(1) = (  -0.500000   0.000000   0.500000 )  
               a(2) = (   0.000000   0.500000   0.500000 )  
               a(3) = (  -0.500000   0.500000   0.000000 )  

     reciprocal axes: (cart. coord. in units 2 pi/alat)
               b(1) = ( -1.000000 -1.000000  1.000000 )  
               b(2) = (  1.000000  1.000000  1.000000 )  
               b(3) = ( -1.000000  1.000000 -1.000000 )  


     PseudoPot. # 1 for Si read from file:
     ./si_pbe_v1.uspp.F.UPF.txt
     MD5 check sum: a056efeee980c13900f22a371efd63c1
     Pseudo is Ultrasoft + core correction, Zval =  4.0
     Generated by new atomic code, or converted to UPF format
     Using radial grid of  899 points,  6 beta functions with: 
                l(1) =   0
                l(2) =   0
                l(3) =   1
                l(4) =   1
                l(5) =   2
                l(6) =   2
     Q(r) pseudized with  8 coefficients,  rinner =    0.900   0.900   0.900
                                                       0.900   0.900

     atomic species   valence    mass     pseudopotential
        Si             4.00    28.08600     Si( 1.00)

     48 Sym. Ops., with inversion, found



   Cartesian axes

     site n.     atom                  positions (alat units)
         1           Si  tau(   1) = (   0.0000000   0.0000000   0.0000000  )
         2           Si  tau(   2) = (   0.2500000   0.2500000   0.2500000  )

     number of k points=  7200

     Number of k-points >= 100: set verbosity='high' to print them.

     Dense  grid:    17453 G-vectors     FFT dimensions: (  40,  40,  40)

     Smooth grid:     6183 G-vectors     FFT dimensions: (  25,  25,  25)

     Largest allocated arrays     est. size (Mb)     dimensions
        Kohn-Sham Wavefunctions         0.00 Mb     (      60,    4)
        NL pseudopotentials             0.03 Mb     (      60,   36)
        Each V/rho on FFT grid          0.07 Mb     (    4800)
        Each G-vector array             0.01 Mb     (    1091)
        G-vector shells                 0.00 Mb     (     208)
     Largest temporary arrays     est. size (Mb)     dimensions
        Auxiliary wavefunctions         0.01 Mb     (      60,   16)
        Each subspace H/S matrix        0.00 Mb     (       8,    8)
        Each <psi_i|beta_j> matrix      0.00 Mb     (      36,    4)

     The potential is recalculated from file :
     ./silicon/_ph0/silicon.10.352.save/charge-density.dat

     Starting wfc are    8 atomic wfcs

     Band Structure Calculation
     Davidson diagonalization with overlap

     ethr =  1.25E-10,  avg # of iterations = 12.3

     total cpu time spent up to now is       24.4 secs

     End of band structure calculation

     Number of k-points >= 100: set verbosity='high' to print the bands.

     highest occupied level (ev):     5.8857

     Writing output data file silicon.10.352.save

                                                                                

     bravais-lattice index     =            2
     lattice parameter (alat)  =      10.3520  a.u.
     unit-cell volume          =     277.3402 (a.u.)^3
     number of atoms/cell      =            2
     number of atomic types    =            1
     kinetic-energy cut-off    =      30.0000  Ry
     charge density cut-off    =     240.0000  Ry
     convergence threshold     =      1.0E-16
     beta                      =       0.7000
     number of iterations used =            4
     Exchange-correlation      = SLA  PW   PBE  PBE ( 1  4  3  4 0 0)


     celldm(1)=   10.35200  celldm(2)=    0.00000  celldm(3)=    0.00000
     celldm(4)=    0.00000  celldm(5)=    0.00000  celldm(6)=    0.00000

     crystal axes: (cart. coord. in units of alat)
               a(1) = ( -0.5000  0.0000  0.5000 )  
               a(2) = (  0.0000  0.5000  0.5000 )  
               a(3) = ( -0.5000  0.5000  0.0000 )  

     reciprocal axes: (cart. coord. in units 2 pi/alat)
               b(1) = ( -1.0000 -1.0000  1.0000 )  
               b(2) = (  1.0000  1.0000  1.0000 )  
               b(3) = ( -1.0000  1.0000 -1.0000 )  


     Atoms inside the unit cell: 

     Cartesian axes

     site n.  atom      mass           positions (alat units)
        1     Si  28.0860   tau(    1) = (    0.00000    0.00000    0.00000  )
        2     Si  28.0860   tau(    2) = (    0.25000    0.25000    0.25000  )

     Computing dynamical matrix for 
                    q = (  -0.1666667   0.5000000  -0.1666667 )
 
      2 Sym.Ops. (no q -> -q+G )


     G cutoff =  651.4784  (   1091 G-vectors)     FFT grid: ( 40, 40, 40)
     G cutoff =  325.7392  (    384 G-vectors)  smooth grid: ( 25, 25, 25)
     number of k points=  7200

     PseudoPot. # 1 for Si read from file:
     ./si_pbe_v1.uspp.F.UPF.txt
     MD5 check sum: a056efeee980c13900f22a371efd63c1
     Pseudo is Ultrasoft + core correction, Zval =  4.0
     Generated by new atomic code, or converted to UPF format
     Using radial grid of  899 points,  6 beta functions with: 
                l(1) =   0
                l(2) =   0
                l(3) =   1
                l(4) =   1
                l(5) =   2
                l(6) =   2
     Q(r) pseudized with  8 coefficients,  rinner =    0.900   0.900   0.900
                                                       0.900   0.900

     Mode symmetry, C_s (m)     point group:


     Atomic displacements:
     There are   6 irreducible representations

     Representation     1      1 modes -A'  To be done

     Representation     2      1 modes -A'  To be done

     Representation     3      1 modes -A'  To be done

     Representation     4      1 modes -A'  To be done

     Representation     5      1 modes -A''  To be done

     Representation     6      1 modes -A''  To be done



     Alpha used in Ewald sum =   2.5000
     PHONON       :  3m22.72s CPU     3m53.36s WALL



     Representation #  1 mode #   1

     Self-consistent Calculation

      iter #   1 total cpu time :   235.2 secs   av.it.:   5.8
      thresh= 1.000E-02 alpha_mix =  0.700 |ddv_scf|^2 =  3.137E-05

      iter #   2 total cpu time :   236.9 secs   av.it.:  10.4
      thresh= 5.601E-04 alpha_mix =  0.700 |ddv_scf|^2 =  3.212E-04

      iter #   3 total cpu time :   239.1 secs   av.it.:   8.4
      thresh= 1.792E-03 alpha_mix =  0.700 |ddv_scf|^2 =  5.517E-08

      iter #   4 total cpu time :   240.7 secs   av.it.:  10.9
      thresh= 2.349E-05 alpha_mix =  0.700 |ddv_scf|^2 =  2.431E-09

      iter #   5 total cpu time :   242.6 secs   av.it.:  10.9
      thresh= 4.930E-06 alpha_mix =  0.700 |ddv_scf|^2 =  1.153E-10

      iter #   6 total cpu time :   244.2 secs   av.it.:  10.9
      thresh= 1.074E-06 alpha_mix =  0.700 |ddv_scf|^2 =  4.267E-12

      iter #   7 total cpu time :   245.7 secs   av.it.:  11.0
      thresh= 2.066E-07 alpha_mix =  0.700 |ddv_scf|^2 =  7.125E-13

      iter #   8 total cpu time :   247.3 secs   av.it.:  10.4
      thresh= 8.441E-08 alpha_mix =  0.700 |ddv_scf|^2 =  2.382E-12

      iter #   9 total cpu time :   249.4 secs   av.it.:   9.0
      thresh= 1.543E-07 alpha_mix =  0.700 |ddv_scf|^2 =  1.068E-13

      iter #  10 total cpu time :   251.5 secs   av.it.:   9.6
      thresh= 3.268E-08 alpha_mix =  0.700 |ddv_scf|^2 =  2.067E-14

      iter #  11 total cpu time :   253.7 secs   av.it.:  10.1
      thresh= 1.438E-08 alpha_mix =  0.700 |ddv_scf|^2 =  5.734E-16

      iter #  12 total cpu time :   255.6 secs   av.it.:  10.9
      thresh= 2.395E-09 alpha_mix =  0.700 |ddv_scf|^2 =  9.214E-17

     End of self-consistent calculation

     Convergence has been achieved 


     Representation #  2 mode #   2

     Self-consistent Calculation

      iter #   1 total cpu time :   259.5 secs   av.it.:   6.0
      thresh= 1.000E-02 alpha_mix =  0.700 |ddv_scf|^2 =  7.385E-05

      iter #   2 total cpu time :   261.0 secs   av.it.:  10.3
      thresh= 8.594E-04 alpha_mix =  0.700 |ddv_scf|^2 =  7.738E-04

      iter #   3 total cpu time :   262.9 secs   av.it.:   8.3
      thresh= 2.782E-03 alpha_mix =  0.700 |ddv_scf|^2 =  3.700E-08

      iter #   4 total cpu time :   265.5 secs   av.it.:  11.1
      thresh= 1.924E-05 alpha_mix =  0.700 |ddv_scf|^2 =  3.575E-09

      iter #   5 total cpu time :   267.1 secs   av.it.:  10.9
      thresh= 5.979E-06 alpha_mix =  0.700 |ddv_scf|^2 =  1.154E-10

      iter #   6 total cpu time :   269.2 secs   av.it.:  11.0
      thresh= 1.074E-06 alpha_mix =  0.700 |ddv_scf|^2 =  9.391E-12

      iter #   7 total cpu time :   271.4 secs   av.it.:  11.0
      thresh= 3.065E-07 alpha_mix =  0.700 |ddv_scf|^2 =  9.242E-14

      iter #   8 total cpu time :   273.1 secs   av.it.:  11.0
      thresh= 3.040E-08 alpha_mix =  0.700 |ddv_scf|^2 =  4.974E-13

      iter #   9 total cpu time :   274.4 secs   av.it.:   8.8
      thresh= 7.053E-08 alpha_mix =  0.700 |ddv_scf|^2 =  8.050E-15

      iter #  10 total cpu time :   275.9 secs   av.it.:  10.3
      thresh= 8.972E-09 alpha_mix =  0.700 |ddv_scf|^2 =  3.652E-15

      iter #  11 total cpu time :   277.4 secs   av.it.:   9.3
      thresh= 6.043E-09 alpha_mix =  0.700 |ddv_scf|^2 =  8.242E-16

      iter #  12 total cpu time :   279.2 secs   av.it.:   9.8
      thresh= 2.871E-09 alpha_mix =  0.700 |ddv_scf|^2 =  1.115E-17

     End of self-consistent calculation

     Convergence has been achieved 


     Representation #  3 mode #   3

     Self-consistent Calculation

      iter #   1 total cpu time :   284.1 secs   av.it.:   5.9
      thresh= 1.000E-02 alpha_mix =  0.700 |ddv_scf|^2 =  5.369E-05

      iter #   2 total cpu time :   286.0 secs   av.it.:  10.4
      thresh= 7.328E-04 alpha_mix =  0.700 |ddv_scf|^2 =  5.658E-04

      iter #   3 total cpu time :   287.8 secs   av.it.:   8.3
      thresh= 2.379E-03 alpha_mix =  0.700 |ddv_scf|^2 =  5.207E-08

      iter #   4 total cpu time :   289.4 secs   av.it.:  11.0
      thresh= 2.282E-05 alpha_mix =  0.700 |ddv_scf|^2 =  2.869E-09

      iter #   5 total cpu time :   291.1 secs   av.it.:  10.9
      thresh= 5.356E-06 alpha_mix =  0.700 |ddv_scf|^2 =  1.252E-10

      iter #   6 total cpu time :   292.7 secs   av.it.:  11.1
      thresh= 1.119E-06 alpha_mix =  0.700 |ddv_scf|^2 =  7.776E-12

      iter #   7 total cpu time :   294.7 secs   av.it.:  11.0
      thresh= 2.789E-07 alpha_mix =  0.700 |ddv_scf|^2 =  5.347E-13

      iter #   8 total cpu time :   296.6 secs   av.it.:   9.9
      thresh= 7.312E-08 alpha_mix =  0.700 |ddv_scf|^2 =  8.867E-13

      iter #   9 total cpu time :   298.3 secs   av.it.:   9.2
      thresh= 9.416E-08 alpha_mix =  0.700 |ddv_scf|^2 =  6.233E-14

      iter #  10 total cpu time :   300.1 secs   av.it.:   9.3
      thresh= 2.497E-08 alpha_mix =  0.700 |ddv_scf|^2 =  1.141E-14

      iter #  11 total cpu time :   301.6 secs   av.it.:   9.8
      thresh= 1.068E-08 alpha_mix =  0.700 |ddv_scf|^2 =  4.965E-17

     End of self-consistent calculation

     Convergence has been achieved 


     Representation #  4 mode #   4

     Self-consistent Calculation

      iter #   1 total cpu time :   303.4 secs   av.it.:   5.6
      thresh= 1.000E-02 alpha_mix =  0.700 |ddv_scf|^2 =  1.120E-05

      iter #   2 total cpu time :   305.3 secs   av.it.:  10.7
      thresh= 3.347E-04 alpha_mix =  0.700 |ddv_scf|^2 =  1.130E-04

      iter #   3 total cpu time :   306.7 secs   av.it.:   8.4
      thresh= 1.063E-03 alpha_mix =  0.700 |ddv_scf|^2 =  6.395E-08

      iter #   4 total cpu time :   308.8 secs   av.it.:  10.9
      thresh= 2.529E-05 alpha_mix =  0.700 |ddv_scf|^2 =  1.340E-09

      iter #   5 total cpu time :   310.4 secs   av.it.:  11.0
      thresh= 3.660E-06 alpha_mix =  0.700 |ddv_scf|^2 =  1.205E-10

      iter #   6 total cpu time :   312.3 secs   av.it.:  11.0
      thresh= 1.098E-06 alpha_mix =  0.700 |ddv_scf|^2 =  3.784E-12

      iter #   7 total cpu time :   314.0 secs   av.it.:  11.0
      thresh= 1.945E-07 alpha_mix =  0.700 |ddv_scf|^2 =  5.704E-12

      iter #   8 total cpu time :   315.3 secs   av.it.:   9.1
      thresh= 2.388E-07 alpha_mix =  0.700 |ddv_scf|^2 =  1.618E-12

      iter #   9 total cpu time :   316.8 secs   av.it.:   9.6
      thresh= 1.272E-07 alpha_mix =  0.700 |ddv_scf|^2 =  1.451E-12

      iter #  10 total cpu time :   319.2 secs   av.it.:   9.2
      thresh= 1.205E-07 alpha_mix =  0.700 |ddv_scf|^2 =  4.752E-15

      iter #  11 total cpu time :   321.4 secs   av.it.:  11.1
      thresh= 6.894E-09 alpha_mix =  0.700 |ddv_scf|^2 =  1.535E-15

      iter #  12 total cpu time :   323.1 secs   av.it.:  10.8
      thresh= 3.918E-09 alpha_mix =  0.700 |ddv_scf|^2 =  9.140E-17

     End of self-consistent calculation

     Convergence has been achieved 


     Representation #  5 mode #   5

     Self-consistent Calculation

      iter #   1 total cpu time :   324.4 secs   av.it.:   5.3
      thresh= 1.000E-02 alpha_mix =  0.700 |ddv_scf|^2 =  2.490E-07

      iter #   2 total cpu time :   326.5 secs   av.it.:  11.0
      thresh= 4.990E-05 alpha_mix =  0.700 |ddv_scf|^2 =  3.045E-08

      iter #   3 total cpu time :   328.3 secs   av.it.:  10.8
      thresh= 1.745E-05 alpha_mix =  0.700 |ddv_scf|^2 =  6.537E-10

      iter #   4 total cpu time :   330.1 secs   av.it.:  10.6
      thresh= 2.557E-06 alpha_mix =  0.700 |ddv_scf|^2 =  1.655E-12

      iter #   5 total cpu time :   332.1 secs   av.it.:  10.7
      thresh= 1.286E-07 alpha_mix =  0.700 |ddv_scf|^2 =  8.352E-14

      iter #   6 total cpu time :   334.4 secs   av.it.:  10.7
      thresh= 2.890E-08 alpha_mix =  0.700 |ddv_scf|^2 =  7.888E-16

      iter #   7 total cpu time :   336.0 secs   av.it.:  10.4
      thresh= 2.809E-09 alpha_mix =  0.700 |ddv_scf|^2 =  3.142E-17

     End of self-consistent calculation

     Convergence has been achieved 


     Representation #  6 mode #   6

     Self-consistent Calculation

      iter #   1 total cpu time :   337.5 secs   av.it.:   5.3
      thresh= 1.000E-02 alpha_mix =  0.700 |ddv_scf|^2 =  2.490E-07

      iter #   2 total cpu time :   339.6 secs   av.it.:  11.0
      thresh= 4.990E-05 alpha_mix =  0.700 |ddv_scf|^2 =  3.045E-08

      iter #   3 total cpu time :   341.2 secs   av.it.:  10.8
      thresh= 1.745E-05 alpha_mix =  0.700 |ddv_scf|^2 =  6.537E-10

      iter #   4 total cpu time :   342.7 secs   av.it.:  10.6
      thresh= 2.557E-06 alpha_mix =  0.700 |ddv_scf|^2 =  1.655E-12

      iter #   5 total cpu time :   344.3 secs   av.it.:  10.7
      thresh= 1.286E-07 alpha_mix =  0.700 |ddv_scf|^2 =  8.351E-14

      iter #   6 total cpu time :   345.8 secs   av.it.:  10.7
      thresh= 2.890E-08 alpha_mix =  0.700 |ddv_scf|^2 =  7.888E-16

      iter #   7 total cpu time :   347.3 secs   av.it.:  10.4
      thresh= 2.808E-09 alpha_mix =  0.700 |ddv_scf|^2 =  3.141E-17

     End of self-consistent calculation

     Convergence has been achieved 
 
     Number of q in the star =   24
     List of q in the star:
          1  -0.166666667   0.500000000  -0.166666667
          2   0.166666667   0.500000000   0.166666667
          3  -0.166666667   0.500000000   0.166666667
          4   0.166666667   0.500000000  -0.166666667
          5   0.500000000  -0.166666667   0.166666667
[...]

     End of self-consistent calculation

     Convergence has been achieved 
 
     Number of q in the star =   24
     List of q in the star:
          1   0.500000000  -0.166666667   0.833333333
          2   0.833333333   0.166666667   0.500000000
          3   0.500000000   0.166666667   0.833333333
          4  -0.833333333  -0.166666667   0.500000000
          5  -0.833333333  -0.166666667  -0.500000000
          6  -0.500000000  -0.166666667  -0.833333333
          7   0.833333333  -0.166666667   0.500000000
          8  -0.500000000  -0.166666667   0.833333333
          9  -0.833333333   0.166666667   0.500000000
         10   0.833333333   0.166666667  -0.500000000
         11   0.833333333  -0.166666667  -0.500000000
         12   0.500000000   0.166666667  -0.833333333
         13  -0.500000000   0.166666667   0.833333333
         14  -0.500000000   0.166666667  -0.833333333
         15  -0.833333333   0.166666667  -0.500000000
         16   0.833333333  -0.500000000   0.166666667
         17   0.833333333   0.500000000  -0.166666667
         18  -0.833333333  -0.500000000  -0.166666667
         19  -0.833333333   0.500000000   0.166666667
         20   0.166666667  -0.500000000   0.833333333
         21  -0.166666667   0.500000000   0.833333333
         22   0.166666667   0.500000000  -0.833333333
         23  -0.166666667  -0.500000000  -0.833333333
         24  -0.500000000   0.833333333   0.166666667

     Diagonalizing the dynamical matrix

     q = (    0.500000000  -0.166666667   0.833333333 ) 

 **************************************************************************
     freq (    1) =       5.158520 [THz] =     172.069716 [cm-1]
     freq (    2) =       6.152627 [THz] =     205.229543 [cm-1]
     freq (    3) =       9.617475 [THz] =     320.804436 [cm-1]
     freq (    4) =      11.061902 [THz] =     368.985329 [cm-1]
     freq (    5) =      13.505050 [THz] =     450.479980 [cm-1]
     freq (    6) =      13.722101 [THz] =     457.720007 [cm-1]
 **************************************************************************

     Calculation of q =   -0.3333333  -1.0000000   0.0000000
 
     Parallelization info
     --------------------
     sticks:   dense  smooth     PW     G-vecs:    dense   smooth      PW
     Min          55      27     11                 1090      382     101
     Max          57      28     12                 1091      391     103
     Sum         889     439    187                17453     6183    1639
 


     bravais-lattice index     =            2
     lattice parameter (alat)  =      10.3520  a.u.
     unit-cell volume          =     277.3402 (a.u.)^3
     number of atoms/cell      =            2
     number of atomic types    =            1
     number of electrons       =         8.00
     number of Kohn-Sham states=            4
     kinetic-energy cutoff     =      30.0000  Ry
     charge density cutoff     =     240.0000  Ry
     Exchange-correlation      = SLA  PW   PBE  PBE ( 1  4  3  4 0 0)

     celldm(1)=  10.352000  celldm(2)=   0.000000  celldm(3)=   0.000000
     celldm(4)=   0.000000  celldm(5)=   0.000000  celldm(6)=   0.000000

     crystal axes: (cart. coord. in units of alat)
               a(1) = (  -0.500000   0.000000   0.500000 )  
               a(2) = (   0.000000   0.500000   0.500000 )  
               a(3) = (  -0.500000   0.500000   0.000000 )  

     reciprocal axes: (cart. coord. in units 2 pi/alat)
               b(1) = ( -1.000000 -1.000000  1.000000 )  
               b(2) = (  1.000000  1.000000  1.000000 )  
               b(3) = ( -1.000000  1.000000 -1.000000 )  


     PseudoPot. # 1 for Si read from file:
     ./si_pbe_v1.uspp.F.UPF.txt
     MD5 check sum: a056efeee980c13900f22a371efd63c1
     Pseudo is Ultrasoft + core correction, Zval =  4.0
     Generated by new atomic code, or converted to UPF format
     Using radial grid of  899 points,  6 beta functions with: 
                l(1) =   0
                l(2) =   0
                l(3) =   1
                l(4) =   1
                l(5) =   2
                l(6) =   2
     Q(r) pseudized with  8 coefficients,  rinner =    0.900   0.900   0.900
                                                       0.900   0.900

     atomic species   valence    mass     pseudopotential
        Si             4.00    28.08600     Si( 1.00)

     48 Sym. Ops., with inversion, found



   Cartesian axes

     site n.     atom                  positions (alat units)
         1           Si  tau(   1) = (   0.0000000   0.0000000   0.0000000  )
         2           Si  tau(   2) = (   0.2500000   0.2500000   0.2500000  )

     number of k points=  3456

     Number of k-points >= 100: set verbosity='high' to print them.

     Dense  grid:    17453 G-vectors     FFT dimensions: (  40,  40,  40)

     Smooth grid:     6183 G-vectors     FFT dimensions: (  25,  25,  25)

     Largest allocated arrays     est. size (Mb)     dimensions
        Kohn-Sham Wavefunctions         0.00 Mb     (      55,    4)
        NL pseudopotentials             0.03 Mb     (      55,   36)
        Each V/rho on FFT grid          0.07 Mb     (    4800)
        Each G-vector array             0.01 Mb     (    1091)
        G-vector shells                 0.00 Mb     (     211)
     Largest temporary arrays     est. size (Mb)     dimensions
        Auxiliary wavefunctions         0.01 Mb     (      55,   16)
        Each subspace H/S matrix        0.00 Mb     (       8,    8)
        Each <psi_i|beta_j> matrix      0.00 Mb     (      36,    4)

     The potential is recalculated from file :
     ./silicon/_ph0/silicon.10.352.save/charge-density.dat

     Starting wfc are    8 atomic wfcs

     Band Structure Calculation
     Davidson diagonalization with overlap

     ethr =  1.25E-10,  avg # of iterations = 12.3

     total cpu time spent up to now is      128.5 secs

     End of band structure calculation

     Number of k-points >= 100: set verbosity='high' to print the bands.

     highest occupied level (ev):     5.8857

     Writing output data file silicon.10.352.save

                                                                                

     bravais-lattice index     =            2
     lattice parameter (alat)  =      10.3520  a.u.
     unit-cell volume          =     277.3402 (a.u.)^3
     number of atoms/cell      =            2
     number of atomic types    =            1
     kinetic-energy cut-off    =      30.0000  Ry
     charge density cut-off    =     240.0000  Ry
     convergence threshold     =      1.0E-16
     beta                      =       0.7000
     number of iterations used =            4
     Exchange-correlation      = SLA  PW   PBE  PBE ( 1  4  3  4 0 0)


     celldm(1)=   10.35200  celldm(2)=    0.00000  celldm(3)=    0.00000
     celldm(4)=    0.00000  celldm(5)=    0.00000  celldm(6)=    0.00000

     crystal axes: (cart. coord. in units of alat)
               a(1) = ( -0.5000  0.0000  0.5000 )  
               a(2) = (  0.0000  0.5000  0.5000 )  
               a(3) = ( -0.5000  0.5000  0.0000 )  

     reciprocal axes: (cart. coord. in units 2 pi/alat)
               b(1) = ( -1.0000 -1.0000  1.0000 )  
               b(2) = (  1.0000  1.0000  1.0000 )  
               b(3) = ( -1.0000  1.0000 -1.0000 )  


     Atoms inside the unit cell: 

     Cartesian axes

     site n.  atom      mass           positions (alat units)
        1     Si  28.0860   tau(    1) = (    0.00000    0.00000    0.00000  )
        2     Si  28.0860   tau(    2) = (    0.25000    0.25000    0.25000  )

     Computing dynamical matrix for 
                    q = (  -0.3333333  -1.0000000   0.0000000 )
 
      4 Sym.Ops. (no q -> -q+G )


     G cutoff =  651.4784  (   1091 G-vectors)     FFT grid: ( 40, 40, 40)
     G cutoff =  325.7392  (    386 G-vectors)  smooth grid: ( 25, 25, 25)
     number of k points=  3456

     PseudoPot. # 1 for Si read from file:
     ./si_pbe_v1.uspp.F.UPF.txt
     MD5 check sum: a056efeee980c13900f22a371efd63c1
     Pseudo is Ultrasoft + core correction, Zval =  4.0
     Generated by new atomic code, or converted to UPF format
     Using radial grid of  899 points,  6 beta functions with: 
                l(1) =   0
                l(2) =   0
                l(3) =   1
                l(4) =   1
                l(5) =   2
                l(6) =   2
     Q(r) pseudized with  8 coefficients,  rinner =    0.900   0.900   0.900
                                                       0.900   0.900


     Atomic displacements:
     There are   3 irreducible representations

     Representation     1      2 modes -  To be done

     Representation     2      2 modes -  To be done

     Representation     3      2 modes -  To be done



     Alpha used in Ewald sum =   2.5000
     PHONON       : 19m 6.22s CPU    21m25.74s WALL



     Representation #  1 modes #   1  2

     Self-consistent Calculation

      iter #   1 total cpu time :  1287.2 secs   av.it.:   5.6
      thresh= 1.000E-02 alpha_mix =  0.700 |ddv_scf|^2 =  3.737E-07

      iter #   2 total cpu time :  1288.9 secs   av.it.:  12.0
      thresh= 6.113E-05 alpha_mix =  0.700 |ddv_scf|^2 =  2.002E-07

      iter #   3 total cpu time :  1290.6 secs   av.it.:  11.7
      thresh= 4.474E-05 alpha_mix =  0.700 |ddv_scf|^2 =  3.115E-09

      iter #   4 total cpu time :  1292.5 secs   av.it.:  11.6
      thresh= 5.581E-06 alpha_mix =  0.700 |ddv_scf|^2 =  3.706E-10

      iter #   5 total cpu time :  1294.7 secs   av.it.:  11.5
      thresh= 1.925E-06 alpha_mix =  0.700 |ddv_scf|^2 =  9.626E-13

      iter #   6 total cpu time :  1296.4 secs   av.it.:  11.9
      thresh= 9.811E-08 alpha_mix =  0.700 |ddv_scf|^2 =  3.341E-14

      iter #   7 total cpu time :  1298.0 secs   av.it.:  11.5
      thresh= 1.828E-08 alpha_mix =  0.700 |ddv_scf|^2 =  2.702E-15

      iter #   8 total cpu time :  1300.2 secs   av.it.:  11.5
      thresh= 5.198E-09 alpha_mix =  0.700 |ddv_scf|^2 =  2.535E-17

     End of self-consistent calculation

     Convergence has been achieved 


     Representation #  2 modes #   3  4

     Self-consistent Calculation

      iter #   1 total cpu time :  1301.8 secs   av.it.:   5.8
      thresh= 1.000E-02 alpha_mix =  0.700 |ddv_scf|^2 =  9.476E-07

      iter #   2 total cpu time :  1303.5 secs   av.it.:  12.0
      thresh= 9.734E-05 alpha_mix =  0.700 |ddv_scf|^2 =  1.177E-06

      iter #   3 total cpu time :  1305.1 secs   av.it.:  11.2
      thresh= 1.085E-04 alpha_mix =  0.700 |ddv_scf|^2 =  4.495E-09

      iter #   4 total cpu time :  1307.9 secs   av.it.:  11.7
      thresh= 6.705E-06 alpha_mix =  0.700 |ddv_scf|^2 =  1.843E-10

      iter #   5 total cpu time :  1309.4 secs   av.it.:  11.5
      thresh= 1.358E-06 alpha_mix =  0.700 |ddv_scf|^2 =  3.632E-13

      iter #   6 total cpu time :  1311.0 secs   av.it.:  11.4
      thresh= 6.027E-08 alpha_mix =  0.700 |ddv_scf|^2 =  2.033E-14

      iter #   7 total cpu time :  1316.5 secs   av.it.:  11.3
      thresh= 1.426E-08 alpha_mix =  0.700 |ddv_scf|^2 =  3.795E-16

      iter #   8 total cpu time :  1319.4 secs   av.it.:  11.9
      thresh= 1.948E-09 alpha_mix =  0.700 |ddv_scf|^2 =  1.158E-16

      iter #   9 total cpu time :  1322.2 secs   av.it.:  11.6
      thresh= 1.076E-09 alpha_mix =  0.700 |ddv_scf|^2 =  7.784E-18

     End of self-consistent calculation

     Convergence has been achieved 


     Representation #  3 modes #   5  6

     Self-consistent Calculation

      iter #   1 total cpu time :  1324.1 secs   av.it.:   5.3
      thresh= 1.000E-02 alpha_mix =  0.700 |ddv_scf|^2 =  3.394E-07

      iter #   2 total cpu time :  1325.8 secs   av.it.:  12.0
      thresh= 5.826E-05 alpha_mix =  0.700 |ddv_scf|^2 =  4.209E-07

      iter #   3 total cpu time :  1327.4 secs   av.it.:  11.3
      thresh= 6.488E-05 alpha_mix =  0.700 |ddv_scf|^2 =  2.069E-09

      iter #   4 total cpu time :  1329.4 secs   av.it.:  11.7
      thresh= 4.549E-06 alpha_mix =  0.700 |ddv_scf|^2 =  2.148E-10

      iter #   5 total cpu time :  1331.3 secs   av.it.:  11.6
      thresh= 1.466E-06 alpha_mix =  0.700 |ddv_scf|^2 =  1.718E-12

      iter #   6 total cpu time :  1332.9 secs   av.it.:  11.9
      thresh= 1.311E-07 alpha_mix =  0.700 |ddv_scf|^2 =  4.500E-14

      iter #   7 total cpu time :  1334.8 secs   av.it.:  11.6
      thresh= 2.121E-08 alpha_mix =  0.700 |ddv_scf|^2 =  2.620E-15

      iter #   8 total cpu time :  1336.5 secs   av.it.:  11.6
      thresh= 5.119E-09 alpha_mix =  0.700 |ddv_scf|^2 =  2.058E-17

     End of self-consistent calculation

     Convergence has been achieved 
 
     Number of q in the star =   12
     List of q in the star:
          1  -0.333333333  -1.000000000   0.000000000
          2   0.000000000  -1.000000000  -0.333333333
          3   0.000000000  -1.000000000   0.333333333
          4   0.333333333  -1.000000000   0.000000000
          5  -1.000000000   0.000000000  -0.333333333
          6   1.000000000   0.000000000   0.333333333
          7   0.000000000   0.333333333   1.000000000
          8   0.000000000  -0.333333333  -1.000000000
          9  -1.000000000  -0.333333333   0.000000000
         10   1.000000000   0.333333333   0.000000000
         11  -0.333333333   0.000000000   1.000000000
         12   0.333333333   0.000000000   1.000000000

     Diagonalizing the dynamical matrix

     q = (   -0.333333333  -1.000000000   0.000000000 ) 

 **************************************************************************
     freq (    1) =       5.634218 [THz] =     187.937282 [cm-1]
     freq (    2) =       5.634218 [THz] =     187.937282 [cm-1]
     freq (    3) =      10.668660 [THz] =     355.868207 [cm-1]
     freq (    4) =      10.668660 [THz] =     355.868207 [cm-1]
     freq (    5) =      13.439279 [THz] =     448.286110 [cm-1]
     freq (    6) =      13.439279 [THz] =     448.286110 [cm-1]
 **************************************************************************
 
     init_run     :      0.80s CPU      1.05s WALL (      15 calls)
     electrons    :     59.34s CPU     68.21s WALL (      15 calls)

     Called by init_run:
     wfcinit      :      0.01s CPU      0.19s WALL (      15 calls)
     potinit      :      0.14s CPU      0.20s WALL (      15 calls)

     Called by electrons:
     c_bands      :     59.33s CPU     68.20s WALL (      15 calls)
     v_of_rho     :      0.03s CPU      0.04s WALL (      16 calls)
     newd         :      0.07s CPU      0.07s WALL (      16 calls)

     Called by c_bands:
     init_us_2    :      1.74s CPU      2.04s WALL (   85207 calls)
     cegterg      :     17.69s CPU     18.34s WALL (    2692 calls)

     Called by sum_band:

     Called by *egterg:
     h_psi        :     13.68s CPU     14.20s WALL (   38976 calls)
     s_psi        :     21.23s CPU     23.89s WALL ( 1801305 calls)
     g_psi        :      0.11s CPU      0.09s WALL (   33592 calls)
     cdiaghg      :      2.80s CPU      2.98s WALL (   36284 calls)

     Called by h_psi:
     add_vuspsi   :     12.78s CPU     14.02s WALL (  882547 calls)

     General routines
     calbec       :     53.53s CPU     57.92s WALL ( 1938340 calls)
     fft          :      1.60s CPU      1.67s WALL (   15555 calls)
     ffts         :      6.24s CPU      6.37s WALL (   10518 calls)
     fftw         :    238.87s CPU    259.82s WALL ( 7893308 calls)
     interpolate  :      0.48s CPU      0.49s WALL (    1794 calls)
     davcio       :     14.36s CPU     26.71s WALL (  383426 calls)
 
     Parallel routines
     fft_scatter  :    141.18s CPU    153.95s WALL ( 7919381 calls)
 
     PHONON       : 19m51.39s CPU    22m16.97s WALL

     INITIALIZATION: 
     phq_setup    :      0.22s CPU      0.44s WALL (      16 calls)
     phq_init     :     22.49s CPU     23.47s WALL (      16 calls)
 
     phq_init     :     22.49s CPU     23.47s WALL (      16 calls)
     set_drhoc    :      0.58s CPU      0.61s WALL (      48 calls)
     init_vloc    :      0.02s CPU      0.02s WALL (      16 calls)
     init_us_1    :      0.42s CPU      0.44s WALL (      16 calls)
     newd         :      0.07s CPU      0.07s WALL (      16 calls)
     dvanqq       :      0.51s CPU      0.52s WALL (      16 calls)
     drho         :     16.60s CPU     16.95s WALL (      16 calls)
 
     DYNAMICAL MATRIX:
     dynmat0      :      1.86s CPU      2.05s WALL (      16 calls)
     phqscf       :   1066.05s CPU   1162.03s WALL (      16 calls)
     dynmatrix    :      1.47s CPU      1.86s WALL (      16 calls)
 
     phqscf       :   1066.05s CPU   1162.03s WALL (      16 calls)
     solve_linter :   1063.61s CPU   1153.51s WALL (      76 calls)
     drhodv       :      2.18s CPU      2.59s WALL (      76 calls)
 
     dynmat0      :      1.86s CPU      2.05s WALL (      16 calls)
     dynmat_us    :      1.36s CPU      1.44s WALL (      16 calls)
     d2ionq       :      0.02s CPU      0.01s WALL (      16 calls)
     dynmatcc     :      0.44s CPU      0.45s WALL (      16 calls)
 
     dynmat_us    :      1.36s CPU      1.44s WALL (      16 calls)
     addusdynmat  :      0.00s CPU      0.00s WALL (      16 calls)
 
     phqscf       :   1066.05s CPU   1162.03s WALL (      16 calls)
     solve_linter :   1063.61s CPU   1153.51s WALL (      76 calls)
 
     solve_linter :   1063.61s CPU   1153.51s WALL (      76 calls)
     dvqpsi_us    :     10.44s CPU     11.33s WALL (    8172 calls)
     ortho        :      5.64s CPU      6.18s WALL (   75163 calls)
     cgsolve      :    348.09s CPU    380.87s WALL (   75163 calls)
     incdrhoscf   :     27.49s CPU     29.32s WALL (   75163 calls)
     addusddens   :      3.50s CPU      3.68s WALL (     750 calls)
     vpsifft      :     17.23s CPU     18.90s WALL (   66847 calls)
     dv_of_drho   :      1.22s CPU      1.22s WALL (     835 calls)
     mix_pot      :      2.03s CPU     15.17s WALL (     681 calls)
     psymdvscf    :     14.83s CPU     14.88s WALL (     674 calls)
     newdq        :      3.64s CPU      3.71s WALL (     681 calls)
     adddvscf     :      1.40s CPU      1.54s WALL (   66991 calls)
     drhodvus     :      0.03s CPU      0.06s WALL (      76 calls)
 
     dvqpsi_us    :     10.44s CPU     11.33s WALL (    8172 calls)
     dvqpsi_us_on :      2.48s CPU      2.94s WALL (    8172 calls)
 
     cgsolve      :    348.09s CPU    380.87s WALL (   75163 calls)
     ch_psi       :    320.76s CPU    351.51s WALL (  843571 calls)
 
     ch_psi       :    320.76s CPU    351.51s WALL (  843571 calls)
     h_psiq       :    265.24s CPU    290.71s WALL (  843571 calls)
     last         :     52.51s CPU     57.62s WALL (  843571 calls)
 
     h_psiq       :    265.24s CPU    290.71s WALL (  843571 calls)
     firstfft     :    113.57s CPU    123.45s WALL ( 3169601 calls)
     secondfft    :     93.73s CPU    103.00s WALL ( 3169601 calls)
     add_vuspsi   :     12.78s CPU     14.02s WALL (  882547 calls)
 
     incdrhoscf   :     27.49s CPU     29.32s WALL (   75163 calls)
     addusdbec    :      3.16s CPU      3.49s WALL (   83287 calls)
 
     drhodvus     :      0.03s CPU      0.06s WALL (      76 calls)
 
      General routines
     calbec       :     53.53s CPU     57.92s WALL ( 1938340 calls)
     fft          :      1.60s CPU      1.67s WALL (   15555 calls)
     ffts         :      6.24s CPU      6.37s WALL (   10518 calls)
     fftw         :    238.87s CPU    259.82s WALL ( 7893308 calls)
     davcio       :     14.36s CPU     26.71s WALL (  383426 calls)
     write_rec    :      1.68s CPU     37.79s WALL (     757 calls)
 
 
     PHONON       : 19m51.39s CPU    22m16.97s WALL

 
   This run was terminated on:  15: 7:20   7Apr2018            

=------------------------------------------------------------------------------=
   JOB DONE.
=------------------------------------------------------------------------------=
Application 30446217 resources: utime ~482447s, stime ~14832s, Rss ~32332, inblocks ~1110114818, outblocks ~523680616
