
     Program Q2R v.6.1 (svn rev. 13369) starts on  7Apr2018 at 17:35:26 

     This program is part of the open-source Quantum ESPRESSO suite
     for quantum simulation of materials; please cite
         "P. Giannozzi et al., J. Phys.:Condens. Matter 21 395502 (2009);
          URL http://www.quantum-espresso.org", 
     in publications or presentations arising from this work. More details at
     http://www.quantum-espresso.org/quote

     Parallel version (MPI), running on     4 processors
     R & G space division:  proc/nbgrp/npool/nimage =       4

     reading grid info from file silicon.10.328.dyn0    
  reading force constants from file silicon.10.328.dyn1
 macroscopic fields = T
  12.97004  -0.00000   0.00000
  -0.00000  12.97004  -0.00000
  -0.00000   0.00000  12.97004
  na=            1
   0.01942   0.00000   0.00000
   0.00000   0.01942  -0.00000
   0.00000  -0.00000   0.01942
  na=            2
   0.01942  -0.00000  -0.00000
  -0.00000   0.01942   0.00000
  -0.00000   0.00000   0.01942
  nqs=            1
 q=   0.00000000  0.00000000  0.00000000
  reading force constants from file silicon.10.328.dyn2
  nqs=            8
 q=  -0.16666667  0.16666667 -0.16666667
 q=   0.16666667  0.16666667  0.16666667
 q=  -0.16666667 -0.16666667 -0.16666667
 q=   0.16666667 -0.16666667  0.16666667
 q=   0.16666667 -0.16666667 -0.16666667
 q=   0.16666667  0.16666667 -0.16666667
 q=  -0.16666667 -0.16666667  0.16666667
 q=  -0.16666667  0.16666667  0.16666667
  reading force constants from file silicon.10.328.dyn3
  nqs=            8
 q=  -0.33333333  0.33333333 -0.33333333
 q=   0.33333333  0.33333333  0.33333333
 q=  -0.33333333 -0.33333333 -0.33333333
 q=   0.33333333 -0.33333333  0.33333333
 q=   0.33333333 -0.33333333 -0.33333333
 q=   0.33333333  0.33333333 -0.33333333
 q=  -0.33333333 -0.33333333  0.33333333
 q=  -0.33333333  0.33333333  0.33333333
  reading force constants from file silicon.10.328.dyn4
  nqs=            4
 q=   0.50000000 -0.50000000  0.50000000
 q=   0.50000000  0.50000000  0.50000000
 q=  -0.50000000  0.50000000  0.50000000
 q=   0.50000000  0.50000000 -0.50000000
  reading force constants from file silicon.10.328.dyn5
  nqs=            6
 q=   0.00000000  0.33333333  0.00000000
 q=   0.33333333  0.00000000  0.00000000
 q=   0.00000000  0.00000000  0.33333333
 q=   0.00000000 -0.33333333  0.00000000
 q=  -0.33333333  0.00000000  0.00000000
 q=   0.00000000  0.00000000 -0.33333333
  reading force constants from file silicon.10.328.dyn6
  nqs=           24
 q=  -0.16666667  0.50000000 -0.16666667
 q=   0.16666667  0.50000000  0.16666667
 q=  -0.16666667  0.50000000  0.16666667
 q=   0.16666667  0.50000000 -0.16666667
 q=   0.50000000 -0.16666667  0.16666667
 q=   0.16666667 -0.16666667  0.50000000
 q=  -0.16666667 -0.50000000 -0.16666667
 q=   0.16666667 -0.50000000 -0.16666667
 q=  -0.16666667 -0.50000000  0.16666667
 q=   0.50000000 -0.16666667 -0.16666667
 q=  -0.50000000 -0.16666667  0.16666667
 q=   0.50000000  0.16666667  0.16666667
 q=  -0.16666667  0.16666667 -0.50000000
 q=  -0.16666667 -0.16666667  0.50000000
 q=   0.16666667  0.16666667  0.50000000
 q=   0.16666667 -0.16666667 -0.50000000
 q=  -0.50000000  0.16666667 -0.16666667
 q=  -0.50000000 -0.16666667 -0.16666667
 q=   0.16666667 -0.50000000  0.16666667
 q=   0.50000000  0.16666667 -0.16666667
 q=   0.16666667  0.16666667 -0.50000000
 q=  -0.16666667 -0.16666667 -0.50000000
 q=  -0.50000000  0.16666667  0.16666667
 q=  -0.16666667  0.16666667  0.50000000
  reading force constants from file silicon.10.328.dyn7
  nqs=           24
 q=   0.66666667 -0.33333333  0.66666667
 q=  -0.66666667 -0.33333333 -0.66666667
 q=   0.66666667 -0.33333333 -0.66666667
 q=  -0.66666667 -0.33333333  0.66666667
 q=  -0.33333333  0.66666667 -0.66666667
 q=  -0.66666667  0.66666667 -0.33333333
 q=   0.66666667  0.33333333  0.66666667
 q=  -0.66666667  0.33333333  0.66666667
 q=   0.66666667  0.33333333 -0.66666667
 q=  -0.33333333  0.66666667  0.66666667
 q=   0.33333333  0.66666667 -0.66666667
 q=  -0.33333333 -0.66666667 -0.66666667
 q=   0.66666667 -0.66666667  0.33333333
 q=   0.66666667  0.66666667 -0.33333333
 q=  -0.66666667 -0.66666667 -0.33333333
 q=  -0.66666667  0.66666667  0.33333333
 q=   0.33333333 -0.66666667  0.66666667
 q=   0.33333333  0.66666667  0.66666667
 q=  -0.66666667  0.33333333 -0.66666667
 q=  -0.33333333 -0.66666667  0.66666667
 q=  -0.66666667 -0.66666667  0.33333333
 q=   0.66666667  0.66666667  0.33333333
 q=   0.33333333 -0.66666667 -0.66666667
 q=   0.66666667 -0.66666667 -0.33333333
  reading force constants from file silicon.10.328.dyn8
  nqs=           24
 q=   0.50000000 -0.16666667  0.50000000
 q=  -0.50000000 -0.16666667 -0.50000000
 q=   0.50000000 -0.16666667 -0.50000000
 q=  -0.50000000 -0.16666667  0.50000000
 q=  -0.16666667  0.50000000 -0.50000000
 q=  -0.50000000  0.50000000 -0.16666667
 q=   0.50000000  0.16666667  0.50000000
 q=  -0.50000000  0.16666667  0.50000000
 q=   0.50000000  0.16666667 -0.50000000
 q=  -0.16666667  0.50000000  0.50000000
 q=   0.16666667  0.50000000 -0.50000000
 q=  -0.16666667 -0.50000000 -0.50000000
 q=   0.50000000 -0.50000000  0.16666667
 q=   0.50000000  0.50000000 -0.16666667
 q=  -0.50000000 -0.50000000 -0.16666667
 q=  -0.50000000  0.50000000  0.16666667
 q=   0.16666667 -0.50000000  0.50000000
 q=   0.16666667  0.50000000  0.50000000
 q=  -0.50000000  0.16666667 -0.50000000
 q=  -0.16666667 -0.50000000  0.50000000
 q=  -0.50000000 -0.50000000  0.16666667
 q=   0.50000000  0.50000000  0.16666667
 q=   0.16666667 -0.50000000 -0.50000000
 q=   0.50000000 -0.50000000 -0.16666667
  reading force constants from file silicon.10.328.dyn9
  nqs=           12
 q=   0.33333333  0.00000000  0.33333333
 q=  -0.33333333  0.00000000  0.33333333
 q=   0.33333333  0.00000000 -0.33333333
 q=  -0.33333333  0.00000000 -0.33333333
 q=   0.00000000  0.33333333 -0.33333333
 q=  -0.33333333  0.33333333  0.00000000
 q=   0.00000000  0.33333333  0.33333333
 q=   0.00000000 -0.33333333 -0.33333333
 q=   0.33333333 -0.33333333  0.00000000
 q=   0.33333333  0.33333333  0.00000000
 q=  -0.33333333 -0.33333333  0.00000000
 q=   0.00000000 -0.33333333  0.33333333
  reading force constants from file silicon.10.328.dyn10
  nqs=            6
 q=   0.00000000  0.66666667  0.00000000
 q=   0.66666667  0.00000000  0.00000000
 q=   0.00000000  0.00000000  0.66666667
 q=   0.00000000 -0.66666667  0.00000000
 q=  -0.66666667  0.00000000  0.00000000
 q=   0.00000000  0.00000000 -0.66666667
  reading force constants from file silicon.10.328.dyn11
  nqs=           24
 q=   0.83333333 -0.16666667  0.83333333
 q=  -0.83333333 -0.16666667  0.83333333
 q=   0.83333333 -0.16666667 -0.83333333
 q=  -0.83333333 -0.16666667 -0.83333333
 q=  -0.16666667  0.83333333 -0.83333333
 q=  -0.83333333  0.83333333 -0.16666667
 q=   0.83333333  0.16666667  0.83333333
 q=  -0.83333333  0.16666667  0.83333333
 q=   0.83333333  0.16666667 -0.83333333
 q=  -0.16666667  0.83333333  0.83333333
 q=   0.16666667  0.83333333 -0.83333333
 q=  -0.16666667 -0.83333333 -0.83333333
 q=   0.83333333 -0.83333333  0.16666667
 q=   0.83333333  0.83333333 -0.16666667
 q=  -0.83333333 -0.83333333 -0.16666667
 q=  -0.83333333  0.83333333  0.16666667
 q=   0.16666667 -0.83333333  0.83333333
 q=   0.16666667  0.83333333  0.83333333
 q=  -0.83333333  0.16666667 -0.83333333
 q=  -0.16666667 -0.83333333  0.83333333
 q=  -0.83333333 -0.83333333  0.16666667
 q=   0.83333333  0.83333333  0.16666667
 q=   0.16666667 -0.83333333 -0.83333333
 q=   0.83333333 -0.83333333 -0.16666667
  reading force constants from file silicon.10.328.dyn12
  nqs=           12
 q=   0.66666667  0.00000000  0.66666667
 q=  -0.66666667  0.00000000  0.66666667
 q=  -0.66666667  0.00000000 -0.66666667
 q=   0.66666667  0.00000000 -0.66666667
 q=   0.00000000  0.66666667 -0.66666667
 q=  -0.66666667  0.66666667  0.00000000
 q=   0.00000000  0.66666667  0.66666667
 q=   0.00000000 -0.66666667 -0.66666667
 q=   0.66666667 -0.66666667  0.00000000
 q=   0.66666667  0.66666667  0.00000000
 q=  -0.66666667 -0.66666667  0.00000000
 q=   0.00000000 -0.66666667  0.66666667
  reading force constants from file silicon.10.328.dyn13
  nqs=            3
 q=   0.00000000 -1.00000000  0.00000000
 q=  -1.00000000  0.00000000  0.00000000
 q=   0.00000000  0.00000000  1.00000000
  reading force constants from file silicon.10.328.dyn14
  nqs=           24
 q=   0.66666667 -0.33333333  1.00000000
 q=   1.00000000  0.33333333  0.66666667
 q=   0.66666667  0.33333333  1.00000000
 q=  -1.00000000 -0.33333333  0.66666667
 q=  -1.00000000 -0.33333333 -0.66666667
 q=  -0.66666667 -0.33333333 -1.00000000
 q=   1.00000000  0.33333333 -0.66666667
 q=  -0.66666667  0.33333333  1.00000000
 q=  -0.33333333  1.00000000  0.66666667
 q=   0.33333333  1.00000000 -0.66666667
 q=  -0.33333333 -1.00000000 -0.66666667
 q=   1.00000000 -0.66666667  0.33333333
 q=   1.00000000  0.66666667 -0.33333333
 q=  -0.33333333  0.66666667 -1.00000000
 q=  -1.00000000 -0.66666667 -0.33333333
 q=  -1.00000000  0.66666667  0.33333333
 q=   0.33333333 -0.66666667  1.00000000
 q=   0.33333333 -1.00000000  0.66666667
 q=   0.66666667 -1.00000000  0.33333333
 q=   0.33333333  0.66666667  1.00000000
 q=  -0.33333333 -0.66666667 -1.00000000
 q=  -0.66666667 -1.00000000  0.33333333
 q=   0.66666667  1.00000000 -0.33333333
 q=  -0.66666667 -1.00000000 -0.33333333
  reading force constants from file silicon.10.328.dyn15
  nqs=           24
 q=   0.50000000 -0.16666667  0.83333333
 q=   0.83333333  0.16666667  0.50000000
 q=   0.50000000  0.16666667  0.83333333
 q=  -0.83333333 -0.16666667  0.50000000
 q=  -0.83333333 -0.16666667 -0.50000000
 q=  -0.50000000 -0.16666667 -0.83333333
 q=   0.83333333 -0.16666667  0.50000000
 q=  -0.50000000 -0.16666667  0.83333333
 q=  -0.83333333  0.16666667  0.50000000
 q=   0.83333333  0.16666667 -0.50000000
 q=   0.83333333 -0.16666667 -0.50000000
 q=   0.50000000  0.16666667 -0.83333333
 q=  -0.50000000  0.16666667  0.83333333
 q=  -0.50000000  0.16666667 -0.83333333
 q=  -0.83333333  0.16666667 -0.50000000
 q=   0.83333333 -0.50000000  0.16666667
 q=   0.83333333  0.50000000 -0.16666667
 q=  -0.83333333 -0.50000000 -0.16666667
 q=  -0.83333333  0.50000000  0.16666667
 q=   0.16666667 -0.50000000  0.83333333
 q=  -0.16666667  0.50000000  0.83333333
 q=   0.16666667  0.50000000 -0.83333333
 q=  -0.16666667 -0.50000000 -0.83333333
 q=  -0.50000000  0.83333333  0.16666667
  reading force constants from file silicon.10.328.dyn16
  nqs=           12
 q=  -0.33333333 -1.00000000  0.00000000
 q=   0.00000000 -1.00000000 -0.33333333
 q=   0.00000000 -1.00000000  0.33333333
 q=   0.33333333 -1.00000000  0.00000000
 q=  -1.00000000  0.00000000 -0.33333333
 q=   1.00000000  0.00000000  0.33333333
 q=   0.00000000  0.33333333  1.00000000
 q=   0.00000000 -0.33333333 -1.00000000
 q=  -1.00000000 -0.33333333  0.00000000
 q=   1.00000000  0.33333333  0.00000000
 q=  -0.33333333  0.00000000  1.00000000
 q=   0.33333333  0.00000000  1.00000000

      q-space grid ok, #points =  216

      fft-check success (sum of imaginary terms < 10^-12)

     Q2R          :     0.03s CPU         0.09s WALL


   This run was terminated on:  17:35:26   7Apr2018            

=------------------------------------------------------------------------------=
   JOB DONE.
=------------------------------------------------------------------------------=
