
     Program PWSCF v.5.4.0 starts on  7Apr2018 at 15:53:42 

     This program is part of the open-source Quantum ESPRESSO suite
     for quantum simulation of materials; please cite
         "P. Giannozzi et al., J. Phys.:Condens. Matter 21 395502 (2009);
          URL http://www.quantum-espresso.org", 
     in publications or presentations arising from this work. More details at
     http://www.quantum-espresso.org/quote

     Parallel version (MPI & OpenMP), running on     384 processor cores
     Number of MPI processes:               384
     Threads/MPI process:                     1
     K-points division:     npool     =      24
     R & G space division:  proc/nbgrp/npool/nimage =      16
     Waiting for input...
     Reading input from standard input
     Message from routine read_cards :
     DEPRECATED: no units specified in ATOMIC_POSITIONS card
     Message from routine read_cards :
     ATOMIC_POSITIONS: units set to alat

     Current dimensions of program PWSCF are:
     Max number of different atomic species (ntypx) = 10
     Max number of k-points (npk) =  40000
     Max angular momentum in pseudopotentials (lmaxx) =  3

     Subspace diagonalization in iterative solution of the eigenvalue problem:
     one sub-group per band group will be used
     scalapack distributed-memory algorithm (size of sub-group:  2*  2 procs)

 
     Parallelization info
     --------------------
     sticks:   dense  smooth     PW     G-vecs:    dense   smooth      PW
     Min          55      27      9                 1097      380      76
     Max          56      28     10                 1100      398      79
     Sum         889     439    151                17573     6231    1243
 


     bravais-lattice index     =            2
     lattice parameter (alat)  =      10.3880  a.u.
     unit-cell volume          =     280.2437 (a.u.)^3
     number of atoms/cell      =            2
     number of atomic types    =            1
     number of electrons       =         8.00
     number of Kohn-Sham states=            4
     kinetic-energy cutoff     =      30.0000  Ry
     charge density cutoff     =     240.0000  Ry
     convergence threshold     =      1.0E-10
     mixing beta               =       0.7000
     number of iterations used =            8  plain     mixing
     Exchange-correlation      = SLA  PW   PBE  PBE ( 1  4  3  4 0 0)

     celldm(1)=  10.388000  celldm(2)=   0.000000  celldm(3)=   0.000000
     celldm(4)=   0.000000  celldm(5)=   0.000000  celldm(6)=   0.000000

     crystal axes: (cart. coord. in units of alat)
               a(1) = (  -0.500000   0.000000   0.500000 )  
               a(2) = (   0.000000   0.500000   0.500000 )  
               a(3) = (  -0.500000   0.500000   0.000000 )  

     reciprocal axes: (cart. coord. in units 2 pi/alat)
               b(1) = ( -1.000000 -1.000000  1.000000 )  
               b(2) = (  1.000000  1.000000  1.000000 )  
               b(3) = ( -1.000000  1.000000 -1.000000 )  


     PseudoPot. # 1 for Si read from file:
     ./si_pbe_v1.uspp.F.UPF.txt
     MD5 check sum: a056efeee980c13900f22a371efd63c1
     Pseudo is Ultrasoft + core correction, Zval =  4.0
     Generated by new atomic code, or converted to UPF format
     Using radial grid of  899 points,  6 beta functions with: 
                l(1) =   0
                l(2) =   0
                l(3) =   1
                l(4) =   1
                l(5) =   2
                l(6) =   2
     Q(r) pseudized with  8 coefficients,  rinner =    0.900   0.900   0.900
                                                       0.900   0.900

     atomic species   valence    mass     pseudopotential
        Si             4.00    28.08600     Si( 1.00)

     48 Sym. Ops., with inversion, found (24 have fractional translation)



   Cartesian axes

     site n.     atom                  positions (alat units)
         1           Si  tau(   1) = (   0.0000000   0.0000000   0.0000000  )
         2           Si  tau(   2) = (   0.2500000   0.2500000   0.2500000  )

     number of k points=   182

     Number of k-points >= 100: set verbosity='high' to print them.

     Dense  grid:    17573 G-vectors     FFT dimensions: (  40,  40,  40)

     Smooth grid:     6231 G-vectors     FFT dimensions: (  25,  25,  25)

     Largest allocated arrays     est. size (Mb)     dimensions
        Kohn-Sham Wavefunctions         0.00 Mb     (      53,    4)
        NL pseudopotentials             0.03 Mb     (      53,   36)
        Each V/rho on FFT grid          0.07 Mb     (    4800)
        Each G-vector array             0.01 Mb     (    1100)
        G-vector shells                 0.00 Mb     (     215)
     Largest temporary arrays     est. size (Mb)     dimensions
        Auxiliary wavefunctions         0.01 Mb     (      53,   16)
        Each subspace H/S matrix        0.00 Mb     (       8,    8)
        Each <psi_i|beta_j> matrix      0.00 Mb     (      36,    4)
        Arrays for rho mixing           0.59 Mb     (    4800,    8)

     Initial potential from superposition of free atoms

     starting charge    7.99866, renormalised to    8.00000
     Starting wfc are    8 randomized atomic wfcs

     total cpu time spent up to now is        0.3 secs

     per-process dynamical memory:    10.5 Mb

     Self-consistent Calculation

     iteration #  1     ecut=    30.00 Ry     beta=0.70
     Davidson diagonalization with overlap
     ethr =  1.00E-02,  avg # of iterations =  2.0

     Threshold (ethr) on eigenvalues was too large:
     Diagonalizing with lowered threshold

     Davidson diagonalization with overlap
     ethr =  6.59E-04,  avg # of iterations =  1.0

     total cpu time spent up to now is        0.3 secs

     total energy              =     -19.19114646 Ry
     Harris-Foulkes estimate   =     -19.20296260 Ry
     estimated scf accuracy    <       0.05228118 Ry

     iteration #  2     ecut=    30.00 Ry     beta=0.70
     Davidson diagonalization with overlap
     ethr =  6.54E-04,  avg # of iterations =  1.0

     total cpu time spent up to now is        0.4 secs

     total energy              =     -19.19280556 Ry
     Harris-Foulkes estimate   =     -19.19297410 Ry
     estimated scf accuracy    <       0.00244969 Ry

     iteration #  3     ecut=    30.00 Ry     beta=0.70
     Davidson diagonalization with overlap
     ethr =  3.06E-05,  avg # of iterations =  2.1

     total cpu time spent up to now is        0.4 secs

     total energy              =     -19.19313168 Ry
     Harris-Foulkes estimate   =     -19.19314388 Ry
     estimated scf accuracy    <       0.00003970 Ry

     iteration #  4     ecut=    30.00 Ry     beta=0.70
     Davidson diagonalization with overlap
     ethr =  4.96E-07,  avg # of iterations =  3.3

     total cpu time spent up to now is        0.5 secs

     total energy              =     -19.19316731 Ry
     Harris-Foulkes estimate   =     -19.19316807 Ry
     estimated scf accuracy    <       0.00000287 Ry

     iteration #  5     ecut=    30.00 Ry     beta=0.70
     Davidson diagonalization with overlap
     ethr =  3.59E-08,  avg # of iterations =  2.1

     total cpu time spent up to now is        0.6 secs

     total energy              =     -19.19316773 Ry
     Harris-Foulkes estimate   =     -19.19316773 Ry
     estimated scf accuracy    <       0.00000001 Ry

     iteration #  6     ecut=    30.00 Ry     beta=0.70
     Davidson diagonalization with overlap
     ethr =  1.63E-10,  avg # of iterations =  3.9

     total cpu time spent up to now is        0.7 secs

     total energy              =     -19.19316776 Ry
     Harris-Foulkes estimate   =     -19.19316776 Ry
     estimated scf accuracy    <          1.3E-09 Ry

     iteration #  7     ecut=    30.00 Ry     beta=0.70
     Davidson diagonalization with overlap
     ethr =  1.66E-11,  avg # of iterations =  2.1

     total cpu time spent up to now is        0.7 secs

     End of self-consistent calculation

     Number of k-points >= 100: set verbosity='high' to print the bands.

     highest occupied level (ev):     5.7805

!    total energy              =     -19.19316776 Ry
     Harris-Foulkes estimate   =     -19.19316776 Ry
     estimated scf accuracy    <          8.0E-11 Ry

     The total energy is the sum of the following terms:

     one-electron contribution =       4.83114341 Ry
     hartree contribution      =       1.14782417 Ry
     xc contribution           =      -8.57822530 Ry
     ewald contribution        =     -16.59391004 Ry

     convergence has been achieved in   7 iterations

     Forces acting on atoms (Ry/au):

     atom    1 type  1   force =     0.00000000    0.00000000    0.00000000
     atom    2 type  1   force =     0.00000000    0.00000000    0.00000000

     Total force =     0.000000     Total SCF correction =     0.000000


     entering subroutine stress ...

          total   stress  (Ry/bohr**3)                   (kbar)     P=  -13.77
  -0.00009361  -0.00000000   0.00000000        -13.77     -0.00      0.00
  -0.00000000  -0.00009361   0.00000000         -0.00    -13.77      0.00
  -0.00000000   0.00000000  -0.00009361         -0.00      0.00    -13.77


     Writing output data file silicon.10.388.save
 
     init_run     :      0.07s CPU      0.08s WALL (       1 calls)
     electrons    :      0.45s CPU      0.49s WALL (       1 calls)
     forces       :      0.01s CPU      0.01s WALL (       1 calls)
     stress       :      0.04s CPU      0.04s WALL (       1 calls)

     Called by init_run:
     wfcinit      :      0.01s CPU      0.02s WALL (       1 calls)
     potinit      :      0.01s CPU      0.01s WALL (       1 calls)

     Called by electrons:
     c_bands      :      0.30s CPU      0.33s WALL (       8 calls)
     sum_band     :      0.07s CPU      0.07s WALL (       8 calls)
     v_of_rho     :      0.02s CPU      0.02s WALL (       8 calls)
     newd         :      0.04s CPU      0.03s WALL (       8 calls)
     mix_rho      :      0.00s CPU      0.00s WALL (       8 calls)

     Called by c_bands:
     init_us_2    :      0.00s CPU      0.00s WALL (     152 calls)
     cegterg      :      0.20s CPU      0.20s WALL (      64 calls)

     Called by sum_band:
     sum_band:bec :      0.00s CPU      0.00s WALL (      64 calls)
     addusdens    :      0.04s CPU      0.04s WALL (       8 calls)

     Called by *egterg:
     h_psi        :      0.09s CPU      0.07s WALL (     223 calls)
     s_psi        :      0.01s CPU      0.00s WALL (     223 calls)
     g_psi        :      0.00s CPU      0.00s WALL (     151 calls)
     cdiaghg      :      0.10s CPU      0.10s WALL (     207 calls)

     Called by h_psi:
     add_vuspsi   :      0.00s CPU      0.00s WALL (     223 calls)

     General routines
     calbec       :      0.02s CPU      0.01s WALL (     327 calls)
     fft          :      0.03s CPU      0.02s WALL (     153 calls)
     ffts         :      0.00s CPU      0.00s WALL (      16 calls)
     fftw         :      0.08s CPU      0.06s WALL (    1886 calls)
     interpolate  :      0.00s CPU      0.00s WALL (      16 calls)
     davcio       :      0.00s CPU      0.00s WALL (       8 calls)
 
     Parallel routines
     fft_scatter  :      0.06s CPU      0.04s WALL (    2055 calls)
 
     PWSCF        :     1.02s CPU         6.17s WALL

 
   This run was terminated on:  15:53:48   7Apr2018            

=------------------------------------------------------------------------------=
   JOB DONE.
=------------------------------------------------------------------------------=
Application 30446554 resources: utime ~2348s, stime ~51s, Rss ~25144, inblocks ~3537628, outblocks ~2813016
