
     Program PHONON v.6.1 (svn rev. 13369) starts on 12Feb2018 at 12:54: 2 

     This program is part of the open-source Quantum ESPRESSO suite
     for quantum simulation of materials; please cite
         "P. Giannozzi et al., J. Phys.:Condens. Matter 21 395502 (2009);
          URL http://www.quantum-espresso.org", 
     in publications or presentations arising from this work. More details at
     http://www.quantum-espresso.org/quote

     Parallel version (MPI), running on    64 processors
     K-points division:     npool     =       4
     R & G space division:  proc/nbgrp/npool/nimage =      16

     Reading data from directory:
     ./na.bcc.save

   Info: using nr1, nr2, nr3 values from input

   Info: using nr1, nr2, nr3 values from input

     IMPORTANT: XC functional enforced from input :
     Exchange-correlation      = SLA  PW   PBE  PBE ( 1  4  3  4 0 0)
     Any further DFT definition will be discarded
     Please, verify this is what you really want


     Parallelization info
     --------------------
     sticks:   dense  smooth     PW     G-vecs:    dense   smooth      PW
     Min          58      29      9                 1127      403      72
     Max          59      30     11                 1130      405      73
     Sum         929     471    151                18053     6459    1157



     Dynamical matrices for ( 6, 6, 6)  uniform grid of q-points
     (  16q-points):
       N         xq(1)         xq(2)         xq(3) 
       1   0.000000000   0.000000000   0.000000000
       2   0.000000000  -0.166666667   0.166666667
       3   0.000000000  -0.333333333   0.333333333
       4   0.000000000   0.500000000  -0.500000000
       5  -0.166666667  -0.166666667   0.333333333
       6  -0.166666667   0.666666667  -0.500000000
       7  -0.333333333   0.666666667  -0.333333333
       8   0.000000000   0.000000000   0.333333333
       9   0.000000000  -0.166666667   0.500000000
      10   0.000000000   0.666666667  -0.333333333
      11  -0.166666667   0.833333333  -0.333333333
      12   0.666666667  -0.666666667   0.333333333
      13   0.500000000  -0.500000000   0.333333333
      14   0.000000000   0.000000000   0.666666667
      15   0.000000000   0.833333333  -0.166666667
      16   0.000000000   0.000000000  -1.000000000

     Calculation of q =    0.0000000   0.0000000   0.0000000

                                                                                

     bravais-lattice index     =            3
     lattice parameter (alat)  =       7.2000  a.u.
     unit-cell volume          =     186.6240 (a.u.)^3
     number of atoms/cell      =            1
     number of atomic types    =            1
     kinetic-energy cut-off    =      40.0000  Ry
     charge density cut-off    =     320.0000  Ry
     convergence threshold     =      1.0E-16
     beta                      =       0.7000
     number of iterations used =            4
     Exchange-correlation      = SLA  PW   PBE  PBE ( 1  4  3  4 0 0)


     celldm(1)=    7.20000  celldm(2)=    0.00000  celldm(3)=    0.00000
     celldm(4)=    0.00000  celldm(5)=    0.00000  celldm(6)=    0.00000

     crystal axes: (cart. coord. in units of alat)
               a(1) = (  0.5000  0.5000  0.5000 )  
               a(2) = ( -0.5000  0.5000  0.5000 )  
               a(3) = ( -0.5000 -0.5000  0.5000 )  

     reciprocal axes: (cart. coord. in units 2 pi/alat)
               b(1) = (  1.0000  0.0000  1.0000 )  
               b(2) = ( -1.0000  1.0000  0.0000 )  
               b(3) = (  0.0000 -1.0000  1.0000 )  


     Atoms inside the unit cell: 

     Cartesian axes

     site n.  atom      mass           positions (alat units)
        1     Na  22.9900   tau(    1) = (    0.00000    0.00000    0.00000  )

     Computing dynamical matrix for 
                    q = (   0.0000000   0.0000000   0.0000000 )

     49 Sym.Ops. (with q -> -q+G )


     G cutoff =  420.1992  (   1128 G-vectors)     FFT grid: ( 36, 36, 36)
     G cutoff =  210.0996  (    405 G-vectors)  smooth grid: ( 25, 25, 25)

     number of k points=   250  Marzari-Vanderbilt smearing, width (Ry)=  0.0200

     PseudoPot. # 1 for Na read from file:
     /home/s1333534/quantum_espresso/qe-6.1/pseudo/Na_pbe_v1.uspp.F.UPF
     MD5 check sum: 76a99c7e9422403d3e93cbc85ab7bccb
     Pseudo is Ultrasoft, Zval =  9.0
     Generated by new atomic code, or converted to UPF format
     Using radial grid of  819 points,  5 beta functions with: 
                l(1) =   0
                l(2) =   0
                l(3) =   1
                l(4) =   1
                l(5) =   2
     Q(r) pseudized with  8 coefficients,  rinner =    1.250   1.250   1.250
                                                       1.250   1.250

     Mode symmetry, O_h (m-3m)  point group:


     Atomic displacements:
     There are   1 irreducible representations

     Representation     1      3 modes -T_1u G_15  G_4-  To be done



     Alpha used in Ewald sum =   2.8000
     PHONON       :     3.10s CPU         3.33s WALL



     Representation #  1 modes #   1  2  3

     Self-consistent Calculation

     Pert. #  1: Fermi energy shift (Ry) =     3.4897E-25    -1.8808E-37
     Pert. #  2: Fermi energy shift (Ry) =    -1.4433E-25    -1.0188E-37
     Pert. #  3: Fermi energy shift (Ry) =     2.1541E-27     3.1347E-38

      iter #   1 total cpu time :     6.4 secs   av.it.:   5.5
      thresh= 1.000E-02 alpha_mix =  0.700 |ddv_scf|^2 =  1.342E-06

     Pert. #  1: Fermi energy shift (Ry) =     6.4623E-26    -1.9592E-39
     Pert. #  2: Fermi energy shift (Ry) =     3.2312E-26     2.9387E-39
     Pert. #  3: Fermi energy shift (Ry) =     7.7548E-26    -4.8979E-39

      iter #   2 total cpu time :     9.8 secs   av.it.:   8.5
      thresh= 1.158E-04 alpha_mix =  0.700 |ddv_scf|^2 =  2.601E-08

     Pert. #  1: Fermi energy shift (Ry) =    -4.3082E-27    -1.4694E-39
     Pert. #  2: Fermi energy shift (Ry) =    -6.2469E-26     1.0408E-39
     Pert. #  3: Fermi energy shift (Ry) =     6.4623E-27     0.0000E+00

      iter #   3 total cpu time :    13.4 secs   av.it.:   8.6
      thresh= 1.613E-05 alpha_mix =  0.700 |ddv_scf|^2 =  3.245E-10

     Pert. #  1: Fermi energy shift (Ry) =    -6.4623E-26    -1.1097E-40
     Pert. #  2: Fermi energy shift (Ry) =    -2.5849E-26     8.0356E-41
     Pert. #  3: Fermi energy shift (Ry) =    -1.2925E-26    -4.5918E-41

      iter #   4 total cpu time :    17.1 secs   av.it.:   8.2
      thresh= 1.801E-06 alpha_mix =  0.700 |ddv_scf|^2 =  1.273E-12

     Pert. #  1: Fermi energy shift (Ry) =    -4.3082E-26    -1.7219E-41
     Pert. #  2: Fermi energy shift (Ry) =    -2.5849E-26     1.1001E-40
     Pert. #  3: Fermi energy shift (Ry) =     8.8319E-26    -9.5662E-41

      iter #   5 total cpu time :    20.6 secs   av.it.:   8.4
      thresh= 1.128E-07 alpha_mix =  0.700 |ddv_scf|^2 =  3.969E-15

     Pert. #  1: Fermi energy shift (Ry) =     8.1856E-26     1.9132E-41
     Pert. #  2: Fermi energy shift (Ry) =     1.9387E-26     4.9744E-41
     Pert. #  3: Fermi energy shift (Ry) =    -6.4623E-27    -1.5306E-41

      iter #   6 total cpu time :    24.3 secs   av.it.:   8.2
      thresh= 6.300E-09 alpha_mix =  0.700 |ddv_scf|^2 =  5.818E-17

     End of self-consistent calculation

     Convergence has been achieved 

     Number of q in the star =    1
     List of q in the star:
          1   0.000000000   0.000000000   0.000000000

     Diagonalizing the dynamical matrix

     q = (    0.000000000   0.000000000   0.000000000 ) 

 **************************************************************************
     freq (    1) =      -0.290193 [THz] =      -9.679801 [cm-1]
     freq (    2) =      -0.290193 [THz] =      -9.679801 [cm-1]
     freq (    3) =      -0.290193 [THz] =      -9.679801 [cm-1]
 **************************************************************************

     Mode symmetry, O_h (m-3m)  point group:

     freq (  1 -  3) =         -9.7  [cm-1]   --> T_1u G_15  G_4- I  

     Calculation of q =    0.0000000  -0.1666667   0.1666667

   Info: using nr1, nr2, nr3 values from input

   Info: using nr1, nr2, nr3 values from input

     Parallelization info
     --------------------
     sticks:   dense  smooth     PW     G-vecs:    dense   smooth      PW
     Min          58      29      9                 1127      403      76
     Max          59      30     10                 1130      405      79
     Sum         929     471    159                18053     6459    1253



     bravais-lattice index     =            3
     lattice parameter (alat)  =       7.2000  a.u.
     unit-cell volume          =     186.6240 (a.u.)^3
     number of atoms/cell      =            1
     number of atomic types    =            1
     number of electrons       =         9.00
     number of Kohn-Sham states=            9
     kinetic-energy cutoff     =      40.0000  Ry
     charge density cutoff     =     320.0000  Ry
     Exchange-correlation      = SLA  PW   PBE  PBE ( 1  4  3  4 0 0)

     celldm(1)=   7.200000  celldm(2)=   0.000000  celldm(3)=   0.000000
     celldm(4)=   0.000000  celldm(5)=   0.000000  celldm(6)=   0.000000

     crystal axes: (cart. coord. in units of alat)
               a(1) = (   0.500000   0.500000   0.500000 )  
               a(2) = (  -0.500000   0.500000   0.500000 )  
               a(3) = (  -0.500000  -0.500000   0.500000 )  

     reciprocal axes: (cart. coord. in units 2 pi/alat)
               b(1) = (  1.000000  0.000000  1.000000 )  
               b(2) = ( -1.000000  1.000000  0.000000 )  
               b(3) = (  0.000000 -1.000000  1.000000 )  


     PseudoPot. # 1 for Na read from file:
     /home/s1333534/quantum_espresso/qe-6.1/pseudo/Na_pbe_v1.uspp.F.UPF
     MD5 check sum: 76a99c7e9422403d3e93cbc85ab7bccb
     Pseudo is Ultrasoft, Zval =  9.0
     Generated by new atomic code, or converted to UPF format
     Using radial grid of  819 points,  5 beta functions with: 
                l(1) =   0
                l(2) =   0
                l(3) =   1
                l(4) =   1
                l(5) =   2
     Q(r) pseudized with  8 coefficients,  rinner =    1.250   1.250   1.250
                                                       1.250   1.250

     atomic species   valence    mass     pseudopotential
        Na             9.00    22.99000     Na( 1.00)

     48 Sym. Ops., with inversion, found



   Cartesian axes

     site n.     atom                  positions (alat units)
         1           Na  tau(   1) = (   0.0000000   0.0000000   0.0000000  )

     number of k points=  4400  Marzari-Vanderbilt smearing, width (Ry)=  0.0200

     Number of k-points >= 100: set verbosity='high' to print them.

     Dense  grid:    18053 G-vectors     FFT dimensions: (  36,  36,  36)

     Smooth grid:     6459 G-vectors     FFT dimensions: (  25,  25,  25)

     Estimated max dynamical RAM per process >       0.62MB

     Estimated total allocated dynamical RAM >      39.67MB

     The potential is recalculated from file :
     ./_ph0/na.bcc.save/charge-density.dat

     Starting wfc are    5 atomic +    4 random wfc

     Band Structure Calculation
     Davidson diagonalization with overlap

     ethr =  1.11E-10,  avg # of iterations = 18.9

     total cpu time spent up to now is       55.1 secs

     End of band structure calculation

     Number of k-points >= 100: set verbosity='high' to print the bands.

     the Fermi energy is     3.0393 ev

     Writing output data file na.bcc.save

                                                                                

     bravais-lattice index     =            3
     lattice parameter (alat)  =       7.2000  a.u.
     unit-cell volume          =     186.6240 (a.u.)^3
     number of atoms/cell      =            1
     number of atomic types    =            1
     kinetic-energy cut-off    =      40.0000  Ry
     charge density cut-off    =     320.0000  Ry
     convergence threshold     =      1.0E-16
     beta                      =       0.7000
     number of iterations used =            4
     Exchange-correlation      = SLA  PW   PBE  PBE ( 1  4  3  4 0 0)


     celldm(1)=    7.20000  celldm(2)=    0.00000  celldm(3)=    0.00000
     celldm(4)=    0.00000  celldm(5)=    0.00000  celldm(6)=    0.00000

     crystal axes: (cart. coord. in units of alat)
               a(1) = (  0.5000  0.5000  0.5000 )  
               a(2) = ( -0.5000  0.5000  0.5000 )  
               a(3) = ( -0.5000 -0.5000  0.5000 )  

     reciprocal axes: (cart. coord. in units 2 pi/alat)
               b(1) = (  1.0000  0.0000  1.0000 )  
               b(2) = ( -1.0000  1.0000  0.0000 )  
               b(3) = (  0.0000 -1.0000  1.0000 )  


     Atoms inside the unit cell: 

     Cartesian axes

     site n.  atom      mass           positions (alat units)
        1     Na  22.9900   tau(    1) = (    0.00000    0.00000    0.00000  )

     Computing dynamical matrix for 
                    q = (   0.0000000  -0.1666667   0.1666667 )

      4 Sym.Ops. (no q -> -q+G )


     G cutoff =  420.1992  (   1128 G-vectors)     FFT grid: ( 36, 36, 36)
     G cutoff =  210.0996  (    405 G-vectors)  smooth grid: ( 25, 25, 25)

     number of k points=  4400  Marzari-Vanderbilt smearing, width (Ry)=  0.0200

     PseudoPot. # 1 for Na read from file:
     /home/s1333534/quantum_espresso/qe-6.1/pseudo/Na_pbe_v1.uspp.F.UPF
     MD5 check sum: 76a99c7e9422403d3e93cbc85ab7bccb
     Pseudo is Ultrasoft, Zval =  9.0
     Generated by new atomic code, or converted to UPF format
     Using radial grid of  819 points,  5 beta functions with: 
                l(1) =   0
                l(2) =   0
                l(3) =   1
                l(4) =   1
                l(5) =   2
     Q(r) pseudized with  8 coefficients,  rinner =    1.250   1.250   1.250
                                                       1.250   1.250

     Mode symmetry, C_2v (mm2)  point group:


     Atomic displacements:
     There are   3 irreducible representations

     Representation     1      1 modes -A_1  D_1  S_1  To be done

     Representation     2      1 modes -B_1  D_3  S_3  To be done

     Representation     3      1 modes -B_2  D_4  S_4  To be done



     Alpha used in Ewald sum =   2.8000
     PHONON       :  1m29.73s CPU     1m35.39s WALL



     Representation #  1 mode #   1

     Self-consistent Calculation

      iter #   1 total cpu time :   101.9 secs   av.it.:   5.7
      thresh= 1.000E-02 alpha_mix =  0.700 |ddv_scf|^2 =  3.319E-02

      iter #   2 total cpu time :   108.5 secs   av.it.:   6.6
      thresh= 1.000E-02 alpha_mix =  0.700 |ddv_scf|^2 =  4.375E+00

      iter #   3 total cpu time :   115.0 secs   av.it.:   6.6
      thresh= 1.000E-02 alpha_mix =  0.700 |ddv_scf|^2 =  8.791E-07

      iter #   4 total cpu time :   122.1 secs   av.it.:   7.6
      thresh= 9.376E-05 alpha_mix =  0.700 |ddv_scf|^2 =  9.641E-08

      iter #   5 total cpu time :   129.0 secs   av.it.:   7.4
      thresh= 3.105E-05 alpha_mix =  0.700 |ddv_scf|^2 =  3.800E-09

      iter #   6 total cpu time :   136.2 secs   av.it.:   7.5
      thresh= 6.164E-06 alpha_mix =  0.700 |ddv_scf|^2 =  6.395E-10

      iter #   7 total cpu time :   142.7 secs   av.it.:   6.8
      thresh= 2.529E-06 alpha_mix =  0.700 |ddv_scf|^2 =  1.101E-08

      iter #   8 total cpu time :   148.5 secs   av.it.:   5.8
      thresh= 1.049E-05 alpha_mix =  0.700 |ddv_scf|^2 =  5.036E-11

      iter #   9 total cpu time :   155.2 secs   av.it.:   7.2
      thresh= 7.096E-07 alpha_mix =  0.700 |ddv_scf|^2 =  1.791E-12

      iter #  10 total cpu time :   162.0 secs   av.it.:   7.1
      thresh= 1.338E-07 alpha_mix =  0.700 |ddv_scf|^2 =  8.229E-14

      iter #  11 total cpu time :   168.9 secs   av.it.:   7.2
      thresh= 2.869E-08 alpha_mix =  0.700 |ddv_scf|^2 =  5.079E-16

      iter #  12 total cpu time :   176.2 secs   av.it.:   7.9
      thresh= 2.254E-09 alpha_mix =  0.700 |ddv_scf|^2 =  2.440E-16

      iter #  13 total cpu time :   183.3 secs   av.it.:   7.5
      thresh= 1.562E-09 alpha_mix =  0.700 |ddv_scf|^2 =  2.700E-15

      iter #  14 total cpu time :   188.4 secs   av.it.:   5.0
      thresh= 5.196E-09 alpha_mix =  0.700 |ddv_scf|^2 =  1.773E-17

     End of self-consistent calculation

     Convergence has been achieved 


     Representation #  2 mode #   2

     Self-consistent Calculation

      iter #   1 total cpu time :   195.1 secs   av.it.:   5.4
      thresh= 1.000E-02 alpha_mix =  0.700 |ddv_scf|^2 =  1.222E-05

      iter #   2 total cpu time :   202.2 secs   av.it.:   7.7
      thresh= 3.495E-04 alpha_mix =  0.700 |ddv_scf|^2 =  2.311E-07

      iter #   3 total cpu time :   209.5 secs   av.it.:   7.9
      thresh= 4.808E-05 alpha_mix =  0.700 |ddv_scf|^2 =  3.252E-09

      iter #   4 total cpu time :   216.5 secs   av.it.:   7.4
      thresh= 5.703E-06 alpha_mix =  0.700 |ddv_scf|^2 =  1.236E-11

      iter #   5 total cpu time :   224.3 secs   av.it.:   7.6
      thresh= 3.515E-07 alpha_mix =  0.700 |ddv_scf|^2 =  3.373E-14

      iter #   6 total cpu time :   231.2 secs   av.it.:   7.5
      thresh= 1.836E-08 alpha_mix =  0.700 |ddv_scf|^2 =  5.837E-16

      iter #   7 total cpu time :   238.3 secs   av.it.:   7.6
      thresh= 2.416E-09 alpha_mix =  0.700 |ddv_scf|^2 =  4.404E-19

     End of self-consistent calculation

     Convergence has been achieved 


     Representation #  3 mode #   3

     Self-consistent Calculation

      iter #   1 total cpu time :   244.8 secs   av.it.:   5.4
      thresh= 1.000E-02 alpha_mix =  0.700 |ddv_scf|^2 =  1.265E-05

      iter #   2 total cpu time :   252.1 secs   av.it.:   7.7
      thresh= 3.557E-04 alpha_mix =  0.700 |ddv_scf|^2 =  2.291E-07

      iter #   3 total cpu time :   259.7 secs   av.it.:   7.9
      thresh= 4.786E-05 alpha_mix =  0.700 |ddv_scf|^2 =  4.268E-09

      iter #   4 total cpu time :   266.7 secs   av.it.:   7.5
      thresh= 6.533E-06 alpha_mix =  0.700 |ddv_scf|^2 =  1.596E-11

      iter #   5 total cpu time :   274.0 secs   av.it.:   7.7
      thresh= 3.995E-07 alpha_mix =  0.700 |ddv_scf|^2 =  3.481E-14

      iter #   6 total cpu time :   281.0 secs   av.it.:   7.3
      thresh= 1.866E-08 alpha_mix =  0.700 |ddv_scf|^2 =  1.137E-15

      iter #   7 total cpu time :   288.3 secs   av.it.:   7.7
      thresh= 3.372E-09 alpha_mix =  0.700 |ddv_scf|^2 =  1.308E-18

     End of self-consistent calculation

     Convergence has been achieved 

     Number of q in the star =   12
     List of q in the star:
          1   0.000000000  -0.166666667   0.166666667
          2  -0.166666667   0.000000000   0.166666667
          3   0.166666667   0.000000000   0.166666667
          4   0.000000000   0.166666667   0.166666667
          5   0.166666667   0.166666667   0.000000000
          6  -0.166666667   0.166666667   0.000000000
          7   0.166666667  -0.166666667   0.000000000
          8  -0.166666667  -0.166666667   0.000000000
          9  -0.166666667   0.000000000  -0.166666667
         10   0.000000000  -0.166666667  -0.166666667
         11   0.000000000   0.166666667  -0.166666667
         12   0.166666667   0.000000000  -0.166666667

     Diagonalizing the dynamical matrix

     q = (    0.000000000  -0.166666667   0.166666667 ) 

 **************************************************************************
     freq (    1) =       0.658395 [THz] =      21.961705 [cm-1]
     freq (    2) =       1.613179 [THz] =      53.809873 [cm-1]
     freq (    3) =       2.846060 [THz] =      94.934338 [cm-1]
 **************************************************************************

     Mode symmetry, C_2v (mm2)  point group:

     freq (  1 -  1) =         22.0  [cm-1]   --> B_1  D_3  S_3      
     freq (  2 -  2) =         53.8  [cm-1]   --> B_2  D_4  S_4      
     freq (  3 -  3) =         94.9  [cm-1]   --> A_1  D_1  S_1      

     Calculation of q =    0.0000000  -0.3333333   0.3333333

   Info: using nr1, nr2, nr3 values from input

   Info: using nr1, nr2, nr3 values from input

     Parallelization info
     --------------------
     sticks:   dense  smooth     PW     G-vecs:    dense   smooth      PW
     Min          58      29     10                 1127      403      87
     Max          59      30     11                 1130      405      89
     Sum         929     471    169                18053     6459    1409



     bravais-lattice index     =            3
     lattice parameter (alat)  =       7.2000  a.u.
     unit-cell volume          =     186.6240 (a.u.)^3
     number of atoms/cell      =            1
     number of atomic types    =            1
     number of electrons       =         9.00
     number of Kohn-Sham states=            9
     kinetic-energy cutoff     =      40.0000  Ry
     charge density cutoff     =     320.0000  Ry
     Exchange-correlation      = SLA  PW   PBE  PBE ( 1  4  3  4 0 0)

     celldm(1)=   7.200000  celldm(2)=   0.000000  celldm(3)=   0.000000
     celldm(4)=   0.000000  celldm(5)=   0.000000  celldm(6)=   0.000000

     crystal axes: (cart. coord. in units of alat)
               a(1) = (   0.500000   0.500000   0.500000 )  
               a(2) = (  -0.500000   0.500000   0.500000 )  
               a(3) = (  -0.500000  -0.500000   0.500000 )  

     reciprocal axes: (cart. coord. in units 2 pi/alat)
               b(1) = (  1.000000  0.000000  1.000000 )  
               b(2) = ( -1.000000  1.000000  0.000000 )  
               b(3) = (  0.000000 -1.000000  1.000000 )  


     PseudoPot. # 1 for Na read from file:
     /home/s1333534/quantum_espresso/qe-6.1/pseudo/Na_pbe_v1.uspp.F.UPF
     MD5 check sum: 76a99c7e9422403d3e93cbc85ab7bccb
     Pseudo is Ultrasoft, Zval =  9.0
     Generated by new atomic code, or converted to UPF format
     Using radial grid of  819 points,  5 beta functions with: 
                l(1) =   0
                l(2) =   0
                l(3) =   1
                l(4) =   1
                l(5) =   2
     Q(r) pseudized with  8 coefficients,  rinner =    1.250   1.250   1.250
                                                       1.250   1.250

     atomic species   valence    mass     pseudopotential
        Na             9.00    22.99000     Na( 1.00)

     48 Sym. Ops., with inversion, found



   Cartesian axes

     site n.     atom                  positions (alat units)
         1           Na  tau(   1) = (   0.0000000   0.0000000   0.0000000  )

     number of k points=  4400  Marzari-Vanderbilt smearing, width (Ry)=  0.0200

     Number of k-points >= 100: set verbosity='high' to print them.

     Dense  grid:    18053 G-vectors     FFT dimensions: (  36,  36,  36)

     Smooth grid:     6459 G-vectors     FFT dimensions: (  25,  25,  25)

     Estimated max dynamical RAM per process >       0.62MB

     Estimated total allocated dynamical RAM >      39.67MB

     The potential is recalculated from file :
     ./_ph0/na.bcc.save/charge-density.dat

     Starting wfc are    5 atomic +    4 random wfc

     Band Structure Calculation
     Davidson diagonalization with overlap

     ethr =  1.11E-10,  avg # of iterations = 18.9

     total cpu time spent up to now is      125.2 secs

     End of band structure calculation

     Number of k-points >= 100: set verbosity='high' to print the bands.

     the Fermi energy is     3.0393 ev

     Writing output data file na.bcc.save

                                                                                

     bravais-lattice index     =            3
     lattice parameter (alat)  =       7.2000  a.u.
     unit-cell volume          =     186.6240 (a.u.)^3
     number of atoms/cell      =            1
     number of atomic types    =            1
     kinetic-energy cut-off    =      40.0000  Ry
     charge density cut-off    =     320.0000  Ry
     convergence threshold     =      1.0E-16
     beta                      =       0.7000
     number of iterations used =            4
     Exchange-correlation      = SLA  PW   PBE  PBE ( 1  4  3  4 0 0)


     celldm(1)=    7.20000  celldm(2)=    0.00000  celldm(3)=    0.00000
     celldm(4)=    0.00000  celldm(5)=    0.00000  celldm(6)=    0.00000

     crystal axes: (cart. coord. in units of alat)
               a(1) = (  0.5000  0.5000  0.5000 )  
               a(2) = ( -0.5000  0.5000  0.5000 )  
               a(3) = ( -0.5000 -0.5000  0.5000 )  

     reciprocal axes: (cart. coord. in units 2 pi/alat)
               b(1) = (  1.0000  0.0000  1.0000 )  
               b(2) = ( -1.0000  1.0000  0.0000 )  
               b(3) = (  0.0000 -1.0000  1.0000 )  


     Atoms inside the unit cell: 

     Cartesian axes

     site n.  atom      mass           positions (alat units)
        1     Na  22.9900   tau(    1) = (    0.00000    0.00000    0.00000  )

     Computing dynamical matrix for 
                    q = (   0.0000000  -0.3333333   0.3333333 )

      4 Sym.Ops. (no q -> -q+G )


     G cutoff =  420.1992  (   1128 G-vectors)     FFT grid: ( 36, 36, 36)
     G cutoff =  210.0996  (    405 G-vectors)  smooth grid: ( 25, 25, 25)

     number of k points=  4400  Marzari-Vanderbilt smearing, width (Ry)=  0.0200

     PseudoPot. # 1 for Na read from file:
     /home/s1333534/quantum_espresso/qe-6.1/pseudo/Na_pbe_v1.uspp.F.UPF
     MD5 check sum: 76a99c7e9422403d3e93cbc85ab7bccb
     Pseudo is Ultrasoft, Zval =  9.0
     Generated by new atomic code, or converted to UPF format
     Using radial grid of  819 points,  5 beta functions with: 
                l(1) =   0
                l(2) =   0
                l(3) =   1
                l(4) =   1
                l(5) =   2
     Q(r) pseudized with  8 coefficients,  rinner =    1.250   1.250   1.250
                                                       1.250   1.250

     Mode symmetry, C_2v (mm2)  point group:


     Atomic displacements:
     There are   3 irreducible representations

     Representation     1      1 modes -A_1  D_1  S_1  To be done

     Representation     2      1 modes -B_1  D_3  S_3  To be done

     Representation     3      1 modes -B_2  D_4  S_4  To be done



     Alpha used in Ewald sum =   2.8000
     PHONON       :  5m32.62s CPU     6m 1.96s WALL



     Representation #  1 mode #   1

     Self-consistent Calculation

      iter #   1 total cpu time :   369.0 secs   av.it.:   5.7
      thresh= 1.000E-02 alpha_mix =  0.700 |ddv_scf|^2 =  5.667E-04

      iter #   2 total cpu time :   376.2 secs   av.it.:   6.7
      thresh= 2.381E-03 alpha_mix =  0.700 |ddv_scf|^2 =  2.899E-03

      iter #   3 total cpu time :   383.0 secs   av.it.:   6.0
      thresh= 5.384E-03 alpha_mix =  0.700 |ddv_scf|^2 =  5.985E-07

      iter #   4 total cpu time :   390.7 secs   av.it.:   7.7
      thresh= 7.736E-05 alpha_mix =  0.700 |ddv_scf|^2 =  8.794E-09

      iter #   5 total cpu time :   398.8 secs   av.it.:   8.3
      thresh= 9.378E-06 alpha_mix =  0.700 |ddv_scf|^2 =  6.388E-10

      iter #   6 total cpu time :   406.8 secs   av.it.:   8.0
      thresh= 2.527E-06 alpha_mix =  0.700 |ddv_scf|^2 =  1.518E-11

      iter #   7 total cpu time :   414.4 secs   av.it.:   7.6
      thresh= 3.897E-07 alpha_mix =  0.700 |ddv_scf|^2 =  4.679E-14

      iter #   8 total cpu time :   422.1 secs   av.it.:   7.7
      thresh= 2.163E-08 alpha_mix =  0.700 |ddv_scf|^2 =  1.445E-14

      iter #   9 total cpu time :   429.5 secs   av.it.:   7.1
      thresh= 1.202E-08 alpha_mix =  0.700 |ddv_scf|^2 =  1.980E-14

      iter #  10 total cpu time :   436.8 secs   av.it.:   7.0
      thresh= 1.407E-08 alpha_mix =  0.700 |ddv_scf|^2 =  1.629E-15

      iter #  11 total cpu time :   443.9 secs   av.it.:   6.9
      thresh= 4.036E-09 alpha_mix =  0.700 |ddv_scf|^2 =  2.622E-18

     End of self-consistent calculation

     Convergence has been achieved 


     Representation #  2 mode #   2

     Self-consistent Calculation

      iter #   1 total cpu time :   450.9 secs   av.it.:   5.5
      thresh= 1.000E-02 alpha_mix =  0.700 |ddv_scf|^2 =  1.257E-05

      iter #   2 total cpu time :   458.7 secs   av.it.:   7.8
      thresh= 3.546E-04 alpha_mix =  0.700 |ddv_scf|^2 =  2.225E-07

      iter #   3 total cpu time :   466.5 secs   av.it.:   7.9
      thresh= 4.717E-05 alpha_mix =  0.700 |ddv_scf|^2 =  4.321E-09

      iter #   4 total cpu time :   474.0 secs   av.it.:   7.4
      thresh= 6.573E-06 alpha_mix =  0.700 |ddv_scf|^2 =  1.490E-11

      iter #   5 total cpu time :   481.7 secs   av.it.:   7.7
      thresh= 3.860E-07 alpha_mix =  0.700 |ddv_scf|^2 =  2.790E-14

      iter #   6 total cpu time :   489.2 secs   av.it.:   7.5
      thresh= 1.670E-08 alpha_mix =  0.700 |ddv_scf|^2 =  6.750E-16

      iter #   7 total cpu time :   497.2 secs   av.it.:   7.7
      thresh= 2.598E-09 alpha_mix =  0.700 |ddv_scf|^2 =  5.208E-19

     End of self-consistent calculation

     Convergence has been achieved 


     Representation #  3 mode #   3

     Self-consistent Calculation

      iter #   1 total cpu time :   504.2 secs   av.it.:   5.5
      thresh= 1.000E-02 alpha_mix =  0.700 |ddv_scf|^2 =  1.394E-05

      iter #   2 total cpu time :   512.0 secs   av.it.:   7.7
      thresh= 3.734E-04 alpha_mix =  0.700 |ddv_scf|^2 =  2.174E-07

      iter #   3 total cpu time :   519.9 secs   av.it.:   7.9
      thresh= 4.663E-05 alpha_mix =  0.700 |ddv_scf|^2 =  7.820E-09

      iter #   4 total cpu time :   527.4 secs   av.it.:   7.5
      thresh= 8.843E-06 alpha_mix =  0.700 |ddv_scf|^2 =  2.823E-11

      iter #   5 total cpu time :   535.4 secs   av.it.:   7.7
      thresh= 5.313E-07 alpha_mix =  0.700 |ddv_scf|^2 =  3.550E-14

      iter #   6 total cpu time :   542.3 secs   av.it.:   6.7
      thresh= 1.884E-08 alpha_mix =  0.700 |ddv_scf|^2 =  2.010E-15

      iter #   7 total cpu time :   550.0 secs   av.it.:   7.6
      thresh= 4.483E-09 alpha_mix =  0.700 |ddv_scf|^2 =  2.027E-18

     End of self-consistent calculation

     Convergence has been achieved 

     Number of q in the star =   12
     List of q in the star:
          1   0.000000000  -0.333333333   0.333333333
          2  -0.333333333   0.000000000   0.333333333
          3   0.333333333   0.000000000   0.333333333
          4   0.000000000   0.333333333   0.333333333
          5   0.333333333   0.333333333   0.000000000
          6  -0.333333333   0.333333333   0.000000000
          7   0.333333333  -0.333333333   0.000000000
          8  -0.333333333  -0.333333333   0.000000000
          9  -0.333333333   0.000000000  -0.333333333
         10   0.000000000  -0.333333333  -0.333333333
         11   0.000000000   0.333333333  -0.333333333
         12   0.333333333   0.000000000  -0.333333333

     Diagonalizing the dynamical matrix

     q = (    0.000000000  -0.333333333   0.333333333 ) 

 **************************************************************************
     freq (    1) =       1.098749 [THz] =      36.650309 [cm-1]
     freq (    2) =       2.792115 [THz] =      93.134927 [cm-1]
     freq (    3) =       5.009142 [THz] =     167.086996 [cm-1]
 **************************************************************************

     Mode symmetry, C_2v (mm2)  point group:

     freq (  1 -  1) =         36.7  [cm-1]   --> B_1  D_3  S_3      
     freq (  2 -  2) =         93.1  [cm-1]   --> B_2  D_4  S_4      
     freq (  3 -  3) =        167.1  [cm-1]   --> A_1  D_1  S_1      

     Calculation of q =    0.0000000   0.5000000  -0.5000000

   Info: using nr1, nr2, nr3 values from input

   Info: using nr1, nr2, nr3 values from input

     Parallelization info
     --------------------
     sticks:   dense  smooth     PW     G-vecs:    dense   smooth      PW
     Min          58      29     10                 1127      403      90
     Max          59      30     11                 1130      405      94
     Sum         929     471    173                18053     6459    1481



     bravais-lattice index     =            3
     lattice parameter (alat)  =       7.2000  a.u.
     unit-cell volume          =     186.6240 (a.u.)^3
     number of atoms/cell      =            1
     number of atomic types    =            1
     number of electrons       =         9.00
     number of Kohn-Sham states=            9
     kinetic-energy cutoff     =      40.0000  Ry
     charge density cutoff     =     320.0000  Ry
     Exchange-correlation      = SLA  PW   PBE  PBE ( 1  4  3  4 0 0)

     celldm(1)=   7.200000  celldm(2)=   0.000000  celldm(3)=   0.000000
     celldm(4)=   0.000000  celldm(5)=   0.000000  celldm(6)=   0.000000

     crystal axes: (cart. coord. in units of alat)
               a(1) = (   0.500000   0.500000   0.500000 )  
               a(2) = (  -0.500000   0.500000   0.500000 )  
               a(3) = (  -0.500000  -0.500000   0.500000 )  

     reciprocal axes: (cart. coord. in units 2 pi/alat)
               b(1) = (  1.000000  0.000000  1.000000 )  
               b(2) = ( -1.000000  1.000000  0.000000 )  
               b(3) = (  0.000000 -1.000000  1.000000 )  


     PseudoPot. # 1 for Na read from file:
     /home/s1333534/quantum_espresso/qe-6.1/pseudo/Na_pbe_v1.uspp.F.UPF
     MD5 check sum: 76a99c7e9422403d3e93cbc85ab7bccb
     Pseudo is Ultrasoft, Zval =  9.0
     Generated by new atomic code, or converted to UPF format
     Using radial grid of  819 points,  5 beta functions with: 
                l(1) =   0
                l(2) =   0
                l(3) =   1
                l(4) =   1
                l(5) =   2
     Q(r) pseudized with  8 coefficients,  rinner =    1.250   1.250   1.250
                                                       1.250   1.250

     atomic species   valence    mass     pseudopotential
        Na             9.00    22.99000     Na( 1.00)

     48 Sym. Ops., with inversion, found



   Cartesian axes

     site n.     atom                  positions (alat units)
         1           Na  tau(   1) = (   0.0000000   0.0000000   0.0000000  )

     number of k points=  2310  Marzari-Vanderbilt smearing, width (Ry)=  0.0200

     Number of k-points >= 100: set verbosity='high' to print them.

     Dense  grid:    18053 G-vectors     FFT dimensions: (  36,  36,  36)

     Smooth grid:     6459 G-vectors     FFT dimensions: (  25,  25,  25)

     Estimated max dynamical RAM per process >       0.62MB

     Estimated total allocated dynamical RAM >      39.67MB

     The potential is recalculated from file :
     ./_ph0/na.bcc.save/charge-density.dat

     Starting wfc are    5 atomic +    4 random wfc

     Band Structure Calculation
     Davidson diagonalization with overlap

     ethr =  1.11E-10,  avg # of iterations = 18.9

     total cpu time spent up to now is      168.3 secs

     End of band structure calculation

     Number of k-points >= 100: set verbosity='high' to print the bands.

     the Fermi energy is     3.0393 ev

     Writing output data file na.bcc.save

                                                                                

     bravais-lattice index     =            3
     lattice parameter (alat)  =       7.2000  a.u.
     unit-cell volume          =     186.6240 (a.u.)^3
     number of atoms/cell      =            1
     number of atomic types    =            1
     kinetic-energy cut-off    =      40.0000  Ry
     charge density cut-off    =     320.0000  Ry
     convergence threshold     =      1.0E-16
     beta                      =       0.7000
     number of iterations used =            4
     Exchange-correlation      = SLA  PW   PBE  PBE ( 1  4  3  4 0 0)


     celldm(1)=    7.20000  celldm(2)=    0.00000  celldm(3)=    0.00000
     celldm(4)=    0.00000  celldm(5)=    0.00000  celldm(6)=    0.00000

     crystal axes: (cart. coord. in units of alat)
               a(1) = (  0.5000  0.5000  0.5000 )  
               a(2) = ( -0.5000  0.5000  0.5000 )  
               a(3) = ( -0.5000 -0.5000  0.5000 )  

     reciprocal axes: (cart. coord. in units 2 pi/alat)
               b(1) = (  1.0000  0.0000  1.0000 )  
               b(2) = ( -1.0000  1.0000  0.0000 )  
               b(3) = (  0.0000 -1.0000  1.0000 )  


     Atoms inside the unit cell: 

     Cartesian axes

     site n.  atom      mass           positions (alat units)
        1     Na  22.9900   tau(    1) = (    0.00000    0.00000    0.00000  )

     Computing dynamical matrix for 
                    q = (   0.0000000   0.5000000  -0.5000000 )

      9 Sym.Ops. (with q -> -q+G )


     G cutoff =  420.1992  (   1128 G-vectors)     FFT grid: ( 36, 36, 36)
     G cutoff =  210.0996  (    405 G-vectors)  smooth grid: ( 25, 25, 25)

     number of k points=  2310  Marzari-Vanderbilt smearing, width (Ry)=  0.0200

     PseudoPot. # 1 for Na read from file:
     /home/s1333534/quantum_espresso/qe-6.1/pseudo/Na_pbe_v1.uspp.F.UPF
     MD5 check sum: 76a99c7e9422403d3e93cbc85ab7bccb
     Pseudo is Ultrasoft, Zval =  9.0
     Generated by new atomic code, or converted to UPF format
     Using radial grid of  819 points,  5 beta functions with: 
                l(1) =   0
                l(2) =   0
                l(3) =   1
                l(4) =   1
                l(5) =   2
     Q(r) pseudized with  8 coefficients,  rinner =    1.250   1.250   1.250
                                                       1.250   1.250

     Mode symmetry, D_2h (mmm)  point group:


     Atomic displacements:
     There are   3 irreducible representations

     Representation     1      1 modes -B_1u  To be done

     Representation     2      1 modes -B_2u  To be done

     Representation     3      1 modes -B_3u  To be done



     Alpha used in Ewald sum =   2.8000
     PHONON       :  8m57.30s CPU     9m48.76s WALL



     Representation #  1 mode #   1

     Self-consistent Calculation

      iter #   1 total cpu time :   592.4 secs   av.it.:   5.5
      thresh= 1.000E-02 alpha_mix =  0.700 |ddv_scf|^2 =  1.465E-05

      iter #   2 total cpu time :   596.5 secs   av.it.:   7.7
      thresh= 3.827E-04 alpha_mix =  0.700 |ddv_scf|^2 =  2.121E-07

      iter #   3 total cpu time :   600.8 secs   av.it.:   7.8
      thresh= 4.605E-05 alpha_mix =  0.700 |ddv_scf|^2 =  1.006E-08

      iter #   4 total cpu time :   604.8 secs   av.it.:   7.3
      thresh= 1.003E-05 alpha_mix =  0.700 |ddv_scf|^2 =  3.627E-11

      iter #   5 total cpu time :   609.0 secs   av.it.:   7.6
      thresh= 6.022E-07 alpha_mix =  0.700 |ddv_scf|^2 =  3.755E-14

      iter #   6 total cpu time :   612.7 secs   av.it.:   6.6
      thresh= 1.938E-08 alpha_mix =  0.700 |ddv_scf|^2 =  2.364E-15

      iter #   7 total cpu time :   616.8 secs   av.it.:   7.4
      thresh= 4.862E-09 alpha_mix =  0.700 |ddv_scf|^2 =  1.925E-18

     End of self-consistent calculation

     Convergence has been achieved 


     Representation #  2 mode #   2

     Self-consistent Calculation

      iter #   1 total cpu time :   620.5 secs   av.it.:   5.5
      thresh= 1.000E-02 alpha_mix =  0.700 |ddv_scf|^2 =  1.279E-05

      iter #   2 total cpu time :   624.7 secs   av.it.:   7.7
      thresh= 3.577E-04 alpha_mix =  0.700 |ddv_scf|^2 =  2.175E-07

      iter #   3 total cpu time :   629.1 secs   av.it.:   7.9
      thresh= 4.664E-05 alpha_mix =  0.700 |ddv_scf|^2 =  5.083E-09

      iter #   4 total cpu time :   632.9 secs   av.it.:   7.2
      thresh= 7.130E-06 alpha_mix =  0.700 |ddv_scf|^2 =  1.636E-11

      iter #   5 total cpu time :   637.0 secs   av.it.:   7.6
      thresh= 4.045E-07 alpha_mix =  0.700 |ddv_scf|^2 =  2.430E-14

      iter #   6 total cpu time :   641.2 secs   av.it.:   7.3
      thresh= 1.559E-08 alpha_mix =  0.700 |ddv_scf|^2 =  6.495E-16

      iter #   7 total cpu time :   645.3 secs   av.it.:   7.6
      thresh= 2.548E-09 alpha_mix =  0.700 |ddv_scf|^2 =  2.377E-19

     End of self-consistent calculation

     Convergence has been achieved 


     Representation #  3 mode #   3

     Self-consistent Calculation

      iter #   1 total cpu time :   649.2 secs   av.it.:   5.7
      thresh= 1.000E-02 alpha_mix =  0.700 |ddv_scf|^2 =  1.159E-04

      iter #   2 total cpu time :   653.0 secs   av.it.:   6.8
      thresh= 1.077E-03 alpha_mix =  0.700 |ddv_scf|^2 =  5.509E-05

      iter #   3 total cpu time :   656.8 secs   av.it.:   6.8
      thresh= 7.422E-04 alpha_mix =  0.700 |ddv_scf|^2 =  7.894E-08

      iter #   4 total cpu time :   660.9 secs   av.it.:   7.8
      thresh= 2.810E-05 alpha_mix =  0.700 |ddv_scf|^2 =  2.554E-10

      iter #   5 total cpu time :   664.7 secs   av.it.:   6.6
      thresh= 1.598E-06 alpha_mix =  0.700 |ddv_scf|^2 =  5.488E-12

      iter #   6 total cpu time :   668.4 secs   av.it.:   6.8
      thresh= 2.343E-07 alpha_mix =  0.700 |ddv_scf|^2 =  1.667E-14

      iter #   7 total cpu time :   672.4 secs   av.it.:   7.1
      thresh= 1.291E-08 alpha_mix =  0.700 |ddv_scf|^2 =  3.221E-17

     End of self-consistent calculation

     Convergence has been achieved 

     Number of q in the star =    6
     List of q in the star:
          1   0.000000000   0.500000000  -0.500000000
          2  -0.500000000  -0.500000000   0.000000000
          3   0.500000000  -0.500000000   0.000000000
          4   0.500000000   0.000000000   0.500000000
          5   0.000000000  -0.500000000  -0.500000000
          6   0.500000000   0.000000000  -0.500000000

     Diagonalizing the dynamical matrix

     q = (    0.000000000   0.500000000  -0.500000000 ) 

 **************************************************************************
     freq (    1) =       1.243182 [THz] =      41.468087 [cm-1]
     freq (    2) =       3.225050 [THz] =     107.576079 [cm-1]
     freq (    3) =       5.806393 [THz] =     193.680439 [cm-1]
 **************************************************************************

     Mode symmetry, D_2h (mmm)  point group:

     freq (  1 -  1) =         41.5  [cm-1]   --> B_2u               
     freq (  2 -  2) =        107.6  [cm-1]   --> B_1u               
     freq (  3 -  3) =        193.7  [cm-1]   --> B_3u               

     Calculation of q =   -0.1666667  -0.1666667   0.3333333

   Info: using nr1, nr2, nr3 values from input

   Info: using nr1, nr2, nr3 values from input

     Parallelization info
     --------------------
     sticks:   dense  smooth     PW     G-vecs:    dense   smooth      PW
     Min          58      29     10                 1127      403      87
     Max          59      30     11                 1130      405      89
     Sum         929     471    169                18053     6459    1409



     bravais-lattice index     =            3
     lattice parameter (alat)  =       7.2000  a.u.
     unit-cell volume          =     186.6240 (a.u.)^3
     number of atoms/cell      =            1
     number of atomic types    =            1
     number of electrons       =         9.00
     number of Kohn-Sham states=            9
     kinetic-energy cutoff     =      40.0000  Ry
     charge density cutoff     =     320.0000  Ry
     Exchange-correlation      = SLA  PW   PBE  PBE ( 1  4  3  4 0 0)

     celldm(1)=   7.200000  celldm(2)=   0.000000  celldm(3)=   0.000000
     celldm(4)=   0.000000  celldm(5)=   0.000000  celldm(6)=   0.000000

     crystal axes: (cart. coord. in units of alat)
               a(1) = (   0.500000   0.500000   0.500000 )  
               a(2) = (  -0.500000   0.500000   0.500000 )  
               a(3) = (  -0.500000  -0.500000   0.500000 )  

     reciprocal axes: (cart. coord. in units 2 pi/alat)
               b(1) = (  1.000000  0.000000  1.000000 )  
               b(2) = ( -1.000000  1.000000  0.000000 )  
               b(3) = (  0.000000 -1.000000  1.000000 )  


     PseudoPot. # 1 for Na read from file:
     /home/s1333534/quantum_espresso/qe-6.1/pseudo/Na_pbe_v1.uspp.F.UPF
     MD5 check sum: 76a99c7e9422403d3e93cbc85ab7bccb
     Pseudo is Ultrasoft, Zval =  9.0
     Generated by new atomic code, or converted to UPF format
     Using radial grid of  819 points,  5 beta functions with: 
                l(1) =   0
                l(2) =   0
                l(3) =   1
                l(4) =   1
                l(5) =   2
     Q(r) pseudized with  8 coefficients,  rinner =    1.250   1.250   1.250
                                                       1.250   1.250

     atomic species   valence    mass     pseudopotential
        Na             9.00    22.99000     Na( 1.00)

     48 Sym. Ops., with inversion, found



   Cartesian axes

     site n.     atom                  positions (alat units)
         1           Na  tau(   1) = (   0.0000000   0.0000000   0.0000000  )

     number of k points=  8400  Marzari-Vanderbilt smearing, width (Ry)=  0.0200

     Number of k-points >= 100: set verbosity='high' to print them.

     Dense  grid:    18053 G-vectors     FFT dimensions: (  36,  36,  36)

     Smooth grid:     6459 G-vectors     FFT dimensions: (  25,  25,  25)

     Estimated max dynamical RAM per process >       0.62MB

     Estimated total allocated dynamical RAM >      39.67MB

     The potential is recalculated from file :
     ./_ph0/na.bcc.save/charge-density.dat

     Starting wfc are    5 atomic +    4 random wfc

     Band Structure Calculation
     Davidson diagonalization with overlap

     ethr =  1.11E-10,  avg # of iterations = 18.9

     total cpu time spent up to now is      284.4 secs

     End of band structure calculation

     Number of k-points >= 100: set verbosity='high' to print the bands.

     the Fermi energy is     3.0393 ev

     Writing output data file na.bcc.save

                                                                                

     bravais-lattice index     =            3
     lattice parameter (alat)  =       7.2000  a.u.
     unit-cell volume          =     186.6240 (a.u.)^3
     number of atoms/cell      =            1
     number of atomic types    =            1
     kinetic-energy cut-off    =      40.0000  Ry
     charge density cut-off    =     320.0000  Ry
     convergence threshold     =      1.0E-16
     beta                      =       0.7000
     number of iterations used =            4
     Exchange-correlation      = SLA  PW   PBE  PBE ( 1  4  3  4 0 0)


     celldm(1)=    7.20000  celldm(2)=    0.00000  celldm(3)=    0.00000
     celldm(4)=    0.00000  celldm(5)=    0.00000  celldm(6)=    0.00000

     crystal axes: (cart. coord. in units of alat)
               a(1) = (  0.5000  0.5000  0.5000 )  
               a(2) = ( -0.5000  0.5000  0.5000 )  
               a(3) = ( -0.5000 -0.5000  0.5000 )  

     reciprocal axes: (cart. coord. in units 2 pi/alat)
               b(1) = (  1.0000  0.0000  1.0000 )  
               b(2) = ( -1.0000  1.0000  0.0000 )  
               b(3) = (  0.0000 -1.0000  1.0000 )  


     Atoms inside the unit cell: 

     Cartesian axes

     site n.  atom      mass           positions (alat units)
        1     Na  22.9900   tau(    1) = (    0.00000    0.00000    0.00000  )

     Computing dynamical matrix for 
                    q = (  -0.1666667  -0.1666667   0.3333333 )

      2 Sym.Ops. (no q -> -q+G )


     G cutoff =  420.1992  (   1128 G-vectors)     FFT grid: ( 36, 36, 36)
     G cutoff =  210.0996  (    405 G-vectors)  smooth grid: ( 25, 25, 25)

     number of k points=  8400  Marzari-Vanderbilt smearing, width (Ry)=  0.0200

     PseudoPot. # 1 for Na read from file:
     /home/s1333534/quantum_espresso/qe-6.1/pseudo/Na_pbe_v1.uspp.F.UPF
     MD5 check sum: 76a99c7e9422403d3e93cbc85ab7bccb
     Pseudo is Ultrasoft, Zval =  9.0
     Generated by new atomic code, or converted to UPF format
     Using radial grid of  819 points,  5 beta functions with: 
                l(1) =   0
                l(2) =   0
                l(3) =   1
                l(4) =   1
                l(5) =   2
     Q(r) pseudized with  8 coefficients,  rinner =    1.250   1.250   1.250
                                                       1.250   1.250

     Mode symmetry, C_s (m)     point group:


     Atomic displacements:
     There are   3 irreducible representations

     Representation     1      1 modes -A'  To be done

     Representation     2      1 modes -A'  To be done

     Representation     3      1 modes -A''  To be done



     Alpha used in Ewald sum =   2.8000
     PHONON       : 12m25.58s CPU    13m31.97s WALL



     Representation #  1 mode #   1

     Self-consistent Calculation

      iter #   1 total cpu time :   825.7 secs   av.it.:   5.6
      thresh= 1.000E-02 alpha_mix =  0.700 |ddv_scf|^2 =  1.407E-04

      iter #   2 total cpu time :   839.6 secs   av.it.:   7.3
      thresh= 1.186E-03 alpha_mix =  0.700 |ddv_scf|^2 =  1.379E-03

      iter #   3 total cpu time :   851.1 secs   av.it.:   5.5
      thresh= 3.713E-03 alpha_mix =  0.700 |ddv_scf|^2 =  1.595E-07

      iter #   4 total cpu time :   866.7 secs   av.it.:   8.3
      thresh= 3.993E-05 alpha_mix =  0.700 |ddv_scf|^2 =  5.277E-09

      iter #   5 total cpu time :   881.3 secs   av.it.:   7.9
      thresh= 7.264E-06 alpha_mix =  0.700 |ddv_scf|^2 =  2.231E-10

      iter #   6 total cpu time :   896.6 secs   av.it.:   8.2
      thresh= 1.494E-06 alpha_mix =  0.700 |ddv_scf|^2 =  2.300E-11

      iter #   7 total cpu time :   911.0 secs   av.it.:   7.7
      thresh= 4.796E-07 alpha_mix =  0.700 |ddv_scf|^2 =  5.372E-11

      iter #   8 total cpu time :   925.7 secs   av.it.:   7.0
      thresh= 7.330E-07 alpha_mix =  0.700 |ddv_scf|^2 =  3.780E-11

      iter #   9 total cpu time :   938.4 secs   av.it.:   6.5
      thresh= 6.148E-07 alpha_mix =  0.700 |ddv_scf|^2 =  1.018E-12

      iter #  10 total cpu time :   952.1 secs   av.it.:   7.2
      thresh= 1.009E-07 alpha_mix =  0.700 |ddv_scf|^2 =  6.267E-15

      iter #  11 total cpu time :   967.3 secs   av.it.:   8.1
      thresh= 7.916E-09 alpha_mix =  0.700 |ddv_scf|^2 =  2.416E-16

      iter #  12 total cpu time :   981.8 secs   av.it.:   7.7
      thresh= 1.554E-09 alpha_mix =  0.700 |ddv_scf|^2 =  1.939E-17

     End of self-consistent calculation

     Convergence has been achieved 


     Representation #  2 mode #   2

     Self-consistent Calculation

      iter #   1 total cpu time :   995.5 secs   av.it.:   5.8
      thresh= 1.000E-02 alpha_mix =  0.700 |ddv_scf|^2 =  1.149E-03

      iter #   2 total cpu time :  1008.7 secs   av.it.:   6.6
      thresh= 3.389E-03 alpha_mix =  0.700 |ddv_scf|^2 =  1.221E-02

      iter #   3 total cpu time :  1020.3 secs   av.it.:   5.6
      thresh= 1.000E-02 alpha_mix =  0.700 |ddv_scf|^2 =  1.241E-06

      iter #   4 total cpu time :  1035.1 secs   av.it.:   7.7
      thresh= 1.114E-04 alpha_mix =  0.700 |ddv_scf|^2 =  6.063E-09

      iter #   5 total cpu time :  1050.3 secs   av.it.:   8.3
      thresh= 7.787E-06 alpha_mix =  0.700 |ddv_scf|^2 =  1.019E-09

      iter #   6 total cpu time :  1065.2 secs   av.it.:   8.0
      thresh= 3.193E-06 alpha_mix =  0.700 |ddv_scf|^2 =  1.351E-11

      iter #   7 total cpu time :  1080.1 secs   av.it.:   8.1
      thresh= 3.676E-07 alpha_mix =  0.700 |ddv_scf|^2 =  7.036E-12

      iter #   8 total cpu time :  1093.5 secs   av.it.:   6.8
      thresh= 2.652E-07 alpha_mix =  0.700 |ddv_scf|^2 =  7.484E-12

      iter #   9 total cpu time :  1107.1 secs   av.it.:   7.0
      thresh= 2.736E-07 alpha_mix =  0.700 |ddv_scf|^2 =  8.001E-13

      iter #  10 total cpu time :  1120.9 secs   av.it.:   6.9
      thresh= 8.945E-08 alpha_mix =  0.700 |ddv_scf|^2 =  5.813E-14

      iter #  11 total cpu time :  1135.1 secs   av.it.:   7.5
      thresh= 2.411E-08 alpha_mix =  0.700 |ddv_scf|^2 =  2.437E-16

      iter #  12 total cpu time :  1149.8 secs   av.it.:   7.9
      thresh= 1.561E-09 alpha_mix =  0.700 |ddv_scf|^2 =  3.014E-17

     End of self-consistent calculation

     Convergence has been achieved 


     Representation #  3 mode #   3

     Self-consistent Calculation

      iter #   1 total cpu time :  1163.2 secs   av.it.:   5.5
      thresh= 1.000E-02 alpha_mix =  0.700 |ddv_scf|^2 =  1.474E-05

      iter #   2 total cpu time :  1178.0 secs   av.it.:   7.8
      thresh= 3.839E-04 alpha_mix =  0.700 |ddv_scf|^2 =  2.043E-07

      iter #   3 total cpu time :  1193.0 secs   av.it.:   8.0
      thresh= 4.519E-05 alpha_mix =  0.700 |ddv_scf|^2 =  9.051E-09

      iter #   4 total cpu time :  1207.5 secs   av.it.:   7.7
      thresh= 9.514E-06 alpha_mix =  0.700 |ddv_scf|^2 =  7.258E-11

      iter #   5 total cpu time :  1222.2 secs   av.it.:   7.5
      thresh= 8.519E-07 alpha_mix =  0.700 |ddv_scf|^2 =  7.157E-14

      iter #   6 total cpu time :  1236.4 secs   av.it.:   7.4
      thresh= 2.675E-08 alpha_mix =  0.700 |ddv_scf|^2 =  3.330E-15

      iter #   7 total cpu time :  1250.8 secs   av.it.:   7.4
      thresh= 5.770E-09 alpha_mix =  0.700 |ddv_scf|^2 =  1.179E-17

     End of self-consistent calculation

     Convergence has been achieved 

     Number of q in the star =   24
     List of q in the star:
          1  -0.166666667  -0.166666667   0.333333333
          2  -0.166666667  -0.333333333   0.166666667
          3   0.166666667  -0.333333333   0.166666667
          4  -0.166666667   0.333333333  -0.166666667
          5   0.166666667   0.333333333  -0.166666667
          6   0.166666667   0.166666667  -0.333333333
          7  -0.166666667   0.166666667  -0.333333333
          8   0.333333333   0.166666667  -0.166666667
          9  -0.333333333   0.166666667   0.166666667
         10   0.333333333  -0.166666667   0.166666667
         11  -0.333333333  -0.166666667  -0.166666667
         12  -0.166666667  -0.166666667  -0.333333333
         13  -0.166666667   0.333333333   0.166666667
         14  -0.166666667  -0.333333333  -0.166666667
         15  -0.166666667   0.166666667   0.333333333
         16   0.166666667  -0.166666667   0.333333333
         17   0.166666667  -0.333333333  -0.166666667
         18  -0.333333333   0.166666667  -0.166666667
         19   0.333333333   0.166666667   0.166666667
         20  -0.333333333  -0.166666667   0.166666667
         21   0.333333333  -0.166666667  -0.166666667
         22   0.166666667  -0.166666667  -0.333333333
         23   0.166666667   0.166666667   0.333333333
         24   0.166666667   0.333333333   0.166666667

     Diagonalizing the dynamical matrix

     q = (   -0.166666667  -0.166666667   0.333333333 ) 

 **************************************************************************
     freq (    1) =       1.628163 [THz] =      54.309688 [cm-1]
     freq (    2) =       2.627170 [THz] =      87.632975 [cm-1]
     freq (    3) =       4.400096 [THz] =     146.771416 [cm-1]
 **************************************************************************

     Mode symmetry, C_s (m)     point group:

     freq (  1 -  1) =         54.3  [cm-1]   --> A'                 
     freq (  2 -  2) =         87.6  [cm-1]   --> A''                
     freq (  3 -  3) =        146.8  [cm-1]   --> A'                 

     Calculation of q =   -0.1666667   0.6666667  -0.5000000

   Info: using nr1, nr2, nr3 values from input

   Info: using nr1, nr2, nr3 values from input

     Parallelization info
     --------------------
     sticks:   dense  smooth     PW     G-vecs:    dense   smooth      PW
     Min          58      29     11                 1127      403      96
     Max          59      30     12                 1130      405      98
     Sum         929     471    181                18053     6459    1553



     bravais-lattice index     =            3
     lattice parameter (alat)  =       7.2000  a.u.
     unit-cell volume          =     186.6240 (a.u.)^3
     number of atoms/cell      =            1
     number of atomic types    =            1
     number of electrons       =         9.00
     number of Kohn-Sham states=            9
     kinetic-energy cutoff     =      40.0000  Ry
     charge density cutoff     =     320.0000  Ry
     Exchange-correlation      = SLA  PW   PBE  PBE ( 1  4  3  4 0 0)

     celldm(1)=   7.200000  celldm(2)=   0.000000  celldm(3)=   0.000000
     celldm(4)=   0.000000  celldm(5)=   0.000000  celldm(6)=   0.000000

     crystal axes: (cart. coord. in units of alat)
               a(1) = (   0.500000   0.500000   0.500000 )  
               a(2) = (  -0.500000   0.500000   0.500000 )  
               a(3) = (  -0.500000  -0.500000   0.500000 )  

     reciprocal axes: (cart. coord. in units 2 pi/alat)
               b(1) = (  1.000000  0.000000  1.000000 )  
               b(2) = ( -1.000000  1.000000  0.000000 )  
               b(3) = (  0.000000 -1.000000  1.000000 )  


     PseudoPot. # 1 for Na read from file:
     /home/s1333534/quantum_espresso/qe-6.1/pseudo/Na_pbe_v1.uspp.F.UPF
     MD5 check sum: 76a99c7e9422403d3e93cbc85ab7bccb
     Pseudo is Ultrasoft, Zval =  9.0
     Generated by new atomic code, or converted to UPF format
     Using radial grid of  819 points,  5 beta functions with: 
                l(1) =   0
                l(2) =   0
                l(3) =   1
                l(4) =   1
                l(5) =   2
     Q(r) pseudized with  8 coefficients,  rinner =    1.250   1.250   1.250
                                                       1.250   1.250

     atomic species   valence    mass     pseudopotential
        Na             9.00    22.99000     Na( 1.00)

     48 Sym. Ops., with inversion, found



   Cartesian axes

     site n.     atom                  positions (alat units)
         1           Na  tau(   1) = (   0.0000000   0.0000000   0.0000000  )

     number of k points= 16000  Marzari-Vanderbilt smearing, width (Ry)=  0.0200

     Number of k-points >= 100: set verbosity='high' to print them.

     Dense  grid:    18053 G-vectors     FFT dimensions: (  36,  36,  36)

     Smooth grid:     6459 G-vectors     FFT dimensions: (  25,  25,  25)

     Estimated max dynamical RAM per process >       0.62MB

     Estimated total allocated dynamical RAM >      39.67MB

     The potential is recalculated from file :
     ./_ph0/na.bcc.save/charge-density.dat

     Starting wfc are    5 atomic +    4 random wfc

     Band Structure Calculation
     Davidson diagonalization with overlap

     ethr =  1.11E-10,  avg # of iterations = 18.8

     total cpu time spent up to now is      514.1 secs

     End of band structure calculation

     Number of k-points >= 100: set verbosity='high' to print the bands.

     the Fermi energy is     3.0393 ev

     Writing output data file na.bcc.save

                                                                                

     bravais-lattice index     =            3
     lattice parameter (alat)  =       7.2000  a.u.
     unit-cell volume          =     186.6240 (a.u.)^3
     number of atoms/cell      =            1
     number of atomic types    =            1
     kinetic-energy cut-off    =      40.0000  Ry
     charge density cut-off    =     320.0000  Ry
     convergence threshold     =      1.0E-16
     beta                      =       0.7000
     number of iterations used =            4
     Exchange-correlation      = SLA  PW   PBE  PBE ( 1  4  3  4 0 0)


     celldm(1)=    7.20000  celldm(2)=    0.00000  celldm(3)=    0.00000
     celldm(4)=    0.00000  celldm(5)=    0.00000  celldm(6)=    0.00000

     crystal axes: (cart. coord. in units of alat)
               a(1) = (  0.5000  0.5000  0.5000 )  
               a(2) = ( -0.5000  0.5000  0.5000 )  
               a(3) = ( -0.5000 -0.5000  0.5000 )  

     reciprocal axes: (cart. coord. in units 2 pi/alat)
               b(1) = (  1.0000  0.0000  1.0000 )  
               b(2) = ( -1.0000  1.0000  0.0000 )  
               b(3) = (  0.0000 -1.0000  1.0000 )  


     Atoms inside the unit cell: 

     Cartesian axes

     site n.  atom      mass           positions (alat units)
        1     Na  22.9900   tau(    1) = (    0.00000    0.00000    0.00000  )

     Computing dynamical matrix for 
                    q = (  -0.1666667   0.6666667  -0.5000000 )

     No symmetry!

     G cutoff =  420.1992  (   1128 G-vectors)     FFT grid: ( 36, 36, 36)
     G cutoff =  210.0996  (    405 G-vectors)  smooth grid: ( 25, 25, 25)

     number of k points= 16000  Marzari-Vanderbilt smearing, width (Ry)=  0.0200

     PseudoPot. # 1 for Na read from file:
     /home/s1333534/quantum_espresso/qe-6.1/pseudo/Na_pbe_v1.uspp.F.UPF
     MD5 check sum: 76a99c7e9422403d3e93cbc85ab7bccb
     Pseudo is Ultrasoft, Zval =  9.0
     Generated by new atomic code, or converted to UPF format
     Using radial grid of  819 points,  5 beta functions with: 
                l(1) =   0
                l(2) =   0
                l(3) =   1
                l(4) =   1
                l(5) =   2
     Q(r) pseudized with  8 coefficients,  rinner =    1.250   1.250   1.250
                                                       1.250   1.250

     Mode symmetry, C_1 (1)     point group:


     Atomic displacements:
     There are   3 irreducible representations

     Representation     1      1 modes -A  To be done

     Representation     2      1 modes -A  To be done

     Representation     3      1 modes -A  To be done



     Alpha used in Ewald sum =   2.8000
     PHONON       : 23m 6.47s CPU    25m14.11s WALL



     Representation #  1 mode #   1

     Self-consistent Calculation

      iter #   1 total cpu time :  1539.8 secs   av.it.:   5.7
      thresh= 1.000E-02 alpha_mix =  0.700 |ddv_scf|^2 =  1.622E-05

      iter #   2 total cpu time :  1569.0 secs   av.it.:   8.0
      thresh= 4.027E-04 alpha_mix =  0.700 |ddv_scf|^2 =  1.933E-06

      iter #   3 total cpu time :  1596.5 secs   av.it.:   7.6
      thresh= 1.390E-04 alpha_mix =  0.700 |ddv_scf|^2 =  8.008E-07

      iter #   4 total cpu time :  1623.1 secs   av.it.:   7.3
      thresh= 8.949E-05 alpha_mix =  0.700 |ddv_scf|^2 =  4.642E-09

      iter #   5 total cpu time :  1651.5 secs   av.it.:   7.8
      thresh= 6.813E-06 alpha_mix =  0.700 |ddv_scf|^2 =  3.720E-10

      iter #   6 total cpu time :  1679.8 secs   av.it.:   7.9
      thresh= 1.929E-06 alpha_mix =  0.700 |ddv_scf|^2 =  4.920E-12

      iter #   7 total cpu time :  1709.2 secs   av.it.:   8.4
      thresh= 2.218E-07 alpha_mix =  0.700 |ddv_scf|^2 =  3.007E-13

      iter #   8 total cpu time :  1738.6 secs   av.it.:   8.4
      thresh= 5.483E-08 alpha_mix =  0.700 |ddv_scf|^2 =  1.427E-14

      iter #   9 total cpu time :  1768.3 secs   av.it.:   8.4
      thresh= 1.195E-08 alpha_mix =  0.700 |ddv_scf|^2 =  3.428E-16

      iter #  10 total cpu time :  1796.3 secs   av.it.:   7.5
      thresh= 1.851E-09 alpha_mix =  0.700 |ddv_scf|^2 =  1.357E-16

      iter #  11 total cpu time :  1823.6 secs   av.it.:   7.3
      thresh= 1.165E-09 alpha_mix =  0.700 |ddv_scf|^2 =  2.197E-18

     End of self-consistent calculation

     Convergence has been achieved 


     Representation #  2 mode #   2

     Self-consistent Calculation

      iter #   1 total cpu time :  1849.6 secs   av.it.:   5.8
      thresh= 1.000E-02 alpha_mix =  0.700 |ddv_scf|^2 =  7.001E-05

      iter #   2 total cpu time :  1877.3 secs   av.it.:   7.5
      thresh= 8.367E-04 alpha_mix =  0.700 |ddv_scf|^2 =  5.663E-05

      iter #   3 total cpu time :  1903.4 secs   av.it.:   7.0
      thresh= 7.525E-04 alpha_mix =  0.700 |ddv_scf|^2 =  1.017E-07

      iter #   4 total cpu time :  1932.6 secs   av.it.:   8.3
      thresh= 3.189E-05 alpha_mix =  0.700 |ddv_scf|^2 =  4.006E-09

      iter #   5 total cpu time :  1962.0 secs   av.it.:   8.3
      thresh= 6.329E-06 alpha_mix =  0.700 |ddv_scf|^2 =  3.948E-10

      iter #   6 total cpu time :  1991.5 secs   av.it.:   8.2
      thresh= 1.987E-06 alpha_mix =  0.700 |ddv_scf|^2 =  9.607E-12

      iter #   7 total cpu time :  2019.9 secs   av.it.:   7.8
      thresh= 3.099E-07 alpha_mix =  0.700 |ddv_scf|^2 =  6.930E-13

      iter #   8 total cpu time :  2049.4 secs   av.it.:   7.9
      thresh= 8.325E-08 alpha_mix =  0.700 |ddv_scf|^2 =  2.853E-14

      iter #   9 total cpu time :  2078.1 secs   av.it.:   7.5
      thresh= 1.689E-08 alpha_mix =  0.700 |ddv_scf|^2 =  1.588E-15

      iter #  10 total cpu time :  2105.7 secs   av.it.:   7.6
      thresh= 3.985E-09 alpha_mix =  0.700 |ddv_scf|^2 =  3.271E-17

     End of self-consistent calculation

     Convergence has been achieved 


     Representation #  3 mode #   3

     Self-consistent Calculation

      iter #   1 total cpu time :  2132.4 secs   av.it.:   5.8
      thresh= 1.000E-02 alpha_mix =  0.700 |ddv_scf|^2 =  7.848E-05

      iter #   2 total cpu time :  2160.0 secs   av.it.:   7.4
      thresh= 8.859E-04 alpha_mix =  0.700 |ddv_scf|^2 =  5.712E-05

      iter #   3 total cpu time :  2186.2 secs   av.it.:   7.0
      thresh= 7.558E-04 alpha_mix =  0.700 |ddv_scf|^2 =  3.603E-07

      iter #   4 total cpu time :  2214.6 secs   av.it.:   7.8
      thresh= 6.003E-05 alpha_mix =  0.700 |ddv_scf|^2 =  8.618E-09

      iter #   5 total cpu time :  2244.0 secs   av.it.:   8.3
      thresh= 9.283E-06 alpha_mix =  0.700 |ddv_scf|^2 =  2.371E-10

      iter #   6 total cpu time :  2274.3 secs   av.it.:   8.3
      thresh= 1.540E-06 alpha_mix =  0.700 |ddv_scf|^2 =  1.920E-11

      iter #   7 total cpu time :  2303.2 secs   av.it.:   8.2
      thresh= 4.382E-07 alpha_mix =  0.700 |ddv_scf|^2 =  9.428E-13

      iter #   8 total cpu time :  2333.0 secs   av.it.:   8.3
      thresh= 9.710E-08 alpha_mix =  0.700 |ddv_scf|^2 =  5.867E-14

      iter #   9 total cpu time :  2360.5 secs   av.it.:   7.4
      thresh= 2.422E-08 alpha_mix =  0.700 |ddv_scf|^2 =  3.726E-15

      iter #  10 total cpu time :  2388.8 secs   av.it.:   7.8
      thresh= 6.104E-09 alpha_mix =  0.700 |ddv_scf|^2 =  5.689E-17

     End of self-consistent calculation

     Convergence has been achieved 

     Number of q in the star =   48
     List of q in the star:
          1  -0.166666667   0.666666667  -0.500000000
          2   0.666666667  -0.166666667  -0.500000000
          3  -0.166666667   0.500000000  -0.666666667
          4   0.166666667   0.500000000  -0.666666667
          5  -0.166666667  -0.500000000   0.666666667
          6   0.166666667  -0.500000000   0.666666667
          7   0.166666667  -0.666666667   0.500000000
          8  -0.166666667  -0.666666667   0.500000000
          9  -0.500000000  -0.666666667  -0.166666667
         10   0.500000000  -0.666666667   0.166666667
         11  -0.500000000   0.666666667   0.166666667
         12   0.500000000   0.666666667  -0.166666667
         13   0.666666667  -0.166666667   0.500000000
         14   0.666666667  -0.500000000  -0.166666667
         15  -0.166666667  -0.500000000  -0.666666667
         16  -0.166666667   0.500000000   0.666666667
         17   0.666666667   0.166666667  -0.500000000
         18   0.166666667   0.666666667  -0.500000000
         19   0.666666667   0.500000000   0.166666667
         20  -0.666666667   0.500000000  -0.166666667
         21   0.500000000   0.166666667   0.666666667
         22  -0.500000000   0.166666667  -0.666666667
         23   0.500000000   0.666666667   0.166666667
         24   0.500000000  -0.166666667  -0.666666667
         25  -0.666666667   0.166666667   0.500000000
         26  -0.166666667   0.666666667   0.500000000
         27  -0.500000000  -0.166666667   0.666666667
         28   0.166666667   0.666666667   0.500000000
         29  -0.500000000   0.666666667  -0.166666667
         30  -0.666666667  -0.166666667  -0.500000000
         31  -0.666666667  -0.166666667   0.500000000
         32   0.666666667   0.166666667   0.500000000
         33   0.166666667  -0.666666667  -0.500000000
         34  -0.666666667   0.166666667  -0.500000000
         35   0.500000000  -0.666666667  -0.166666667
         36  -0.500000000  -0.666666667   0.166666667
         37  -0.166666667  -0.666666667  -0.500000000
         38  -0.666666667  -0.500000000   0.166666667
         39   0.166666667   0.500000000   0.666666667
         40   0.166666667  -0.500000000  -0.666666667
         41  -0.666666667   0.500000000   0.166666667
         42   0.666666667   0.500000000  -0.166666667
         43  -0.666666667  -0.500000000  -0.166666667
         44   0.666666667  -0.500000000   0.166666667
         45   0.500000000   0.166666667  -0.666666667
         46   0.500000000  -0.166666667   0.666666667
         47  -0.500000000  -0.166666667  -0.666666667
         48  -0.500000000   0.166666667   0.666666667

     Diagonalizing the dynamical matrix

     q = (   -0.166666667   0.666666667  -0.500000000 ) 

 **************************************************************************
     freq (    1) =       1.987623 [THz] =      66.299976 [cm-1]
     freq (    2) =       3.680659 [THz] =     122.773581 [cm-1]
     freq (    3) =       5.461116 [THz] =     182.163205 [cm-1]
 **************************************************************************

     Mode symmetry, C_1 (1)     point group:

     freq (  1 -  1) =         66.3  [cm-1]   --> A                  
     freq (  2 -  2) =        122.8  [cm-1]   --> A                  
     freq (  3 -  3) =        182.2  [cm-1]   --> A                  

     Calculation of q =   -0.3333333   0.6666667  -0.3333333

   Info: using nr1, nr2, nr3 values from input

   Info: using nr1, nr2, nr3 values from input

     Parallelization info
     --------------------
     sticks:   dense  smooth     PW     G-vecs:    dense   smooth      PW
     Min          58      29     10                 1127      403      91
     Max          59      30     11                 1130      405      95
     Sum         929     471    173                18053     6459    1505



     bravais-lattice index     =            3
     lattice parameter (alat)  =       7.2000  a.u.
     unit-cell volume          =     186.6240 (a.u.)^3
     number of atoms/cell      =            1
     number of atomic types    =            1
     number of electrons       =         9.00
     number of Kohn-Sham states=            9
     kinetic-energy cutoff     =      40.0000  Ry
     charge density cutoff     =     320.0000  Ry
     Exchange-correlation      = SLA  PW   PBE  PBE ( 1  4  3  4 0 0)

     celldm(1)=   7.200000  celldm(2)=   0.000000  celldm(3)=   0.000000
     celldm(4)=   0.000000  celldm(5)=   0.000000  celldm(6)=   0.000000

     crystal axes: (cart. coord. in units of alat)
               a(1) = (   0.500000   0.500000   0.500000 )  
               a(2) = (  -0.500000   0.500000   0.500000 )  
               a(3) = (  -0.500000  -0.500000   0.500000 )  

     reciprocal axes: (cart. coord. in units 2 pi/alat)
               b(1) = (  1.000000  0.000000  1.000000 )  
               b(2) = ( -1.000000  1.000000  0.000000 )  
               b(3) = (  0.000000 -1.000000  1.000000 )  


     PseudoPot. # 1 for Na read from file:
     /home/s1333534/quantum_espresso/qe-6.1/pseudo/Na_pbe_v1.uspp.F.UPF
     MD5 check sum: 76a99c7e9422403d3e93cbc85ab7bccb
     Pseudo is Ultrasoft, Zval =  9.0
     Generated by new atomic code, or converted to UPF format
     Using radial grid of  819 points,  5 beta functions with: 
                l(1) =   0
                l(2) =   0
                l(3) =   1
                l(4) =   1
                l(5) =   2
     Q(r) pseudized with  8 coefficients,  rinner =    1.250   1.250   1.250
                                                       1.250   1.250

     atomic species   valence    mass     pseudopotential
        Na             9.00    22.99000     Na( 1.00)

     48 Sym. Ops., with inversion, found



   Cartesian axes

     site n.     atom                  positions (alat units)
         1           Na  tau(   1) = (   0.0000000   0.0000000   0.0000000  )

     number of k points=  3080  Marzari-Vanderbilt smearing, width (Ry)=  0.0200

     Number of k-points >= 100: set verbosity='high' to print them.

     Dense  grid:    18053 G-vectors     FFT dimensions: (  36,  36,  36)

     Smooth grid:     6459 G-vectors     FFT dimensions: (  25,  25,  25)

     Estimated max dynamical RAM per process >       0.62MB

     Estimated total allocated dynamical RAM >      39.67MB

     The potential is recalculated from file :
     ./_ph0/na.bcc.save/charge-density.dat

     Starting wfc are    5 atomic +    4 random wfc

     Band Structure Calculation
     Davidson diagonalization with overlap

     ethr =  1.11E-10,  avg # of iterations = 19.1

     total cpu time spent up to now is      601.3 secs

     End of band structure calculation

     Number of k-points >= 100: set verbosity='high' to print the bands.

     the Fermi energy is     3.0393 ev

     Writing output data file na.bcc.save

                                                                                

     bravais-lattice index     =            3
     lattice parameter (alat)  =       7.2000  a.u.
     unit-cell volume          =     186.6240 (a.u.)^3
     number of atoms/cell      =            1
     number of atomic types    =            1
     kinetic-energy cut-off    =      40.0000  Ry
     charge density cut-off    =     320.0000  Ry
     convergence threshold     =      1.0E-16
     beta                      =       0.7000
     number of iterations used =            4
     Exchange-correlation      = SLA  PW   PBE  PBE ( 1  4  3  4 0 0)


     celldm(1)=    7.20000  celldm(2)=    0.00000  celldm(3)=    0.00000
     celldm(4)=    0.00000  celldm(5)=    0.00000  celldm(6)=    0.00000

     crystal axes: (cart. coord. in units of alat)
               a(1) = (  0.5000  0.5000  0.5000 )  
               a(2) = ( -0.5000  0.5000  0.5000 )  
               a(3) = ( -0.5000 -0.5000  0.5000 )  

     reciprocal axes: (cart. coord. in units 2 pi/alat)
               b(1) = (  1.0000  0.0000  1.0000 )  
               b(2) = ( -1.0000  1.0000  0.0000 )  
               b(3) = (  0.0000 -1.0000  1.0000 )  


     Atoms inside the unit cell: 

     Cartesian axes

     site n.  atom      mass           positions (alat units)
        1     Na  22.9900   tau(    1) = (    0.00000    0.00000    0.00000  )

     Computing dynamical matrix for 
                    q = (  -0.3333333   0.6666667  -0.3333333 )

      6 Sym.Ops. (no q -> -q+G )


     G cutoff =  420.1992  (   1128 G-vectors)     FFT grid: ( 36, 36, 36)
     G cutoff =  210.0996  (    405 G-vectors)  smooth grid: ( 25, 25, 25)

     number of k points=  3080  Marzari-Vanderbilt smearing, width (Ry)=  0.0200

     PseudoPot. # 1 for Na read from file:
     /home/s1333534/quantum_espresso/qe-6.1/pseudo/Na_pbe_v1.uspp.F.UPF
     MD5 check sum: 76a99c7e9422403d3e93cbc85ab7bccb
     Pseudo is Ultrasoft, Zval =  9.0
     Generated by new atomic code, or converted to UPF format
     Using radial grid of  819 points,  5 beta functions with: 
                l(1) =   0
                l(2) =   0
                l(3) =   1
                l(4) =   1
                l(5) =   2
     Q(r) pseudized with  8 coefficients,  rinner =    1.250   1.250   1.250
                                                       1.250   1.250

     Mode symmetry, C_3v (3m)   point group:


     Atomic displacements:
     There are   2 irreducible representations

     Representation     1      1 modes -A_1  L_1  To be done

     Representation     2      2 modes -E    L_3  To be done



     Alpha used in Ewald sum =   2.8000
     PHONON       : 36m58.71s CPU    40m41.77s WALL



     Representation #  1 mode #   1

     Self-consistent Calculation

      iter #   1 total cpu time :  2446.6 secs   av.it.:   5.4
      thresh= 1.000E-02 alpha_mix =  0.700 |ddv_scf|^2 =  1.373E-05

      iter #   2 total cpu time :  2452.0 secs   av.it.:   7.7
      thresh= 3.705E-04 alpha_mix =  0.700 |ddv_scf|^2 =  2.172E-07

      iter #   3 total cpu time :  2457.5 secs   av.it.:   8.0
      thresh= 4.661E-05 alpha_mix =  0.700 |ddv_scf|^2 =  7.756E-09

      iter #   4 total cpu time :  2464.2 secs   av.it.:   7.6
      thresh= 8.807E-06 alpha_mix =  0.700 |ddv_scf|^2 =  1.824E-10

      iter #   5 total cpu time :  2469.9 secs   av.it.:   7.6
      thresh= 1.350E-06 alpha_mix =  0.700 |ddv_scf|^2 =  4.280E-12

      iter #   6 total cpu time :  2475.8 secs   av.it.:   8.1
      thresh= 2.069E-07 alpha_mix =  0.700 |ddv_scf|^2 =  3.573E-13

      iter #   7 total cpu time :  2481.4 secs   av.it.:   8.1
      thresh= 5.978E-08 alpha_mix =  0.700 |ddv_scf|^2 =  5.883E-15

      iter #   8 total cpu time :  2487.0 secs   av.it.:   8.0
      thresh= 7.670E-09 alpha_mix =  0.700 |ddv_scf|^2 =  6.091E-17

     End of self-consistent calculation

     Convergence has been achieved 


     Representation #  2 modes #   2  3

     Self-consistent Calculation

      iter #   1 total cpu time :  2496.9 secs   av.it.:   5.7
      thresh= 1.000E-02 alpha_mix =  0.700 |ddv_scf|^2 =  1.106E-05

      iter #   2 total cpu time :  2508.4 secs   av.it.:   8.2
      thresh= 3.325E-04 alpha_mix =  0.700 |ddv_scf|^2 =  1.240E-06

      iter #   3 total cpu time :  2519.2 secs   av.it.:   7.7
      thresh= 1.113E-04 alpha_mix =  0.700 |ddv_scf|^2 =  9.844E-09

      iter #   4 total cpu time :  2531.8 secs   av.it.:   8.6
      thresh= 9.922E-06 alpha_mix =  0.700 |ddv_scf|^2 =  6.834E-11

      iter #   5 total cpu time :  2542.9 secs   av.it.:   7.8
      thresh= 8.267E-07 alpha_mix =  0.700 |ddv_scf|^2 =  8.393E-14

      iter #   6 total cpu time :  2553.9 secs   av.it.:   8.0
      thresh= 2.897E-08 alpha_mix =  0.700 |ddv_scf|^2 =  4.839E-15

      iter #   7 total cpu time :  2565.6 secs   av.it.:   8.1
      thresh= 6.956E-09 alpha_mix =  0.700 |ddv_scf|^2 =  1.186E-17

     End of self-consistent calculation

     Convergence has been achieved 

     Number of q in the star =    8
     List of q in the star:
          1  -0.333333333   0.666666667  -0.333333333
          2   0.333333333  -0.666666667   0.333333333
          3  -0.333333333  -0.666666667   0.333333333
          4  -0.333333333  -0.666666667  -0.333333333
          5  -0.333333333   0.666666667   0.333333333
          6   0.333333333   0.666666667  -0.333333333
          7  -0.666666667   0.333333333  -0.333333333
          8   0.333333333   0.666666667   0.333333333

     Diagonalizing the dynamical matrix

     q = (   -0.333333333   0.666666667  -0.333333333 ) 

 **************************************************************************
     freq (    1) =       2.313004 [THz] =      77.153502 [cm-1]
     freq (    2) =       4.941240 [THz] =     164.822016 [cm-1]
     freq (    3) =       4.941240 [THz] =     164.822016 [cm-1]
 **************************************************************************

     Mode symmetry, C_3v (3m)   point group:

     freq (  1 -  1) =         77.2  [cm-1]   --> A_1  L_1           
     freq (  2 -  3) =        164.8  [cm-1]   --> E    L_3           

     Calculation of q =    0.0000000   0.0000000   0.3333333

   Info: using nr1, nr2, nr3 values from input

   Info: using nr1, nr2, nr3 values from input

     Parallelization info
     --------------------
     sticks:   dense  smooth     PW     G-vecs:    dense   smooth      PW
     Min          58      29     10                 1127      403      80
     Max          59      30     11                 1130      405      81
     Sum         929     471    165                18053     6459    1289



     bravais-lattice index     =            3
     lattice parameter (alat)  =       7.2000  a.u.
     unit-cell volume          =     186.6240 (a.u.)^3
     number of atoms/cell      =            1
     number of atomic types    =            1
     number of electrons       =         9.00
     number of Kohn-Sham states=            9
     kinetic-energy cutoff     =      40.0000  Ry
     charge density cutoff     =     320.0000  Ry
     Exchange-correlation      = SLA  PW   PBE  PBE ( 1  4  3  4 0 0)

     celldm(1)=   7.200000  celldm(2)=   0.000000  celldm(3)=   0.000000
     celldm(4)=   0.000000  celldm(5)=   0.000000  celldm(6)=   0.000000

     crystal axes: (cart. coord. in units of alat)
               a(1) = (   0.500000   0.500000   0.500000 )  
[...]

     PseudoPot. # 1 for Na read from file:
     /home/s1333534/quantum_espresso/qe-6.1/pseudo/Na_pbe_v1.uspp.F.UPF
     MD5 check sum: 76a99c7e9422403d3e93cbc85ab7bccb
     Pseudo is Ultrasoft, Zval =  9.0
     Generated by new atomic code, or converted to UPF format
     Using radial grid of  819 points,  5 beta functions with: 
                l(1) =   0
                l(2) =   0
                l(3) =   1
                l(4) =   1
                l(5) =   2
     Q(r) pseudized with  8 coefficients,  rinner =    1.250   1.250   1.250
                                                       1.250   1.250

     Mode symmetry, C_2v (mm2)  point group:


     Atomic displacements:
     There are   3 irreducible representations

     Representation     1      1 modes -A_1  D_1  S_1  To be done

     Representation     2      1 modes -B_1  D_3  S_3  To be done

     Representation     3      1 modes -B_2  D_4  S_4  To be done



     Alpha used in Ewald sum =   2.8000
     PHONON       :     1h11m CPU        1h18m WALL



     Representation #  1 mode #   1

     Self-consistent Calculation

      iter #   1 total cpu time :  4740.8 secs   av.it.:   5.7
      thresh= 1.000E-02 alpha_mix =  0.700 |ddv_scf|^2 =  2.457E-05

      iter #   2 total cpu time :  4748.9 secs   av.it.:   7.8
      thresh= 4.957E-04 alpha_mix =  0.700 |ddv_scf|^2 =  1.020E-06

      iter #   3 total cpu time :  4756.8 secs   av.it.:   7.7
      thresh= 1.010E-04 alpha_mix =  0.700 |ddv_scf|^2 =  2.343E-08

      iter #   4 total cpu time :  4764.9 secs   av.it.:   8.1
      thresh= 1.531E-05 alpha_mix =  0.700 |ddv_scf|^2 =  1.497E-09

      iter #   5 total cpu time :  4772.8 secs   av.it.:   8.1
      thresh= 3.869E-06 alpha_mix =  0.700 |ddv_scf|^2 =  1.313E-10

      iter #   6 total cpu time :  4780.9 secs   av.it.:   7.9
      thresh= 1.146E-06 alpha_mix =  0.700 |ddv_scf|^2 =  5.029E-13

      iter #   7 total cpu time :  4788.7 secs   av.it.:   7.8
      thresh= 7.091E-08 alpha_mix =  0.700 |ddv_scf|^2 =  3.986E-14

      iter #   8 total cpu time :  4796.5 secs   av.it.:   7.9
      thresh= 1.997E-08 alpha_mix =  0.700 |ddv_scf|^2 =  1.231E-16

      iter #   9 total cpu time :  4804.5 secs   av.it.:   8.1
      thresh= 1.109E-09 alpha_mix =  0.700 |ddv_scf|^2 =  6.036E-18

     End of self-consistent calculation

     Convergence has been achieved 


     Representation #  2 mode #   2

     Self-consistent Calculation

      iter #   1 total cpu time :  4811.7 secs   av.it.:   5.5
      thresh= 1.000E-02 alpha_mix =  0.700 |ddv_scf|^2 =  2.107E-05

      iter #   2 total cpu time :  4819.6 secs   av.it.:   7.6
      thresh= 4.590E-04 alpha_mix =  0.700 |ddv_scf|^2 =  2.303E-07

      iter #   3 total cpu time :  4827.2 secs   av.it.:   7.6
      thresh= 4.799E-05 alpha_mix =  0.700 |ddv_scf|^2 =  2.170E-08

      iter #   4 total cpu time :  4834.8 secs   av.it.:   7.7
      thresh= 1.473E-05 alpha_mix =  0.700 |ddv_scf|^2 =  9.769E-11

      iter #   5 total cpu time :  4842.6 secs   av.it.:   7.5
      thresh= 9.884E-07 alpha_mix =  0.700 |ddv_scf|^2 =  4.403E-14

      iter #   6 total cpu time :  4849.9 secs   av.it.:   7.0
      thresh= 2.098E-08 alpha_mix =  0.700 |ddv_scf|^2 =  2.904E-15

      iter #   7 total cpu time :  4857.3 secs   av.it.:   7.4
      thresh= 5.389E-09 alpha_mix =  0.700 |ddv_scf|^2 =  4.322E-18

     End of self-consistent calculation

     Convergence has been achieved 


     Representation #  3 mode #   3

     Self-consistent Calculation

      iter #   1 total cpu time :  4864.5 secs   av.it.:   5.7
      thresh= 1.000E-02 alpha_mix =  0.700 |ddv_scf|^2 =  3.640E-05

      iter #   2 total cpu time :  4872.4 secs   av.it.:   7.5
      thresh= 6.033E-04 alpha_mix =  0.700 |ddv_scf|^2 =  2.470E-06

      iter #   3 total cpu time :  4880.0 secs   av.it.:   7.3
      thresh= 1.572E-04 alpha_mix =  0.700 |ddv_scf|^2 =  3.326E-08

      iter #   4 total cpu time :  4887.7 secs   av.it.:   7.8
      thresh= 1.824E-05 alpha_mix =  0.700 |ddv_scf|^2 =  9.791E-10

      iter #   5 total cpu time :  4895.1 secs   av.it.:   7.4
      thresh= 3.129E-06 alpha_mix =  0.700 |ddv_scf|^2 =  1.854E-12

      iter #   6 total cpu time :  4903.2 secs   av.it.:   7.9
      thresh= 1.361E-07 alpha_mix =  0.700 |ddv_scf|^2 =  1.185E-14

      iter #   7 total cpu time :  4911.3 secs   av.it.:   7.8
      thresh= 1.089E-08 alpha_mix =  0.700 |ddv_scf|^2 =  2.085E-16

      iter #   8 total cpu time :  4918.8 secs   av.it.:   7.5
      thresh= 1.444E-09 alpha_mix =  0.700 |ddv_scf|^2 =  4.084E-19

     End of self-consistent calculation

     Convergence has been achieved 

     Number of q in the star =   12
     List of q in the star:
          1   0.000000000   0.833333333  -0.166666667
          2   0.000000000  -0.833333333  -0.166666667
          3   0.833333333   0.000000000  -0.166666667
          4  -0.833333333   0.000000000  -0.166666667
          5  -0.166666667  -0.833333333   0.000000000
          6   0.166666667  -0.833333333   0.000000000
          7  -0.166666667   0.833333333   0.000000000
          8   0.166666667   0.833333333   0.000000000
          9   0.833333333   0.000000000   0.166666667
         10   0.000000000   0.166666667  -0.833333333
         11   0.000000000  -0.166666667  -0.833333333
         12   0.166666667   0.000000000  -0.833333333

     Diagonalizing the dynamical matrix

     q = (    0.000000000   0.833333333  -0.166666667 ) 

 **************************************************************************
     freq (    1) =       4.310071 [THz] =     143.768503 [cm-1]
     freq (    2) =       4.648036 [THz] =     155.041787 [cm-1]
     freq (    3) =       5.213253 [THz] =     173.895414 [cm-1]
 **************************************************************************

     Mode symmetry, C_2v (mm2)  point group:

     freq (  1 -  1) =        143.8  [cm-1]   --> A_1  D_1  S_1      
     freq (  2 -  2) =        155.0  [cm-1]   --> B_1  D_3  S_3      
     freq (  3 -  3) =        173.9  [cm-1]   --> B_2  D_4  S_4      

     Calculation of q =    0.0000000   0.0000000  -1.0000000

   Info: using nr1, nr2, nr3 values from input

   Info: using nr1, nr2, nr3 values from input

     Parallelization info
     --------------------
     sticks:   dense  smooth     PW     G-vecs:    dense   smooth      PW
     Min          58      29     10                 1127      403      90
     Max          59      30     11                 1130      405      94
     Sum         929     471    173                18053     6459    1481



     bravais-lattice index     =            3
     lattice parameter (alat)  =       7.2000  a.u.
     unit-cell volume          =     186.6240 (a.u.)^3
     number of atoms/cell      =            1
     number of atomic types    =            1
     number of electrons       =         9.00
     number of Kohn-Sham states=            9
     kinetic-energy cutoff     =      40.0000  Ry
     charge density cutoff     =     320.0000  Ry
     Exchange-correlation      = SLA  PW   PBE  PBE ( 1  4  3  4 0 0)

     celldm(1)=   7.200000  celldm(2)=   0.000000  celldm(3)=   0.000000
     celldm(4)=   0.000000  celldm(5)=   0.000000  celldm(6)=   0.000000

     crystal axes: (cart. coord. in units of alat)
               a(1) = (   0.500000   0.500000   0.500000 )  
               a(2) = (  -0.500000   0.500000   0.500000 )  
               a(3) = (  -0.500000  -0.500000   0.500000 )  

     reciprocal axes: (cart. coord. in units 2 pi/alat)
               b(1) = (  1.000000  0.000000  1.000000 )  
               b(2) = ( -1.000000  1.000000  0.000000 )  
               b(3) = (  0.000000 -1.000000  1.000000 )  


     PseudoPot. # 1 for Na read from file:
     /home/s1333534/quantum_espresso/qe-6.1/pseudo/Na_pbe_v1.uspp.F.UPF
     MD5 check sum: 76a99c7e9422403d3e93cbc85ab7bccb
     Pseudo is Ultrasoft, Zval =  9.0
     Generated by new atomic code, or converted to UPF format
     Using radial grid of  819 points,  5 beta functions with: 
                l(1) =   0
                l(2) =   0
                l(3) =   1
                l(4) =   1
                l(5) =   2
     Q(r) pseudized with  8 coefficients,  rinner =    1.250   1.250   1.250
                                                       1.250   1.250

     atomic species   valence    mass     pseudopotential
        Na             9.00    22.99000     Na( 1.00)

     48 Sym. Ops., with inversion, found



   Cartesian axes

     site n.     atom                  positions (alat units)
         1           Na  tau(   1) = (   0.0000000   0.0000000   0.0000000  )

     number of k points=   500  Marzari-Vanderbilt smearing, width (Ry)=  0.0200

     Number of k-points >= 100: set verbosity='high' to print them.

     Dense  grid:    18053 G-vectors     FFT dimensions: (  36,  36,  36)

     Smooth grid:     6459 G-vectors     FFT dimensions: (  25,  25,  25)

     Estimated max dynamical RAM per process >       0.62MB

     Estimated total allocated dynamical RAM >      39.67MB

     The potential is recalculated from file :
     ./_ph0/na.bcc.save/charge-density.dat

     Starting wfc are    5 atomic +    4 random wfc

     Band Structure Calculation
     Davidson diagonalization with overlap

     ethr =  1.11E-10,  avg # of iterations = 19.2

     total cpu time spent up to now is     1223.8 secs

     End of band structure calculation

     Number of k-points >= 100: set verbosity='high' to print the bands.

     the Fermi energy is     3.0393 ev

     Writing output data file na.bcc.save

                                                                                

     bravais-lattice index     =            3
     lattice parameter (alat)  =       7.2000  a.u.
     unit-cell volume          =     186.6240 (a.u.)^3
     number of atoms/cell      =            1
     number of atomic types    =            1
     kinetic-energy cut-off    =      40.0000  Ry
     charge density cut-off    =     320.0000  Ry
     convergence threshold     =      1.0E-16
     beta                      =       0.7000
     number of iterations used =            4
     Exchange-correlation      = SLA  PW   PBE  PBE ( 1  4  3  4 0 0)


     celldm(1)=    7.20000  celldm(2)=    0.00000  celldm(3)=    0.00000
     celldm(4)=    0.00000  celldm(5)=    0.00000  celldm(6)=    0.00000

     crystal axes: (cart. coord. in units of alat)
               a(1) = (  0.5000  0.5000  0.5000 )  
               a(2) = ( -0.5000  0.5000  0.5000 )  
               a(3) = ( -0.5000 -0.5000  0.5000 )  

     reciprocal axes: (cart. coord. in units 2 pi/alat)
               b(1) = (  1.0000  0.0000  1.0000 )  
               b(2) = ( -1.0000  1.0000  0.0000 )  
               b(3) = (  0.0000 -1.0000  1.0000 )  


     Atoms inside the unit cell: 

     Cartesian axes

     site n.  atom      mass           positions (alat units)
        1     Na  22.9900   tau(    1) = (    0.00000    0.00000    0.00000  )

     Computing dynamical matrix for 
                    q = (   0.0000000   0.0000000  -1.0000000 )

     49 Sym.Ops. (with q -> -q+G )


     G cutoff =  420.1992  (   1128 G-vectors)     FFT grid: ( 36, 36, 36)
     G cutoff =  210.0996  (    405 G-vectors)  smooth grid: ( 25, 25, 25)

     number of k points=   500  Marzari-Vanderbilt smearing, width (Ry)=  0.0200

     PseudoPot. # 1 for Na read from file:
     /home/s1333534/quantum_espresso/qe-6.1/pseudo/Na_pbe_v1.uspp.F.UPF
     MD5 check sum: 76a99c7e9422403d3e93cbc85ab7bccb
     Pseudo is Ultrasoft, Zval =  9.0
     Generated by new atomic code, or converted to UPF format
     Using radial grid of  819 points,  5 beta functions with: 
                l(1) =   0
                l(2) =   0
                l(3) =   1
                l(4) =   1
                l(5) =   2
     Q(r) pseudized with  8 coefficients,  rinner =    1.250   1.250   1.250
                                                       1.250   1.250

     Mode symmetry, O_h (m-3m)  point group:


     Atomic displacements:
     There are   1 irreducible representations

     Representation     1      3 modes -T_1u G_15  G_4-  To be done



     Alpha used in Ewald sum =   2.8000
     PHONON       :     1h14m CPU        1h22m WALL



     Representation #  1 modes #   1  2  3

     Self-consistent Calculation

      iter #   1 total cpu time :  4931.0 secs   av.it.:   5.7
      thresh= 1.000E-02 alpha_mix =  0.700 |ddv_scf|^2 =  2.620E-06

      iter #   2 total cpu time :  4934.7 secs   av.it.:   8.5
      thresh= 1.619E-04 alpha_mix =  0.700 |ddv_scf|^2 =  3.254E-08

      iter #   3 total cpu time :  4938.4 secs   av.it.:   8.4
      thresh= 1.804E-05 alpha_mix =  0.700 |ddv_scf|^2 =  2.802E-09

      iter #   4 total cpu time :  4943.0 secs   av.it.:   8.5
      thresh= 5.294E-06 alpha_mix =  0.700 |ddv_scf|^2 =  1.184E-11

      iter #   5 total cpu time :  4946.6 secs   av.it.:   8.3
      thresh= 3.441E-07 alpha_mix =  0.700 |ddv_scf|^2 =  4.075E-15

      iter #   6 total cpu time :  4949.9 secs   av.it.:   7.3
      thresh= 6.384E-09 alpha_mix =  0.700 |ddv_scf|^2 =  2.816E-16

      iter #   7 total cpu time :  4953.4 secs   av.it.:   7.9
      thresh= 1.678E-09 alpha_mix =  0.700 |ddv_scf|^2 =  1.797E-19

     End of self-consistent calculation

     Convergence has been achieved 

     Number of q in the star =    1
     List of q in the star:
          1   0.000000000   0.000000000  -1.000000000

     Diagonalizing the dynamical matrix

     q = (    0.000000000   0.000000000  -1.000000000 ) 

 **************************************************************************
     freq (    1) =       5.019287 [THz] =     167.425380 [cm-1]
     freq (    2) =       5.019287 [THz] =     167.425380 [cm-1]
     freq (    3) =       5.019287 [THz] =     167.425380 [cm-1]
 **************************************************************************

     Mode symmetry, O_h (m-3m)  point group:

     freq (  1 -  3) =        167.4  [cm-1]   --> T_1u G_15  G_4-    

     init_run     :      2.01s CPU      2.13s WALL (      15 calls)
     electrons    :    932.04s CPU    994.52s WALL (      15 calls)

     Called by init_run:
     wfcinit      :      0.00s CPU      0.01s WALL (      15 calls)
     potinit      :      0.31s CPU      0.31s WALL (      15 calls)

     Called by electrons:
     c_bands      :    931.73s CPU    994.19s WALL (      15 calls)
     v_of_rho     :      0.13s CPU      0.13s WALL (      16 calls)
     newd         :      0.12s CPU      0.12s WALL (      16 calls)

     Called by c_bands:
     init_us_2    :     21.80s CPU     24.10s WALL (  337039 calls)
     cegterg      :    720.56s CPU    776.56s WALL (   23678 calls)

     Called by sum_band:

     Called by *egterg:
     h_psi        :   2406.69s CPU   2656.40s WALL ( 3092131 calls)
     s_psi        :     85.83s CPU     96.61s WALL ( 6040987 calls)
     g_psi        :      2.53s CPU      2.74s WALL (  363152 calls)
     cdiaghg      :    236.02s CPU    252.57s WALL (  382414 calls)

     Called by h_psi:
     h_psi:pot    :   2385.00s CPU   2631.93s WALL ( 3092131 calls)
     h_psi:calbec :    174.18s CPU    191.45s WALL ( 3092131 calls)
     vloc_psi     :   2131.01s CPU   2352.13s WALL ( 3092131 calls)
     add_vuspsi   :     46.70s CPU     52.37s WALL ( 3092131 calls)

     General routines
     calbec       :    323.65s CPU    357.23s WALL ( 6584741 calls)
     fft          :      3.28s CPU      3.74s WALL (    6361 calls)
     ffts         :      3.31s CPU      3.65s WALL (   30431 calls)
     fftw         :   2309.31s CPU   2566.72s WALL (29836160 calls)
     interpolate  :      0.54s CPU      0.79s WALL (     872 calls)
     davcio       :     31.34s CPU     58.13s WALL ( 1372216 calls)

     Parallel routines
     fft_scatter  :   1276.85s CPU   1417.69s WALL (29872952 calls)

     PHONON       :     1h14m CPU        1h22m WALL

     INITIALIZATION: 
     phq_setup    :      0.44s CPU      0.47s WALL (      16 calls)
     phq_init     :     50.69s CPU     54.36s WALL (      16 calls)

     phq_init     :     50.69s CPU     54.36s WALL (      16 calls)
     init_vloc    :      0.10s CPU      0.10s WALL (      16 calls)
     init_us_1    :      1.07s CPU      1.17s WALL (      16 calls)
     newd         :      0.12s CPU      0.12s WALL (      16 calls)
     dvanqq       :      0.56s CPU      0.56s WALL (      16 calls)
     drho         :     37.65s CPU     40.57s WALL (      16 calls)

     DYNAMICAL MATRIX:
     dynmat0      :      8.18s CPU      8.56s WALL (      16 calls)
     phqscf       :   3274.13s CPU   3669.69s WALL (      16 calls)
     dynmatrix    :      0.08s CPU      0.09s WALL (      16 calls)

     phqscf       :   3274.13s CPU   3669.69s WALL (      16 calls)
     solve_linter :   3261.94s CPU   3656.46s WALL (      40 calls)
     drhodv       :     12.00s CPU     12.83s WALL (      40 calls)

     dynmat0      :      8.18s CPU      8.56s WALL (      16 calls)
     dynmat_us    :      8.13s CPU      8.51s WALL (      16 calls)
     d2ionq       :      0.01s CPU      0.01s WALL (      16 calls)

     dynmat_us    :      8.13s CPU      8.51s WALL (      16 calls)
     addusdynmat  :      0.00s CPU      0.00s WALL (      16 calls)

     phqscf       :   3274.13s CPU   3669.69s WALL (      16 calls)
     solve_linter :   3261.94s CPU   3656.46s WALL (      40 calls)

     solve_linter :   3261.94s CPU   3656.46s WALL (      40 calls)
     dvqpsi_us    :     61.45s CPU     67.32s WALL (   29082 calls)
     ortho        :     47.91s CPU     52.28s WALL (  262817 calls)
     cgsolve      :   2566.60s CPU   2851.50s WALL (  262817 calls)
     incdrhoscf   :    236.06s CPU    278.84s WALL (  262817 calls)
     addusddens   :      3.75s CPU      3.84s WALL (     382 calls)
     vpsifft      :    189.31s CPU    210.86s WALL (  233735 calls)
     dv_of_drho   :      2.38s CPU      2.60s WALL (     396 calls)
     mix_pot      :      0.51s CPU      2.06s WALL (     342 calls)
     ef_shift     :      0.02s CPU      0.03s WALL (       7 calls)
     localdos     :      0.06s CPU      0.07s WALL (       1 calls)
     psymdvscf    :     20.65s CPU     21.15s WALL (     311 calls)
     newdq        :      3.75s CPU      3.78s WALL (     342 calls)
     adddvscf     :     13.47s CPU     14.83s WALL (  233735 calls)
     drhodvus     :      0.02s CPU      0.02s WALL (      40 calls)

     dvqpsi_us    :     61.45s CPU     67.32s WALL (   29082 calls)
     dvqpsi_us_on :     13.42s CPU     14.32s WALL (   29082 calls)

     cgsolve      :   2566.60s CPU   2851.50s WALL (  262817 calls)
     ch_psi       :   2390.23s CPU   2654.66s WALL ( 2686039 calls)

     ch_psi       :   2390.23s CPU   2654.66s WALL ( 2686039 calls)
     h_psi        :   2406.69s CPU   2656.40s WALL ( 3092131 calls)
     last         :    303.80s CPU    338.18s WALL ( 2686039 calls)

     h_psi        :   2406.69s CPU   2656.40s WALL ( 3092131 calls)
     add_vuspsi   :     46.70s CPU     52.37s WALL ( 3092131 calls)

     incdrhoscf   :    236.06s CPU    278.84s WALL (  262817 calls)
     addusdbec    :     23.15s CPU     25.42s WALL (  291899 calls)

     drhodvus     :      0.02s CPU      0.02s WALL (      40 calls)

      General routines
     calbec       :    323.65s CPU    357.23s WALL ( 6584741 calls)
     fft          :      3.28s CPU      3.74s WALL (    6361 calls)
     ffts         :      3.31s CPU      3.65s WALL (   30431 calls)
     fftw         :   2309.31s CPU   2566.72s WALL (29836160 calls)
     davcio       :     31.34s CPU     58.13s WALL ( 1372216 calls)
     write_rec    :      1.44s CPU      5.14s WALL (     382 calls)


     PHONON       :     1h14m CPU        1h22m WALL


   This run was terminated on:  14:16:36  12Feb2018            

=------------------------------------------------------------------------------=
   JOB DONE.
=------------------------------------------------------------------------------=
