
     Program PHONON v.6.1 (svn rev. 13369) starts on  2Feb2018 at  8:16:22 

     This program is part of the open-source Quantum ESPRESSO suite
     for quantum simulation of materials; please cite
         "P. Giannozzi et al., J. Phys.:Condens. Matter 21 395502 (2009);
          URL http://www.quantum-espresso.org", 
     in publications or presentations arising from this work. More details at
     http://www.quantum-espresso.org/quote

     Parallel version (MPI), running on    64 processors
     K-points division:     npool     =       4
     R & G space division:  proc/nbgrp/npool/nimage =      16

     Reading data from directory:
     ./na.bcc.save

   Info: using nr1, nr2, nr3 values from input

   Info: using nr1, nr2, nr3 values from input

     IMPORTANT: XC functional enforced from input :
     Exchange-correlation      = SLA  PW   PBE  PBE ( 1  4  3  4 0 0)
     Any further DFT definition will be discarded
     Please, verify this is what you really want


     Parallelization info
     --------------------
     sticks:   dense  smooth     PW     G-vecs:    dense   smooth      PW
     Min          62      30      9                 1240      437      76
     Max          63      31     10                 1242      441      79
     Sum        1001     487    159                19861     7011    1253



     Dynamical matrices for ( 6, 6, 6)  uniform grid of q-points
     (  16q-points):
       N         xq(1)         xq(2)         xq(3) 
       1   0.000000000   0.000000000   0.000000000
       2   0.000000000  -0.166666667   0.166666667
       3   0.000000000  -0.333333333   0.333333333
       4   0.000000000   0.500000000  -0.500000000
       5  -0.166666667  -0.166666667   0.333333333
       6  -0.166666667   0.666666667  -0.500000000
       7  -0.333333333   0.666666667  -0.333333333
       8   0.000000000   0.000000000   0.333333333
       9   0.000000000  -0.166666667   0.500000000
      10   0.000000000   0.666666667  -0.333333333
      11  -0.166666667   0.833333333  -0.333333333
      12   0.666666667  -0.666666667   0.333333333
      13   0.500000000  -0.500000000   0.333333333
      14   0.000000000   0.000000000   0.666666667
      15   0.000000000   0.833333333  -0.166666667
      16   0.000000000   0.000000000  -1.000000000

     Calculation of q =    0.0000000   0.0000000   0.0000000

                                                                                

     bravais-lattice index     =            3
     lattice parameter (alat)  =       7.4500  a.u.
     unit-cell volume          =     206.7468 (a.u.)^3
     number of atoms/cell      =            1
     number of atomic types    =            1
     kinetic-energy cut-off    =      40.0000  Ry
     charge density cut-off    =     320.0000  Ry
     convergence threshold     =      1.0E-16
     beta                      =       0.7000
     number of iterations used =            4
     Exchange-correlation      = SLA  PW   PBE  PBE ( 1  4  3  4 0 0)


     celldm(1)=    7.45000  celldm(2)=    0.00000  celldm(3)=    0.00000
     celldm(4)=    0.00000  celldm(5)=    0.00000  celldm(6)=    0.00000

     crystal axes: (cart. coord. in units of alat)
               a(1) = (  0.5000  0.5000  0.5000 )  
               a(2) = ( -0.5000  0.5000  0.5000 )  
               a(3) = ( -0.5000 -0.5000  0.5000 )  

     reciprocal axes: (cart. coord. in units 2 pi/alat)
               b(1) = (  1.0000  0.0000  1.0000 )  
               b(2) = ( -1.0000  1.0000  0.0000 )  
               b(3) = (  0.0000 -1.0000  1.0000 )  


     Atoms inside the unit cell: 

     Cartesian axes

     site n.  atom      mass           positions (alat units)
        1     Na  22.9900   tau(    1) = (    0.00000    0.00000    0.00000  )

     Computing dynamical matrix for 
                    q = (   0.0000000   0.0000000   0.0000000 )

     49 Sym.Ops. (with q -> -q+G )


     G cutoff =  449.8863  (   1242 G-vectors)     FFT grid: ( 40, 40, 40)
     G cutoff =  224.9432  (    439 G-vectors)  smooth grid: ( 25, 25, 25)

     number of k points=   250  Marzari-Vanderbilt smearing, width (Ry)=  0.0200

     PseudoPot. # 1 for Na read from file:
     /home/s1333534/quantum_espresso/qe-6.1/pseudo/Na_pbe_v1.uspp.F.UPF
     MD5 check sum: 76a99c7e9422403d3e93cbc85ab7bccb
     Pseudo is Ultrasoft, Zval =  9.0
     Generated by new atomic code, or converted to UPF format
     Using radial grid of  819 points,  5 beta functions with: 
                l(1) =   0
                l(2) =   0
                l(3) =   1
                l(4) =   1
                l(5) =   2
     Q(r) pseudized with  8 coefficients,  rinner =    1.250   1.250   1.250
                                                       1.250   1.250

     Mode symmetry, O_h (m-3m)  point group:


     Atomic displacements:
     There are   1 irreducible representations

     Representation     1      3 modes -T_1u G_15  G_4-  To be done



     Alpha used in Ewald sum =   2.8000
     PHONON       :     2.96s CPU         3.19s WALL



     Representation #  1 modes #   1  2  3

     Self-consistent Calculation

     Pert. #  1: Fermi energy shift (Ry) =    -3.4466E-26     3.1347E-38
     Pert. #  2: Fermi energy shift (Ry) =    -2.2403E-25     2.4294E-37
     Pert. #  3: Fermi energy shift (Ry) =    -3.2743E-25     1.3322E-37

      iter #   1 total cpu time :     6.7 secs   av.it.:   5.4
      thresh= 1.000E-02 alpha_mix =  0.700 |ddv_scf|^2 =  1.126E-06

     Pert. #  1: Fermi energy shift (Ry) =     5.6007E-26     9.7958E-40
     Pert. #  2: Fermi energy shift (Ry) =     1.5079E-26     5.3877E-39
     Pert. #  3: Fermi energy shift (Ry) =    -2.1541E-27    -8.3264E-39

      iter #   2 total cpu time :    10.4 secs   av.it.:   8.4
      thresh= 1.061E-04 alpha_mix =  0.700 |ddv_scf|^2 =  2.149E-08

     Pert. #  1: Fermi energy shift (Ry) =     3.4466E-26     7.3468E-40
     Pert. #  2: Fermi energy shift (Ry) =    -3.0158E-26     5.5101E-40
     Pert. #  3: Fermi energy shift (Ry) =    -4.3082E-26     2.4489E-40

      iter #   3 total cpu time :    14.3 secs   av.it.:   8.6
      thresh= 1.466E-05 alpha_mix =  0.700 |ddv_scf|^2 =  3.230E-10

     Pert. #  1: Fermi energy shift (Ry) =     7.7548E-26    -3.0612E-41
     Pert. #  2: Fermi energy shift (Ry) =     5.1699E-26     3.8265E-42
     Pert. #  3: Fermi energy shift (Ry) =    -1.5510E-25    -8.4183E-41

      iter #   4 total cpu time :    17.9 secs   av.it.:   8.1
      thresh= 1.797E-06 alpha_mix =  0.700 |ddv_scf|^2 =  1.271E-12

     Pert. #  1: Fermi energy shift (Ry) =    -1.7233E-26     1.9132E-42
     Pert. #  2: Fermi energy shift (Ry) =    -3.0158E-26    -4.0656E-42
     Pert. #  3: Fermi energy shift (Ry) =    -1.5940E-25    -1.9132E-42

      iter #   5 total cpu time :    21.6 secs   av.it.:   8.4
      thresh= 1.127E-07 alpha_mix =  0.700 |ddv_scf|^2 =  3.209E-15

     Pert. #  1: Fermi energy shift (Ry) =    -8.6165E-27    -1.4349E-41
     Pert. #  2: Fermi energy shift (Ry) =    -8.6165E-27     1.3871E-41
     Pert. #  3: Fermi energy shift (Ry) =    -3.4466E-26    -3.8265E-42

      iter #   6 total cpu time :    25.3 secs   av.it.:   8.2
      thresh= 5.665E-09 alpha_mix =  0.700 |ddv_scf|^2 =  6.266E-17

     End of self-consistent calculation

     Convergence has been achieved 

     Number of q in the star =    1
     List of q in the star:
          1   0.000000000   0.000000000   0.000000000

     Diagonalizing the dynamical matrix

     q = (    0.000000000   0.000000000   0.000000000 ) 

 **************************************************************************
     freq (    1) =      -0.298261 [THz] =      -9.948904 [cm-1]
     freq (    2) =      -0.298261 [THz] =      -9.948904 [cm-1]
     freq (    3) =      -0.298261 [THz] =      -9.948904 [cm-1]
 **************************************************************************

     Mode symmetry, O_h (m-3m)  point group:

     freq (  1 -  3) =         -9.9  [cm-1]   --> T_1u G_15  G_4- I  

     Calculation of q =    0.0000000  -0.1666667   0.1666667

   Info: using nr1, nr2, nr3 values from input

   Info: using nr1, nr2, nr3 values from input

     Parallelization info
     --------------------
     sticks:   dense  smooth     PW     G-vecs:    dense   smooth      PW
     Min          62      30     10                 1240      437      87
     Max          63      31     11                 1242      441      89
     Sum        1001     487    169                19861     7011    1409



     bravais-lattice index     =            3
     lattice parameter (alat)  =       7.4500  a.u.
     unit-cell volume          =     206.7468 (a.u.)^3
     number of atoms/cell      =            1
     number of atomic types    =            1
     number of electrons       =         9.00
     number of Kohn-Sham states=            9
     kinetic-energy cutoff     =      40.0000  Ry
     charge density cutoff     =     320.0000  Ry
     Exchange-correlation      = SLA  PW   PBE  PBE ( 1  4  3  4 0 0)

     celldm(1)=   7.450000  celldm(2)=   0.000000  celldm(3)=   0.000000
     celldm(4)=   0.000000  celldm(5)=   0.000000  celldm(6)=   0.000000

     crystal axes: (cart. coord. in units of alat)
               a(1) = (   0.500000   0.500000   0.500000 )  
               a(2) = (  -0.500000   0.500000   0.500000 )  
               a(3) = (  -0.500000  -0.500000   0.500000 )  

     reciprocal axes: (cart. coord. in units 2 pi/alat)
               b(1) = (  1.000000  0.000000  1.000000 )  
               b(2) = ( -1.000000  1.000000  0.000000 )  
               b(3) = (  0.000000 -1.000000  1.000000 )  


     PseudoPot. # 1 for Na read from file:
     /home/s1333534/quantum_espresso/qe-6.1/pseudo/Na_pbe_v1.uspp.F.UPF
     MD5 check sum: 76a99c7e9422403d3e93cbc85ab7bccb
     Pseudo is Ultrasoft, Zval =  9.0
     Generated by new atomic code, or converted to UPF format
     Using radial grid of  819 points,  5 beta functions with: 
                l(1) =   0
                l(2) =   0
                l(3) =   1
                l(4) =   1
                l(5) =   2
     Q(r) pseudized with  8 coefficients,  rinner =    1.250   1.250   1.250
                                                       1.250   1.250

     atomic species   valence    mass     pseudopotential
        Na             9.00    22.99000     Na( 1.00)

     48 Sym. Ops., with inversion, found



   Cartesian axes

     site n.     atom                  positions (alat units)
         1           Na  tau(   1) = (   0.0000000   0.0000000   0.0000000  )

     number of k points=  4400  Marzari-Vanderbilt smearing, width (Ry)=  0.0200

     Number of k-points >= 100: set verbosity='high' to print them.

     Dense  grid:    19861 G-vectors     FFT dimensions: (  40,  40,  40)

     Smooth grid:     7011 G-vectors     FFT dimensions: (  25,  25,  25)

     Estimated max dynamical RAM per process >       0.68MB

     Estimated total allocated dynamical RAM >      43.64MB

     The potential is recalculated from file :
     ./_ph0/na.bcc.save/charge-density.dat

     Starting wfc are    5 atomic +    4 random wfc

     Band Structure Calculation
     Davidson diagonalization with overlap

     ethr =  1.11E-10,  avg # of iterations = 19.6

     total cpu time spent up to now is       58.5 secs

     End of band structure calculation

     Number of k-points >= 100: set verbosity='high' to print the bands.

     the Fermi energy is     2.4860 ev

     Writing output data file na.bcc.save

                                                                                

     bravais-lattice index     =            3
     lattice parameter (alat)  =       7.4500  a.u.
     unit-cell volume          =     206.7468 (a.u.)^3
     number of atoms/cell      =            1
     number of atomic types    =            1
     kinetic-energy cut-off    =      40.0000  Ry
     charge density cut-off    =     320.0000  Ry
     convergence threshold     =      1.0E-16
     beta                      =       0.7000
     number of iterations used =            4
     Exchange-correlation      = SLA  PW   PBE  PBE ( 1  4  3  4 0 0)


     celldm(1)=    7.45000  celldm(2)=    0.00000  celldm(3)=    0.00000
     celldm(4)=    0.00000  celldm(5)=    0.00000  celldm(6)=    0.00000

     crystal axes: (cart. coord. in units of alat)
               a(1) = (  0.5000  0.5000  0.5000 )  
               a(2) = ( -0.5000  0.5000  0.5000 )  
               a(3) = ( -0.5000 -0.5000  0.5000 )  

     reciprocal axes: (cart. coord. in units 2 pi/alat)
               b(1) = (  1.0000  0.0000  1.0000 )  
               b(2) = ( -1.0000  1.0000  0.0000 )  
               b(3) = (  0.0000 -1.0000  1.0000 )  


     Atoms inside the unit cell: 

     Cartesian axes

     site n.  atom      mass           positions (alat units)
        1     Na  22.9900   tau(    1) = (    0.00000    0.00000    0.00000  )

     Computing dynamical matrix for 
                    q = (   0.0000000  -0.1666667   0.1666667 )

      4 Sym.Ops. (no q -> -q+G )


     G cutoff =  449.8863  (   1242 G-vectors)     FFT grid: ( 40, 40, 40)
     G cutoff =  224.9432  (    439 G-vectors)  smooth grid: ( 25, 25, 25)

     number of k points=  4400  Marzari-Vanderbilt smearing, width (Ry)=  0.0200

     PseudoPot. # 1 for Na read from file:
     /home/s1333534/quantum_espresso/qe-6.1/pseudo/Na_pbe_v1.uspp.F.UPF
     MD5 check sum: 76a99c7e9422403d3e93cbc85ab7bccb
     Pseudo is Ultrasoft, Zval =  9.0
     Generated by new atomic code, or converted to UPF format
     Using radial grid of  819 points,  5 beta functions with: 
                l(1) =   0
                l(2) =   0
                l(3) =   1
                l(4) =   1
                l(5) =   2
     Q(r) pseudized with  8 coefficients,  rinner =    1.250   1.250   1.250
                                                       1.250   1.250

     Mode symmetry, C_2v (mm2)  point group:


     Atomic displacements:
     There are   3 irreducible representations

     Representation     1      1 modes -A_1  D_1  S_1  To be done

     Representation     2      1 modes -B_1  D_3  S_3  To be done

     Representation     3      1 modes -B_2  D_4  S_4  To be done



     Alpha used in Ewald sum =   2.8000
     PHONON       :  1m33.91s CPU     1m39.83s WALL



     Representation #  1 mode #   1

     Self-consistent Calculation

      iter #   1 total cpu time :   106.8 secs   av.it.:   5.7
      thresh= 1.000E-02 alpha_mix =  0.700 |ddv_scf|^2 =  2.705E-02

      iter #   2 total cpu time :   113.8 secs   av.it.:   6.5
      thresh= 1.000E-02 alpha_mix =  0.700 |ddv_scf|^2 =  3.707E+00

      iter #   3 total cpu time :   121.0 secs   av.it.:   6.5
      thresh= 1.000E-02 alpha_mix =  0.700 |ddv_scf|^2 =  5.924E-07

      iter #   4 total cpu time :   128.8 secs   av.it.:   7.7
      thresh= 7.697E-05 alpha_mix =  0.700 |ddv_scf|^2 =  6.834E-08

      iter #   5 total cpu time :   136.2 secs   av.it.:   7.5
      thresh= 2.614E-05 alpha_mix =  0.700 |ddv_scf|^2 =  3.324E-09

      iter #   6 total cpu time :   143.7 secs   av.it.:   7.5
      thresh= 5.766E-06 alpha_mix =  0.700 |ddv_scf|^2 =  3.769E-08

      iter #   7 total cpu time :   148.9 secs   av.it.:   4.3
      thresh= 1.941E-05 alpha_mix =  0.700 |ddv_scf|^2 =  3.274E-10

      iter #   8 total cpu time :   156.3 secs   av.it.:   7.5
      thresh= 1.809E-06 alpha_mix =  0.700 |ddv_scf|^2 =  4.359E-11

      iter #   9 total cpu time :   163.4 secs   av.it.:   7.2
      thresh= 6.602E-07 alpha_mix =  0.700 |ddv_scf|^2 =  1.548E-12

      iter #  10 total cpu time :   170.6 secs   av.it.:   7.0
      thresh= 1.244E-07 alpha_mix =  0.700 |ddv_scf|^2 =  8.589E-14

      iter #  11 total cpu time :   177.9 secs   av.it.:   7.3
      thresh= 2.931E-08 alpha_mix =  0.700 |ddv_scf|^2 =  5.485E-16

      iter #  12 total cpu time :   186.7 secs   av.it.:   7.8
      thresh= 2.342E-09 alpha_mix =  0.700 |ddv_scf|^2 =  1.059E-15

      iter #  13 total cpu time :   193.3 secs   av.it.:   6.2
      thresh= 3.255E-09 alpha_mix =  0.700 |ddv_scf|^2 =  2.920E-15

      iter #  14 total cpu time :   200.0 secs   av.it.:   6.6
      thresh= 5.404E-09 alpha_mix =  0.700 |ddv_scf|^2 =  4.465E-18

     End of self-consistent calculation

     Convergence has been achieved 


     Representation #  2 mode #   2

     Self-consistent Calculation

      iter #   1 total cpu time :   207.0 secs   av.it.:   5.4
      thresh= 1.000E-02 alpha_mix =  0.700 |ddv_scf|^2 =  1.024E-05

      iter #   2 total cpu time :   214.7 secs   av.it.:   7.7
      thresh= 3.201E-04 alpha_mix =  0.700 |ddv_scf|^2 =  1.911E-07

      iter #   3 total cpu time :   222.6 secs   av.it.:   7.9
      thresh= 4.372E-05 alpha_mix =  0.700 |ddv_scf|^2 =  3.214E-09

      iter #   4 total cpu time :   230.3 secs   av.it.:   7.4
      thresh= 5.669E-06 alpha_mix =  0.700 |ddv_scf|^2 =  1.225E-11

      iter #   5 total cpu time :   238.1 secs   av.it.:   7.7
      thresh= 3.500E-07 alpha_mix =  0.700 |ddv_scf|^2 =  2.763E-14

      iter #   6 total cpu time :   245.8 secs   av.it.:   7.4
      thresh= 1.662E-08 alpha_mix =  0.700 |ddv_scf|^2 =  6.168E-16

      iter #   7 total cpu time :   253.7 secs   av.it.:   7.7
      thresh= 2.483E-09 alpha_mix =  0.700 |ddv_scf|^2 =  5.349E-19

     End of self-consistent calculation

     Convergence has been achieved 


     Representation #  3 mode #   3

     Self-consistent Calculation

      iter #   1 total cpu time :   260.6 secs   av.it.:   5.4
      thresh= 1.000E-02 alpha_mix =  0.700 |ddv_scf|^2 =  1.060E-05

      iter #   2 total cpu time :   268.4 secs   av.it.:   7.7
      thresh= 3.256E-04 alpha_mix =  0.700 |ddv_scf|^2 =  1.897E-07

      iter #   3 total cpu time :   276.3 secs   av.it.:   7.9
      thresh= 4.356E-05 alpha_mix =  0.700 |ddv_scf|^2 =  4.192E-09

      iter #   4 total cpu time :   283.9 secs   av.it.:   7.5
      thresh= 6.475E-06 alpha_mix =  0.700 |ddv_scf|^2 =  1.549E-11

      iter #   5 total cpu time :   292.4 secs   av.it.:   7.7
      thresh= 3.936E-07 alpha_mix =  0.700 |ddv_scf|^2 =  2.880E-14

      iter #   6 total cpu time :   300.0 secs   av.it.:   7.3
      thresh= 1.697E-08 alpha_mix =  0.700 |ddv_scf|^2 =  1.072E-15

      iter #   7 total cpu time :   308.0 secs   av.it.:   7.8
      thresh= 3.274E-09 alpha_mix =  0.700 |ddv_scf|^2 =  1.313E-18

     End of self-consistent calculation

     Convergence has been achieved 

     Number of q in the star =   12
     List of q in the star:
          1   0.000000000  -0.166666667   0.166666667
          2  -0.166666667   0.000000000   0.166666667
          3   0.166666667   0.000000000   0.166666667
          4   0.000000000   0.166666667   0.166666667
          5   0.166666667   0.166666667   0.000000000
          6  -0.166666667   0.166666667   0.000000000
          7   0.166666667  -0.166666667   0.000000000
          8  -0.166666667  -0.166666667   0.000000000
          9  -0.166666667   0.000000000  -0.166666667
         10   0.000000000  -0.166666667  -0.166666667
         11   0.000000000   0.166666667  -0.166666667
         12   0.166666667   0.000000000  -0.166666667

     Diagonalizing the dynamical matrix

     q = (    0.000000000  -0.166666667   0.166666667 ) 

 **************************************************************************
     freq (    1) =       0.628863 [THz] =      20.976624 [cm-1]
     freq (    2) =       1.526527 [THz] =      50.919458 [cm-1]
     freq (    3) =       2.537946 [THz] =      84.656763 [cm-1]
 **************************************************************************

     Mode symmetry, C_2v (mm2)  point group:

     freq (  1 -  1) =         21.0  [cm-1]   --> B_1  D_3  S_3      
     freq (  2 -  2) =         50.9  [cm-1]   --> B_2  D_4  S_4      
     freq (  3 -  3) =         84.7  [cm-1]   --> A_1  D_1  S_1      

     Calculation of q =    0.0000000  -0.3333333   0.3333333

   Info: using nr1, nr2, nr3 values from input

   Info: using nr1, nr2, nr3 values from input

     Parallelization info
     --------------------
     sticks:   dense  smooth     PW     G-vecs:    dense   smooth      PW
     Min          62      30     10                 1240      437      90
     Max          63      31     11                 1242      441      94
     Sum        1001     487    173                19861     7011    1481



     bravais-lattice index     =            3
     lattice parameter (alat)  =       7.4500  a.u.
     unit-cell volume          =     206.7468 (a.u.)^3
     number of atoms/cell      =            1
     number of atomic types    =            1
     number of electrons       =         9.00
     number of Kohn-Sham states=            9
     kinetic-energy cutoff     =      40.0000  Ry
     charge density cutoff     =     320.0000  Ry
     Exchange-correlation      = SLA  PW   PBE  PBE ( 1  4  3  4 0 0)

     celldm(1)=   7.450000  celldm(2)=   0.000000  celldm(3)=   0.000000
     celldm(4)=   0.000000  celldm(5)=   0.000000  celldm(6)=   0.000000

     crystal axes: (cart. coord. in units of alat)
               a(1) = (   0.500000   0.500000   0.500000 )  
               a(2) = (  -0.500000   0.500000   0.500000 )  
               a(3) = (  -0.500000  -0.500000   0.500000 )  

     reciprocal axes: (cart. coord. in units 2 pi/alat)
               b(1) = (  1.000000  0.000000  1.000000 )  
               b(2) = ( -1.000000  1.000000  0.000000 )  
               b(3) = (  0.000000 -1.000000  1.000000 )  


     PseudoPot. # 1 for Na read from file:
     /home/s1333534/quantum_espresso/qe-6.1/pseudo/Na_pbe_v1.uspp.F.UPF
     MD5 check sum: 76a99c7e9422403d3e93cbc85ab7bccb
     Pseudo is Ultrasoft, Zval =  9.0
     Generated by new atomic code, or converted to UPF format
     Using radial grid of  819 points,  5 beta functions with: 
                l(1) =   0
                l(2) =   0
                l(3) =   1
                l(4) =   1
                l(5) =   2
     Q(r) pseudized with  8 coefficients,  rinner =    1.250   1.250   1.250
                                                       1.250   1.250

     atomic species   valence    mass     pseudopotential
        Na             9.00    22.99000     Na( 1.00)

     48 Sym. Ops., with inversion, found



   Cartesian axes

     site n.     atom                  positions (alat units)
         1           Na  tau(   1) = (   0.0000000   0.0000000   0.0000000  )

     number of k points=  4400  Marzari-Vanderbilt smearing, width (Ry)=  0.0200

     Number of k-points >= 100: set verbosity='high' to print them.

     Dense  grid:    19861 G-vectors     FFT dimensions: (  40,  40,  40)

     Smooth grid:     7011 G-vectors     FFT dimensions: (  25,  25,  25)

     Estimated max dynamical RAM per process >       0.68MB

     Estimated total allocated dynamical RAM >      43.64MB

     The potential is recalculated from file :
     ./_ph0/na.bcc.save/charge-density.dat

     Starting wfc are    5 atomic +    4 random wfc

     Band Structure Calculation
     Davidson diagonalization with overlap

     ethr =  1.11E-10,  avg # of iterations = 19.6

     total cpu time spent up to now is      130.2 secs

     End of band structure calculation

     Number of k-points >= 100: set verbosity='high' to print the bands.

     the Fermi energy is     2.4860 ev

     Writing output data file na.bcc.save

                                                                                

     bravais-lattice index     =            3
     lattice parameter (alat)  =       7.4500  a.u.
     unit-cell volume          =     206.7468 (a.u.)^3
     number of atoms/cell      =            1
     number of atomic types    =            1
     kinetic-energy cut-off    =      40.0000  Ry
     charge density cut-off    =     320.0000  Ry
     convergence threshold     =      1.0E-16
     beta                      =       0.7000
     number of iterations used =            4
     Exchange-correlation      = SLA  PW   PBE  PBE ( 1  4  3  4 0 0)


     celldm(1)=    7.45000  celldm(2)=    0.00000  celldm(3)=    0.00000
     celldm(4)=    0.00000  celldm(5)=    0.00000  celldm(6)=    0.00000

     crystal axes: (cart. coord. in units of alat)
               a(1) = (  0.5000  0.5000  0.5000 )  
               a(2) = ( -0.5000  0.5000  0.5000 )  
               a(3) = ( -0.5000 -0.5000  0.5000 )  

     reciprocal axes: (cart. coord. in units 2 pi/alat)
               b(1) = (  1.0000  0.0000  1.0000 )  
               b(2) = ( -1.0000  1.0000  0.0000 )  
               b(3) = (  0.0000 -1.0000  1.0000 )  


     Atoms inside the unit cell: 

     Cartesian axes

     site n.  atom      mass           positions (alat units)
        1     Na  22.9900   tau(    1) = (    0.00000    0.00000    0.00000  )

     Computing dynamical matrix for 
                    q = (   0.0000000  -0.3333333   0.3333333 )

      4 Sym.Ops. (no q -> -q+G )


     G cutoff =  449.8863  (   1242 G-vectors)     FFT grid: ( 40, 40, 40)
     G cutoff =  224.9432  (    439 G-vectors)  smooth grid: ( 25, 25, 25)

     number of k points=  4400  Marzari-Vanderbilt smearing, width (Ry)=  0.0200

     PseudoPot. # 1 for Na read from file:
     /home/s1333534/quantum_espresso/qe-6.1/pseudo/Na_pbe_v1.uspp.F.UPF
     MD5 check sum: 76a99c7e9422403d3e93cbc85ab7bccb
     Pseudo is Ultrasoft, Zval =  9.0
     Generated by new atomic code, or converted to UPF format
     Using radial grid of  819 points,  5 beta functions with: 
                l(1) =   0
                l(2) =   0
                l(3) =   1
                l(4) =   1
                l(5) =   2
     Q(r) pseudized with  8 coefficients,  rinner =    1.250   1.250   1.250
                                                       1.250   1.250

     Mode symmetry, C_2v (mm2)  point group:


     Atomic displacements:
     There are   3 irreducible representations

     Representation     1      1 modes -A_1  D_1  S_1  To be done

     Representation     2      1 modes -B_1  D_3  S_3  To be done

     Representation     3      1 modes -B_2  D_4  S_4  To be done



     Alpha used in Ewald sum =   2.8000
     PHONON       :  5m49.97s CPU     6m23.40s WALL



     Representation #  1 mode #   1

     Self-consistent Calculation

      iter #   1 total cpu time :   390.4 secs   av.it.:   5.7
      thresh= 1.000E-02 alpha_mix =  0.700 |ddv_scf|^2 =  4.622E-04

      iter #   2 total cpu time :   397.6 secs   av.it.:   6.7
      thresh= 2.150E-03 alpha_mix =  0.700 |ddv_scf|^2 =  2.467E-03

      iter #   3 total cpu time :   404.3 secs   av.it.:   5.9
      thresh= 4.966E-03 alpha_mix =  0.700 |ddv_scf|^2 =  4.997E-07

      iter #   4 total cpu time :   412.3 secs   av.it.:   7.7
      thresh= 7.069E-05 alpha_mix =  0.700 |ddv_scf|^2 =  7.790E-09

      iter #   5 total cpu time :   420.6 secs   av.it.:   8.3
      thresh= 8.826E-06 alpha_mix =  0.700 |ddv_scf|^2 =  4.722E-10

      iter #   6 total cpu time :   428.9 secs   av.it.:   8.1
      thresh= 2.173E-06 alpha_mix =  0.700 |ddv_scf|^2 =  1.426E-11

      iter #   7 total cpu time :   436.7 secs   av.it.:   7.7
      thresh= 3.776E-07 alpha_mix =  0.700 |ddv_scf|^2 =  1.552E-14

      iter #   8 total cpu time :   444.4 secs   av.it.:   7.7
      thresh= 1.246E-08 alpha_mix =  0.700 |ddv_scf|^2 =  2.737E-15

      iter #   9 total cpu time :   452.1 secs   av.it.:   7.5
      thresh= 5.232E-09 alpha_mix =  0.700 |ddv_scf|^2 =  8.746E-15

      iter #  10 total cpu time :   459.2 secs   av.it.:   6.8
      thresh= 9.352E-09 alpha_mix =  0.700 |ddv_scf|^2 =  6.524E-17

     End of self-consistent calculation

     Convergence has been achieved 


     Representation #  2 mode #   2

     Self-consistent Calculation

      iter #   1 total cpu time :   466.3 secs   av.it.:   5.5
      thresh= 1.000E-02 alpha_mix =  0.700 |ddv_scf|^2 =  1.054E-05

      iter #   2 total cpu time :   474.2 secs   av.it.:   7.8
      thresh= 3.246E-04 alpha_mix =  0.700 |ddv_scf|^2 =  1.848E-07

      iter #   3 total cpu time :   482.2 secs   av.it.:   7.9
      thresh= 4.299E-05 alpha_mix =  0.700 |ddv_scf|^2 =  4.196E-09

      iter #   4 total cpu time :   490.0 secs   av.it.:   7.4
      thresh= 6.478E-06 alpha_mix =  0.700 |ddv_scf|^2 =  1.455E-11

      iter #   5 total cpu time :   498.1 secs   av.it.:   7.8
      thresh= 3.815E-07 alpha_mix =  0.700 |ddv_scf|^2 =  2.341E-14

      iter #   6 total cpu time :   505.7 secs   av.it.:   7.4
      thresh= 1.530E-08 alpha_mix =  0.700 |ddv_scf|^2 =  6.874E-16

      iter #   7 total cpu time :   513.6 secs   av.it.:   7.7
      thresh= 2.622E-09 alpha_mix =  0.700 |ddv_scf|^2 =  6.323E-19

     End of self-consistent calculation

     Convergence has been achieved 


     Representation #  3 mode #   3

     Self-consistent Calculation

      iter #   1 total cpu time :   520.7 secs   av.it.:   5.5
      thresh= 1.000E-02 alpha_mix =  0.700 |ddv_scf|^2 =  1.166E-05

      iter #   2 total cpu time :   528.7 secs   av.it.:   7.7
      thresh= 3.414E-04 alpha_mix =  0.700 |ddv_scf|^2 =  1.817E-07

      iter #   3 total cpu time :   536.7 secs   av.it.:   7.9
      thresh= 4.262E-05 alpha_mix =  0.700 |ddv_scf|^2 =  7.583E-09

      iter #   4 total cpu time :   544.3 secs   av.it.:   7.5
      thresh= 8.708E-06 alpha_mix =  0.700 |ddv_scf|^2 =  2.643E-11

      iter #   5 total cpu time :   552.6 secs   av.it.:   7.8
      thresh= 5.141E-07 alpha_mix =  0.700 |ddv_scf|^2 =  3.075E-14

      iter #   6 total cpu time :   559.6 secs   av.it.:   6.5
      thresh= 1.754E-08 alpha_mix =  0.700 |ddv_scf|^2 =  1.832E-15

      iter #   7 total cpu time :   567.4 secs   av.it.:   7.7
      thresh= 4.280E-09 alpha_mix =  0.700 |ddv_scf|^2 =  2.051E-18

     End of self-consistent calculation

     Convergence has been achieved 

     Number of q in the star =   12
     List of q in the star:
          1   0.000000000  -0.333333333   0.333333333
          2  -0.333333333   0.000000000   0.333333333
          3   0.333333333   0.000000000   0.333333333
          4   0.000000000   0.333333333   0.333333333
          5   0.333333333   0.333333333   0.000000000
          6  -0.333333333   0.333333333   0.000000000
          7   0.333333333  -0.333333333   0.000000000
          8  -0.333333333  -0.333333333   0.000000000
          9  -0.333333333   0.000000000  -0.333333333
         10   0.000000000  -0.333333333  -0.333333333
         11   0.000000000   0.333333333  -0.333333333
         12   0.333333333   0.000000000  -0.333333333

     Diagonalizing the dynamical matrix

     q = (    0.000000000  -0.333333333   0.333333333 ) 

 **************************************************************************
     freq (    1) =       1.010637 [THz] =      33.711225 [cm-1]
     freq (    2) =       2.624373 [THz] =      87.539644 [cm-1]
     freq (    3) =       4.417940 [THz] =     147.366620 [cm-1]
 **************************************************************************

     Mode symmetry, C_2v (mm2)  point group:

     freq (  1 -  1) =         33.7  [cm-1]   --> B_1  D_3  S_3      
     freq (  2 -  2) =         87.5  [cm-1]   --> B_2  D_4  S_4      
     freq (  3 -  3) =        147.4  [cm-1]   --> A_1  D_1  S_1      

     Calculation of q =    0.0000000   0.5000000  -0.5000000

   Info: using nr1, nr2, nr3 values from input

   Info: using nr1, nr2, nr3 values from input

     Parallelization info
     --------------------
     sticks:   dense  smooth     PW     G-vecs:    dense   smooth      PW
     Min          62      30     11                 1240      437      96
     Max          63      31     12                 1242      441      98
     Sum        1001     487    181                19861     7011    1553



     bravais-lattice index     =            3
     lattice parameter (alat)  =       7.4500  a.u.
     unit-cell volume          =     206.7468 (a.u.)^3
     number of atoms/cell      =            1
     number of atomic types    =            1
     number of electrons       =         9.00
     number of Kohn-Sham states=            9
     kinetic-energy cutoff     =      40.0000  Ry
     charge density cutoff     =     320.0000  Ry
     Exchange-correlation      = SLA  PW   PBE  PBE ( 1  4  3  4 0 0)

     celldm(1)=   7.450000  celldm(2)=   0.000000  celldm(3)=   0.000000
     celldm(4)=   0.000000  celldm(5)=   0.000000  celldm(6)=   0.000000

     crystal axes: (cart. coord. in units of alat)
               a(1) = (   0.500000   0.500000   0.500000 )  
               a(2) = (  -0.500000   0.500000   0.500000 )  
               a(3) = (  -0.500000  -0.500000   0.500000 )  

     reciprocal axes: (cart. coord. in units 2 pi/alat)
               b(1) = (  1.000000  0.000000  1.000000 )  
               b(2) = ( -1.000000  1.000000  0.000000 )  
               b(3) = (  0.000000 -1.000000  1.000000 )  


     PseudoPot. # 1 for Na read from file:
     /home/s1333534/quantum_espresso/qe-6.1/pseudo/Na_pbe_v1.uspp.F.UPF
     MD5 check sum: 76a99c7e9422403d3e93cbc85ab7bccb
     Pseudo is Ultrasoft, Zval =  9.0
     Generated by new atomic code, or converted to UPF format
     Using radial grid of  819 points,  5 beta functions with: 
                l(1) =   0
                l(2) =   0
                l(3) =   1
                l(4) =   1
                l(5) =   2
     Q(r) pseudized with  8 coefficients,  rinner =    1.250   1.250   1.250
                                                       1.250   1.250

     atomic species   valence    mass     pseudopotential
        Na             9.00    22.99000     Na( 1.00)

     48 Sym. Ops., with inversion, found



   Cartesian axes

     site n.     atom                  positions (alat units)
         1           Na  tau(   1) = (   0.0000000   0.0000000   0.0000000  )

     number of k points=  2310  Marzari-Vanderbilt smearing, width (Ry)=  0.0200

     Number of k-points >= 100: set verbosity='high' to print them.

     Dense  grid:    19861 G-vectors     FFT dimensions: (  40,  40,  40)

     Smooth grid:     7011 G-vectors     FFT dimensions: (  25,  25,  25)

     Estimated max dynamical RAM per process >       0.68MB

     Estimated total allocated dynamical RAM >      43.64MB

     The potential is recalculated from file :
     ./_ph0/na.bcc.save/charge-density.dat

     Starting wfc are    5 atomic +    4 random wfc

     Band Structure Calculation
     Davidson diagonalization with overlap

     ethr =  1.11E-10,  avg # of iterations = 19.6

     total cpu time spent up to now is      173.9 secs

     End of band structure calculation

     Number of k-points >= 100: set verbosity='high' to print the bands.

     the Fermi energy is     2.4860 ev

     Writing output data file na.bcc.save

                                                                                

     bravais-lattice index     =            3
     lattice parameter (alat)  =       7.4500  a.u.
     unit-cell volume          =     206.7468 (a.u.)^3
     number of atoms/cell      =            1
     number of atomic types    =            1
     kinetic-energy cut-off    =      40.0000  Ry
     charge density cut-off    =     320.0000  Ry
     convergence threshold     =      1.0E-16
     beta                      =       0.7000
     number of iterations used =            4
     Exchange-correlation      = SLA  PW   PBE  PBE ( 1  4  3  4 0 0)


     celldm(1)=    7.45000  celldm(2)=    0.00000  celldm(3)=    0.00000
     celldm(4)=    0.00000  celldm(5)=    0.00000  celldm(6)=    0.00000

     crystal axes: (cart. coord. in units of alat)
               a(1) = (  0.5000  0.5000  0.5000 )  
               a(2) = ( -0.5000  0.5000  0.5000 )  
               a(3) = ( -0.5000 -0.5000  0.5000 )  

     reciprocal axes: (cart. coord. in units 2 pi/alat)
               b(1) = (  1.0000  0.0000  1.0000 )  
               b(2) = ( -1.0000  1.0000  0.0000 )  
               b(3) = (  0.0000 -1.0000  1.0000 )  


     Atoms inside the unit cell: 

     Cartesian axes

     site n.  atom      mass           positions (alat units)
        1     Na  22.9900   tau(    1) = (    0.00000    0.00000    0.00000  )

     Computing dynamical matrix for 
                    q = (   0.0000000   0.5000000  -0.5000000 )

      9 Sym.Ops. (with q -> -q+G )


     G cutoff =  449.8863  (   1242 G-vectors)     FFT grid: ( 40, 40, 40)
     G cutoff =  224.9432  (    439 G-vectors)  smooth grid: ( 25, 25, 25)

     number of k points=  2310  Marzari-Vanderbilt smearing, width (Ry)=  0.0200

     PseudoPot. # 1 for Na read from file:
     /home/s1333534/quantum_espresso/qe-6.1/pseudo/Na_pbe_v1.uspp.F.UPF
     MD5 check sum: 76a99c7e9422403d3e93cbc85ab7bccb
     Pseudo is Ultrasoft, Zval =  9.0
     Generated by new atomic code, or converted to UPF format
     Using radial grid of  819 points,  5 beta functions with: 
                l(1) =   0
                l(2) =   0
                l(3) =   1
                l(4) =   1
                l(5) =   2
     Q(r) pseudized with  8 coefficients,  rinner =    1.250   1.250   1.250
                                                       1.250   1.250

     Mode symmetry, D_2h (mmm)  point group:


     Atomic displacements:
     There are   3 irreducible representations

     Representation     1      1 modes -B_1u  To be done

     Representation     2      1 modes -B_2u  To be done

     Representation     3      1 modes -B_3u  To be done



     Alpha used in Ewald sum =   2.8000
     PHONON       :  9m12.20s CPU    10m 7.26s WALL



     Representation #  1 mode #   1

     Self-consistent Calculation

      iter #   1 total cpu time :   611.0 secs   av.it.:   5.5
      thresh= 1.000E-02 alpha_mix =  0.700 |ddv_scf|^2 =  1.224E-05

      iter #   2 total cpu time :   615.2 secs   av.it.:   7.7
      thresh= 3.498E-04 alpha_mix =  0.700 |ddv_scf|^2 =  1.782E-07

      iter #   3 total cpu time :   619.4 secs   av.it.:   7.8
      thresh= 4.221E-05 alpha_mix =  0.700 |ddv_scf|^2 =  9.678E-09

      iter #   4 total cpu time :   623.4 secs   av.it.:   7.3
      thresh= 9.838E-06 alpha_mix =  0.700 |ddv_scf|^2 =  3.369E-11

      iter #   5 total cpu time :   627.6 secs   av.it.:   7.7
      thresh= 5.804E-07 alpha_mix =  0.700 |ddv_scf|^2 =  3.324E-14

      iter #   6 total cpu time :   631.4 secs   av.it.:   6.8
      thresh= 1.823E-08 alpha_mix =  0.700 |ddv_scf|^2 =  2.155E-15

      iter #   7 total cpu time :   635.5 secs   av.it.:   7.5
      thresh= 4.643E-09 alpha_mix =  0.700 |ddv_scf|^2 =  1.940E-18

     End of self-consistent calculation

     Convergence has been achieved 


     Representation #  2 mode #   2

     Self-consistent Calculation

      iter #   1 total cpu time :   639.2 secs   av.it.:   5.5
      thresh= 1.000E-02 alpha_mix =  0.700 |ddv_scf|^2 =  1.071E-05

      iter #   2 total cpu time :   643.5 secs   av.it.:   7.7
      thresh= 3.273E-04 alpha_mix =  0.700 |ddv_scf|^2 =  1.811E-07

      iter #   3 total cpu time :   647.7 secs   av.it.:   7.9
      thresh= 4.255E-05 alpha_mix =  0.700 |ddv_scf|^2 =  4.873E-09

      iter #   4 total cpu time :   651.8 secs   av.it.:   7.2
      thresh= 6.980E-06 alpha_mix =  0.700 |ddv_scf|^2 =  1.593E-11

      iter #   5 total cpu time :   655.9 secs   av.it.:   7.6
      thresh= 3.991E-07 alpha_mix =  0.700 |ddv_scf|^2 =  2.063E-14

      iter #   6 total cpu time :   660.0 secs   av.it.:   7.2
      thresh= 1.436E-08 alpha_mix =  0.700 |ddv_scf|^2 =  6.518E-16

      iter #   7 total cpu time :   664.1 secs   av.it.:   7.6
      thresh= 2.553E-09 alpha_mix =  0.700 |ddv_scf|^2 =  3.009E-19

     End of self-consistent calculation

     Convergence has been achieved 


     Representation #  3 mode #   3

     Self-consistent Calculation

      iter #   1 total cpu time :   668.3 secs   av.it.:   5.7
      thresh= 1.000E-02 alpha_mix =  0.700 |ddv_scf|^2 =  9.421E-05

      iter #   2 total cpu time :   672.3 secs   av.it.:   6.8
      thresh= 9.706E-04 alpha_mix =  0.700 |ddv_scf|^2 =  4.596E-05

      iter #   3 total cpu time :   676.1 secs   av.it.:   6.8
      thresh= 6.780E-04 alpha_mix =  0.700 |ddv_scf|^2 =  6.920E-08

      iter #   4 total cpu time :   680.2 secs   av.it.:   7.8
      thresh= 2.631E-05 alpha_mix =  0.700 |ddv_scf|^2 =  2.294E-10

      iter #   5 total cpu time :   684.0 secs   av.it.:   6.7
      thresh= 1.515E-06 alpha_mix =  0.700 |ddv_scf|^2 =  4.719E-12

      iter #   6 total cpu time :   687.7 secs   av.it.:   6.8
      thresh= 2.172E-07 alpha_mix =  0.700 |ddv_scf|^2 =  1.552E-14

      iter #   7 total cpu time :   691.7 secs   av.it.:   7.2
      thresh= 1.246E-08 alpha_mix =  0.700 |ddv_scf|^2 =  3.814E-17

     End of self-consistent calculation

     Convergence has been achieved 

     Number of q in the star =    6
     List of q in the star:
          1   0.000000000   0.500000000  -0.500000000
          2  -0.500000000  -0.500000000   0.000000000
          3   0.500000000  -0.500000000   0.000000000
          4   0.500000000   0.000000000   0.500000000
          5   0.000000000  -0.500000000  -0.500000000
          6   0.500000000   0.000000000  -0.500000000

     Diagonalizing the dynamical matrix

     q = (    0.000000000   0.500000000  -0.500000000 ) 

 **************************************************************************
     freq (    1) =       1.138905 [THz] =      37.989790 [cm-1]
     freq (    2) =       3.028397 [THz] =     101.016464 [cm-1]
     freq (    3) =       5.104431 [THz] =     170.265491 [cm-1]
 **************************************************************************

     Mode symmetry, D_2h (mmm)  point group:

     freq (  1 -  1) =         38.0  [cm-1]   --> B_2u               
     freq (  2 -  2) =        101.0  [cm-1]   --> B_1u               
     freq (  3 -  3) =        170.3  [cm-1]   --> B_3u               

     Calculation of q =   -0.1666667  -0.1666667   0.3333333

   Info: using nr1, nr2, nr3 values from input

   Info: using nr1, nr2, nr3 values from input

     Parallelization info
     --------------------
     sticks:   dense  smooth     PW     G-vecs:    dense   smooth      PW
     Min          62      30     10                 1240      437      90
     Max          63      31     11                 1242      441      94
     Sum        1001     487    173                19861     7011    1481



     bravais-lattice index     =            3
     lattice parameter (alat)  =       7.4500  a.u.
     unit-cell volume          =     206.7468 (a.u.)^3
     number of atoms/cell      =            1
     number of atomic types    =            1
     number of electrons       =         9.00
     number of Kohn-Sham states=            9
     kinetic-energy cutoff     =      40.0000  Ry
     charge density cutoff     =     320.0000  Ry
     Exchange-correlation      = SLA  PW   PBE  PBE ( 1  4  3  4 0 0)

     celldm(1)=   7.450000  celldm(2)=   0.000000  celldm(3)=   0.000000
     celldm(4)=   0.000000  celldm(5)=   0.000000  celldm(6)=   0.000000

     crystal axes: (cart. coord. in units of alat)
               a(1) = (   0.500000   0.500000   0.500000 )  
               a(2) = (  -0.500000   0.500000   0.500000 )  
               a(3) = (  -0.500000  -0.500000   0.500000 )  

     reciprocal axes: (cart. coord. in units 2 pi/alat)
               b(1) = (  1.000000  0.000000  1.000000 )  
               b(2) = ( -1.000000  1.000000  0.000000 )  
               b(3) = (  0.000000 -1.000000  1.000000 )  


     PseudoPot. # 1 for Na read from file:
     /home/s1333534/quantum_espresso/qe-6.1/pseudo/Na_pbe_v1.uspp.F.UPF
     MD5 check sum: 76a99c7e9422403d3e93cbc85ab7bccb
     Pseudo is Ultrasoft, Zval =  9.0
     Generated by new atomic code, or converted to UPF format
     Using radial grid of  819 points,  5 beta functions with: 
                l(1) =   0
                l(2) =   0
                l(3) =   1
                l(4) =   1
                l(5) =   2
     Q(r) pseudized with  8 coefficients,  rinner =    1.250   1.250   1.250
                                                       1.250   1.250

     atomic species   valence    mass     pseudopotential
        Na             9.00    22.99000     Na( 1.00)

     48 Sym. Ops., with inversion, found



   Cartesian axes

     site n.     atom                  positions (alat units)
         1           Na  tau(   1) = (   0.0000000   0.0000000   0.0000000  )

     number of k points=  8400  Marzari-Vanderbilt smearing, width (Ry)=  0.0200

     Number of k-points >= 100: set verbosity='high' to print them.

     Dense  grid:    19861 G-vectors     FFT dimensions: (  40,  40,  40)

     Smooth grid:     7011 G-vectors     FFT dimensions: (  25,  25,  25)

     Estimated max dynamical RAM per process >       0.68MB

     Estimated total allocated dynamical RAM >      43.64MB

     The potential is recalculated from file :
     ./_ph0/na.bcc.save/charge-density.dat

     Starting wfc are    5 atomic +    4 random wfc

     Band Structure Calculation
     Davidson diagonalization with overlap

     ethr =  1.11E-10,  avg # of iterations = 19.6

     total cpu time spent up to now is      293.2 secs

     End of band structure calculation

     Number of k-points >= 100: set verbosity='high' to print the bands.

     the Fermi energy is     2.4860 ev

     Writing output data file na.bcc.save

                                                                                

     bravais-lattice index     =            3
     lattice parameter (alat)  =       7.4500  a.u.
     unit-cell volume          =     206.7468 (a.u.)^3
     number of atoms/cell      =            1
     number of atomic types    =            1
     kinetic-energy cut-off    =      40.0000  Ry
     charge density cut-off    =     320.0000  Ry
     convergence threshold     =      1.0E-16
     beta                      =       0.7000
     number of iterations used =            4
     Exchange-correlation      = SLA  PW   PBE  PBE ( 1  4  3  4 0 0)


     celldm(1)=    7.45000  celldm(2)=    0.00000  celldm(3)=    0.00000
     celldm(4)=    0.00000  celldm(5)=    0.00000  celldm(6)=    0.00000

     crystal axes: (cart. coord. in units of alat)
               a(1) = (  0.5000  0.5000  0.5000 )  
               a(2) = ( -0.5000  0.5000  0.5000 )  
               a(3) = ( -0.5000 -0.5000  0.5000 )  

     reciprocal axes: (cart. coord. in units 2 pi/alat)
               b(1) = (  1.0000  0.0000  1.0000 )  
               b(2) = ( -1.0000  1.0000  0.0000 )  
               b(3) = (  0.0000 -1.0000  1.0000 )  


     Atoms inside the unit cell: 

     Cartesian axes

     site n.  atom      mass           positions (alat units)
        1     Na  22.9900   tau(    1) = (    0.00000    0.00000    0.00000  )

     Computing dynamical matrix for 
                    q = (  -0.1666667  -0.1666667   0.3333333 )

      2 Sym.Ops. (no q -> -q+G )


     G cutoff =  449.8863  (   1242 G-vectors)     FFT grid: ( 40, 40, 40)
     G cutoff =  224.9432  (    439 G-vectors)  smooth grid: ( 25, 25, 25)

     number of k points=  8400  Marzari-Vanderbilt smearing, width (Ry)=  0.0200

     PseudoPot. # 1 for Na read from file:
     /home/s1333534/quantum_espresso/qe-6.1/pseudo/Na_pbe_v1.uspp.F.UPF
     MD5 check sum: 76a99c7e9422403d3e93cbc85ab7bccb
     Pseudo is Ultrasoft, Zval =  9.0
     Generated by new atomic code, or converted to UPF format
     Using radial grid of  819 points,  5 beta functions with: 
                l(1) =   0
                l(2) =   0
                l(3) =   1
                l(4) =   1
                l(5) =   2
     Q(r) pseudized with  8 coefficients,  rinner =    1.250   1.250   1.250
                                                       1.250   1.250

     Mode symmetry, C_s (m)     point group:


     Atomic displacements:
     There are   3 irreducible representations

     Representation     1      1 modes -A'  To be done

     Representation     2      1 modes -A'  To be done

     Representation     3      1 modes -A''  To be done



     Alpha used in Ewald sum =   2.8000
     PHONON       : 12m42.95s CPU    13m54.76s WALL



     Representation #  1 mode #   1

     Self-consistent Calculation

      iter #   1 total cpu time :   848.9 secs   av.it.:   5.6
      thresh= 1.000E-02 alpha_mix =  0.700 |ddv_scf|^2 =  1.150E-04

      iter #   2 total cpu time :   863.4 secs   av.it.:   7.3
      thresh= 1.072E-03 alpha_mix =  0.700 |ddv_scf|^2 =  1.173E-03

      iter #   3 total cpu time :   875.2 secs   av.it.:   5.5
      thresh= 3.425E-03 alpha_mix =  0.700 |ddv_scf|^2 =  1.398E-07

      iter #   4 total cpu time :   891.1 secs   av.it.:   8.3
      thresh= 3.739E-05 alpha_mix =  0.700 |ddv_scf|^2 =  5.145E-09

      iter #   5 total cpu time :   906.1 secs   av.it.:   7.9
      thresh= 7.173E-06 alpha_mix =  0.700 |ddv_scf|^2 =  1.799E-10

      iter #   6 total cpu time :   921.5 secs   av.it.:   8.2
      thresh= 1.341E-06 alpha_mix =  0.700 |ddv_scf|^2 =  1.814E-11

      iter #   7 total cpu time :   936.6 secs   av.it.:   7.8
      thresh= 4.259E-07 alpha_mix =  0.700 |ddv_scf|^2 =  3.418E-11

      iter #   8 total cpu time :   951.0 secs   av.it.:   7.2
      thresh= 5.846E-07 alpha_mix =  0.700 |ddv_scf|^2 =  3.350E-11

      iter #   9 total cpu time :   964.2 secs   av.it.:   6.7
      thresh= 5.788E-07 alpha_mix =  0.700 |ddv_scf|^2 =  1.007E-12

      iter #  10 total cpu time :   978.4 secs   av.it.:   7.2
      thresh= 1.004E-07 alpha_mix =  0.700 |ddv_scf|^2 =  4.534E-15

      iter #  11 total cpu time :   993.9 secs   av.it.:   8.2
      thresh= 6.734E-09 alpha_mix =  0.700 |ddv_scf|^2 =  2.067E-16

      iter #  12 total cpu time :  1008.9 secs   av.it.:   7.7
      thresh= 1.438E-09 alpha_mix =  0.700 |ddv_scf|^2 =  1.369E-17

     End of self-consistent calculation

     Convergence has been achieved 


     Representation #  2 mode #   2

     Self-consistent Calculation

      iter #   1 total cpu time :  1022.7 secs   av.it.:   5.7
      thresh= 1.000E-02 alpha_mix =  0.700 |ddv_scf|^2 =  9.381E-04

      iter #   2 total cpu time :  1036.2 secs   av.it.:   6.6
      thresh= 3.063E-03 alpha_mix =  0.700 |ddv_scf|^2 =  1.041E-02

      iter #   3 total cpu time :  1047.9 secs   av.it.:   5.5
      thresh= 1.000E-02 alpha_mix =  0.700 |ddv_scf|^2 =  1.014E-06

      iter #   4 total cpu time :  1062.3 secs   av.it.:   7.7
      thresh= 1.007E-04 alpha_mix =  0.700 |ddv_scf|^2 =  5.749E-09

      iter #   5 total cpu time :  1078.0 secs   av.it.:   8.3
      thresh= 7.583E-06 alpha_mix =  0.700 |ddv_scf|^2 =  7.536E-10

      iter #   6 total cpu time :  1093.3 secs   av.it.:   8.1
      thresh= 2.745E-06 alpha_mix =  0.700 |ddv_scf|^2 =  1.486E-11

      iter #   7 total cpu time :  1108.8 secs   av.it.:   8.2
      thresh= 3.855E-07 alpha_mix =  0.700 |ddv_scf|^2 =  1.323E-11

      iter #   8 total cpu time :  1121.7 secs   av.it.:   6.5
      thresh= 3.638E-07 alpha_mix =  0.700 |ddv_scf|^2 =  4.860E-12

      iter #   9 total cpu time :  1135.8 secs   av.it.:   7.2
      thresh= 2.204E-07 alpha_mix =  0.700 |ddv_scf|^2 =  3.072E-13

      iter #  10 total cpu time :  1149.8 secs   av.it.:   7.0
      thresh= 5.542E-08 alpha_mix =  0.700 |ddv_scf|^2 =  9.713E-14

      iter #  11 total cpu time :  1163.9 secs   av.it.:   7.3
      thresh= 3.116E-08 alpha_mix =  0.700 |ddv_scf|^2 =  1.953E-16

      iter #  12 total cpu time :  1178.6 secs   av.it.:   7.8
      thresh= 1.398E-09 alpha_mix =  0.700 |ddv_scf|^2 =  1.171E-17

     End of self-consistent calculation

     Convergence has been achieved 


     Representation #  3 mode #   3

     Self-consistent Calculation

      iter #   1 total cpu time :  1192.0 secs   av.it.:   5.5
      thresh= 1.000E-02 alpha_mix =  0.700 |ddv_scf|^2 =  1.230E-05

      iter #   2 total cpu time :  1207.0 secs   av.it.:   7.8
      thresh= 3.507E-04 alpha_mix =  0.700 |ddv_scf|^2 =  1.735E-07

      iter #   3 total cpu time :  1222.2 secs   av.it.:   8.0
      thresh= 4.165E-05 alpha_mix =  0.700 |ddv_scf|^2 =  8.468E-09

      iter #   4 total cpu time :  1237.1 secs   av.it.:   7.7
      thresh= 9.202E-06 alpha_mix =  0.700 |ddv_scf|^2 =  6.871E-11

      iter #   5 total cpu time :  1251.8 secs   av.it.:   7.5
      thresh= 8.289E-07 alpha_mix =  0.700 |ddv_scf|^2 =  6.350E-14

      iter #   6 total cpu time :  1266.3 secs   av.it.:   7.5
      thresh= 2.520E-08 alpha_mix =  0.700 |ddv_scf|^2 =  3.008E-15

      iter #   7 total cpu time :  1280.7 secs   av.it.:   7.5
      thresh= 5.485E-09 alpha_mix =  0.700 |ddv_scf|^2 =  1.114E-17

     End of self-consistent calculation

     Convergence has been achieved 

     Number of q in the star =   24
     List of q in the star:
          1  -0.166666667  -0.166666667   0.333333333
          2  -0.166666667  -0.333333333   0.166666667
          3   0.166666667  -0.333333333   0.166666667
          4  -0.166666667   0.333333333  -0.166666667
          5   0.166666667   0.333333333  -0.166666667
          6   0.166666667   0.166666667  -0.333333333
          7  -0.166666667   0.166666667  -0.333333333
          8   0.333333333   0.166666667  -0.166666667
          9  -0.333333333   0.166666667   0.166666667
         10   0.333333333  -0.166666667   0.166666667
         11  -0.333333333  -0.166666667  -0.166666667
         12  -0.166666667  -0.166666667  -0.333333333
         13  -0.166666667   0.333333333   0.166666667
         14  -0.166666667  -0.333333333  -0.166666667
         15  -0.166666667   0.166666667   0.333333333
         16   0.166666667  -0.166666667   0.333333333
         17   0.166666667  -0.333333333  -0.166666667
         18  -0.333333333   0.166666667  -0.166666667
         19   0.333333333   0.166666667   0.166666667
         20  -0.333333333  -0.166666667   0.166666667
         21   0.333333333  -0.166666667  -0.166666667
         22   0.166666667  -0.166666667  -0.333333333
         23   0.166666667   0.166666667   0.333333333
         24   0.166666667   0.333333333   0.166666667

     Diagonalizing the dynamical matrix

     q = (   -0.166666667  -0.166666667   0.333333333 ) 

 **************************************************************************
     freq (    1) =       1.511897 [THz] =      50.431470 [cm-1]
     freq (    2) =       2.408768 [THz] =      80.347856 [cm-1]
     freq (    3) =       3.908500 [THz] =     130.373513 [cm-1]
 **************************************************************************

     Mode symmetry, C_s (m)     point group:

     freq (  1 -  1) =         50.4  [cm-1]   --> A'                 
     freq (  2 -  2) =         80.3  [cm-1]   --> A''                
     freq (  3 -  3) =        130.4  [cm-1]   --> A'                 

     Calculation of q =   -0.1666667   0.6666667  -0.5000000

   Info: using nr1, nr2, nr3 values from input

   Info: using nr1, nr2, nr3 values from input

     Parallelization info
     --------------------
     sticks:   dense  smooth     PW     G-vecs:    dense   smooth      PW
     Min          62      30     12                 1240      437     107
     Max          63      31     13                 1242      441     109
     Sum        1001     487    197                19861     7011    1721



     bravais-lattice index     =            3
     lattice parameter (alat)  =       7.4500  a.u.
     unit-cell volume          =     206.7468 (a.u.)^3
     number of atoms/cell      =            1
     number of atomic types    =            1
     number of electrons       =         9.00
     number of Kohn-Sham states=            9
     kinetic-energy cutoff     =      40.0000  Ry
     charge density cutoff     =     320.0000  Ry
     Exchange-correlation      = SLA  PW   PBE  PBE ( 1  4  3  4 0 0)

     celldm(1)=   7.450000  celldm(2)=   0.000000  celldm(3)=   0.000000
     celldm(4)=   0.000000  celldm(5)=   0.000000  celldm(6)=   0.000000

     crystal axes: (cart. coord. in units of alat)
               a(1) = (   0.500000   0.500000   0.500000 )  
               a(2) = (  -0.500000   0.500000   0.500000 )  
               a(3) = (  -0.500000  -0.500000   0.500000 )  

     reciprocal axes: (cart. coord. in units 2 pi/alat)
               b(1) = (  1.000000  0.000000  1.000000 )  
               b(2) = ( -1.000000  1.000000  0.000000 )  
               b(3) = (  0.000000 -1.000000  1.000000 )  


     PseudoPot. # 1 for Na read from file:
     /home/s1333534/quantum_espresso/qe-6.1/pseudo/Na_pbe_v1.uspp.F.UPF
     MD5 check sum: 76a99c7e9422403d3e93cbc85ab7bccb
     Pseudo is Ultrasoft, Zval =  9.0
     Generated by new atomic code, or converted to UPF format
     Using radial grid of  819 points,  5 beta functions with: 
                l(1) =   0
                l(2) =   0
                l(3) =   1
                l(4) =   1
                l(5) =   2
     Q(r) pseudized with  8 coefficients,  rinner =    1.250   1.250   1.250
                                                       1.250   1.250

     atomic species   valence    mass     pseudopotential
        Na             9.00    22.99000     Na( 1.00)

     48 Sym. Ops., with inversion, found



   Cartesian axes

     site n.     atom                  positions (alat units)
         1           Na  tau(   1) = (   0.0000000   0.0000000   0.0000000  )

     number of k points= 16000  Marzari-Vanderbilt smearing, width (Ry)=  0.0200

     Number of k-points >= 100: set verbosity='high' to print them.

     Dense  grid:    19861 G-vectors     FFT dimensions: (  40,  40,  40)

     Smooth grid:     7011 G-vectors     FFT dimensions: (  25,  25,  25)

     Estimated max dynamical RAM per process >       0.68MB

     Estimated total allocated dynamical RAM >      43.64MB

     The potential is recalculated from file :
     ./_ph0/na.bcc.save/charge-density.dat

     Starting wfc are    5 atomic +    4 random wfc

     Band Structure Calculation
     Davidson diagonalization with overlap

     ethr =  1.11E-10,  avg # of iterations = 19.5

     total cpu time spent up to now is      538.4 secs

     End of band structure calculation

     Number of k-points >= 100: set verbosity='high' to print the bands.

     the Fermi energy is     2.4860 ev

     Writing output data file na.bcc.save

                                                                                

     bravais-lattice index     =            3
     lattice parameter (alat)  =       7.4500  a.u.
     unit-cell volume          =     206.7468 (a.u.)^3
     number of atoms/cell      =            1
     number of atomic types    =            1
     kinetic-energy cut-off    =      40.0000  Ry
     charge density cut-off    =     320.0000  Ry
     convergence threshold     =      1.0E-16
     beta                      =       0.7000
     number of iterations used =            4
     Exchange-correlation      = SLA  PW   PBE  PBE ( 1  4  3  4 0 0)


     celldm(1)=    7.45000  celldm(2)=    0.00000  celldm(3)=    0.00000
     celldm(4)=    0.00000  celldm(5)=    0.00000  celldm(6)=    0.00000

     crystal axes: (cart. coord. in units of alat)
               a(1) = (  0.5000  0.5000  0.5000 )  
               a(2) = ( -0.5000  0.5000  0.5000 )  
               a(3) = ( -0.5000 -0.5000  0.5000 )  

     reciprocal axes: (cart. coord. in units 2 pi/alat)
               b(1) = (  1.0000  0.0000  1.0000 )  
               b(2) = ( -1.0000  1.0000  0.0000 )  
               b(3) = (  0.0000 -1.0000  1.0000 )  


     Atoms inside the unit cell: 

     Cartesian axes

     site n.  atom      mass           positions (alat units)
        1     Na  22.9900   tau(    1) = (    0.00000    0.00000    0.00000  )

     Computing dynamical matrix for 
                    q = (  -0.1666667   0.6666667  -0.5000000 )

     No symmetry!

     G cutoff =  449.8863  (   1242 G-vectors)     FFT grid: ( 40, 40, 40)
     G cutoff =  224.9432  (    439 G-vectors)  smooth grid: ( 25, 25, 25)

     number of k points= 16000  Marzari-Vanderbilt smearing, width (Ry)=  0.0200

     PseudoPot. # 1 for Na read from file:
     /home/s1333534/quantum_espresso/qe-6.1/pseudo/Na_pbe_v1.uspp.F.UPF
     MD5 check sum: 76a99c7e9422403d3e93cbc85ab7bccb
     Pseudo is Ultrasoft, Zval =  9.0
     Generated by new atomic code, or converted to UPF format
     Using radial grid of  819 points,  5 beta functions with: 
                l(1) =   0
                l(2) =   0
                l(3) =   1
                l(4) =   1
                l(5) =   2
     Q(r) pseudized with  8 coefficients,  rinner =    1.250   1.250   1.250
                                                       1.250   1.250

     Mode symmetry, C_1 (1)     point group:


     Atomic displacements:
     There are   3 irreducible representations

     Representation     1      1 modes -A  To be done

     Representation     2      1 modes -A  To be done

     Representation     3      1 modes -A  To be done



     Alpha used in Ewald sum =   2.8000
     PHONON       : 23m48.89s CPU    26m 2.88s WALL



     Representation #  1 mode #   1

     Self-consistent Calculation

      iter #   1 total cpu time :  1589.6 secs   av.it.:   5.7
      thresh= 1.000E-02 alpha_mix =  0.700 |ddv_scf|^2 =  1.349E-05

      iter #   2 total cpu time :  1620.7 secs   av.it.:   8.1
      thresh= 3.673E-04 alpha_mix =  0.700 |ddv_scf|^2 =  1.622E-06

      iter #   3 total cpu time :  1650.6 secs   av.it.:   7.6
      thresh= 1.273E-04 alpha_mix =  0.700 |ddv_scf|^2 =  7.061E-07

      iter #   4 total cpu time :  1679.5 secs   av.it.:   7.3
      thresh= 8.403E-05 alpha_mix =  0.700 |ddv_scf|^2 =  4.396E-09

      iter #   5 total cpu time :  1709.9 secs   av.it.:   7.9
      thresh= 6.630E-06 alpha_mix =  0.700 |ddv_scf|^2 =  3.570E-10

      iter #   6 total cpu time :  1740.2 secs   av.it.:   7.9
      thresh= 1.889E-06 alpha_mix =  0.700 |ddv_scf|^2 =  4.361E-12

      iter #   7 total cpu time :  1772.1 secs   av.it.:   8.4
      thresh= 2.088E-07 alpha_mix =  0.700 |ddv_scf|^2 =  2.675E-13

      iter #   8 total cpu time :  1803.3 secs   av.it.:   8.4
      thresh= 5.172E-08 alpha_mix =  0.700 |ddv_scf|^2 =  1.312E-14

      iter #   9 total cpu time :  1835.2 secs   av.it.:   8.4
      thresh= 1.146E-08 alpha_mix =  0.700 |ddv_scf|^2 =  2.802E-16

      iter #  10 total cpu time :  1864.9 secs   av.it.:   7.6
      thresh= 1.674E-09 alpha_mix =  0.700 |ddv_scf|^2 =  1.318E-16

      iter #  11 total cpu time :  1894.1 secs   av.it.:   7.3
      thresh= 1.148E-09 alpha_mix =  0.700 |ddv_scf|^2 =  2.081E-18

     End of self-consistent calculation

     Convergence has been achieved 


     Representation #  2 mode #   2

     Self-consistent Calculation

      iter #   1 total cpu time :  1922.1 secs   av.it.:   5.8
      thresh= 1.000E-02 alpha_mix =  0.700 |ddv_scf|^2 =  5.727E-05

      iter #   2 total cpu time :  1952.3 secs   av.it.:   7.6
      thresh= 7.568E-04 alpha_mix =  0.700 |ddv_scf|^2 =  4.815E-05

      iter #   3 total cpu time :  1979.8 secs   av.it.:   7.0
      thresh= 6.939E-04 alpha_mix =  0.700 |ddv_scf|^2 =  9.217E-08

      iter #   4 total cpu time :  2011.2 secs   av.it.:   8.3
      thresh= 3.036E-05 alpha_mix =  0.700 |ddv_scf|^2 =  3.779E-09

      iter #   5 total cpu time :  2042.3 secs   av.it.:   8.3
      thresh= 6.147E-06 alpha_mix =  0.700 |ddv_scf|^2 =  3.299E-10

      iter #   6 total cpu time :  2073.4 secs   av.it.:   8.2
      thresh= 1.816E-06 alpha_mix =  0.700 |ddv_scf|^2 =  9.246E-12

      iter #   7 total cpu time :  2103.1 secs   av.it.:   7.8
      thresh= 3.041E-07 alpha_mix =  0.700 |ddv_scf|^2 =  6.003E-13

      iter #   8 total cpu time :  2133.7 secs   av.it.:   7.9
      thresh= 7.748E-08 alpha_mix =  0.700 |ddv_scf|^2 =  2.182E-14

      iter #   9 total cpu time :  2164.1 secs   av.it.:   7.5
      thresh= 1.477E-08 alpha_mix =  0.700 |ddv_scf|^2 =  1.443E-15

      iter #  10 total cpu time :  2194.0 secs   av.it.:   7.5
      thresh= 3.799E-09 alpha_mix =  0.700 |ddv_scf|^2 =  3.249E-17

     End of self-consistent calculation

     Convergence has been achieved 


     Representation #  3 mode #   3

     Self-consistent Calculation

      iter #   1 total cpu time :  2221.6 secs   av.it.:   5.8
      thresh= 1.000E-02 alpha_mix =  0.700 |ddv_scf|^2 =  6.411E-05

      iter #   2 total cpu time :  2251.7 secs   av.it.:   7.5
      thresh= 8.007E-04 alpha_mix =  0.700 |ddv_scf|^2 =  4.848E-05

      iter #   3 total cpu time :  2279.1 secs   av.it.:   6.9
      thresh= 6.963E-04 alpha_mix =  0.700 |ddv_scf|^2 =  3.232E-07

      iter #   4 total cpu time :  2309.4 secs   av.it.:   7.8
      thresh= 5.685E-05 alpha_mix =  0.700 |ddv_scf|^2 =  7.710E-09

      iter #   5 total cpu time :  2340.9 secs   av.it.:   8.3
      thresh= 8.781E-06 alpha_mix =  0.700 |ddv_scf|^2 =  2.134E-10

      iter #   6 total cpu time :  2372.2 secs   av.it.:   8.3
      thresh= 1.461E-06 alpha_mix =  0.700 |ddv_scf|^2 =  1.676E-11

      iter #   7 total cpu time :  2403.3 secs   av.it.:   8.3
      thresh= 4.094E-07 alpha_mix =  0.700 |ddv_scf|^2 =  8.594E-13

      iter #   8 total cpu time :  2434.9 secs   av.it.:   8.4
      thresh= 9.271E-08 alpha_mix =  0.700 |ddv_scf|^2 =  5.374E-14

      iter #   9 total cpu time :  2464.2 secs   av.it.:   7.4
      thresh= 2.318E-08 alpha_mix =  0.700 |ddv_scf|^2 =  3.738E-15

      iter #  10 total cpu time :  2494.4 secs   av.it.:   7.7
      thresh= 6.114E-09 alpha_mix =  0.700 |ddv_scf|^2 =  5.675E-17

     End of self-consistent calculation

     Convergence has been achieved 

     Number of q in the star =   48
     List of q in the star:
          1  -0.166666667   0.666666667  -0.500000000
          2   0.666666667  -0.166666667  -0.500000000
          3  -0.166666667   0.500000000  -0.666666667
          4   0.166666667   0.500000000  -0.666666667
          5  -0.166666667  -0.500000000   0.666666667
          6   0.166666667  -0.500000000   0.666666667
          7   0.166666667  -0.666666667   0.500000000
          8  -0.166666667  -0.666666667   0.500000000
          9  -0.500000000  -0.666666667  -0.166666667
         10   0.500000000  -0.666666667   0.166666667
         11  -0.500000000   0.666666667   0.166666667
         12   0.500000000   0.666666667  -0.166666667
         13   0.666666667  -0.166666667   0.500000000
         14   0.666666667  -0.500000000  -0.166666667
         15  -0.166666667  -0.500000000  -0.666666667
         16  -0.166666667   0.500000000   0.666666667
         17   0.666666667   0.166666667  -0.500000000
         18   0.166666667   0.666666667  -0.500000000
         19   0.666666667   0.500000000   0.166666667
         20  -0.666666667   0.500000000  -0.166666667
         21   0.500000000   0.166666667   0.666666667
         22  -0.500000000   0.166666667  -0.666666667
         23   0.500000000   0.666666667   0.166666667
         24   0.500000000  -0.166666667  -0.666666667
         25  -0.666666667   0.166666667   0.500000000
         26  -0.166666667   0.666666667   0.500000000
         27  -0.500000000  -0.166666667   0.666666667
         28   0.166666667   0.666666667   0.500000000
         29  -0.500000000   0.666666667  -0.166666667
         30  -0.666666667  -0.166666667  -0.500000000
         31  -0.666666667  -0.166666667   0.500000000
         32   0.666666667   0.166666667   0.500000000
         33   0.166666667  -0.666666667  -0.500000000
         34  -0.666666667   0.166666667  -0.500000000
         35   0.500000000  -0.666666667  -0.166666667
         36  -0.500000000  -0.666666667   0.166666667
         37  -0.166666667  -0.666666667  -0.500000000
         38  -0.666666667  -0.500000000   0.166666667
         39   0.166666667   0.500000000   0.666666667
         40   0.166666667  -0.500000000  -0.666666667
         41  -0.666666667   0.500000000   0.166666667
         42   0.666666667   0.500000000  -0.166666667
         43  -0.666666667  -0.500000000  -0.166666667
         44   0.666666667  -0.500000000   0.166666667
         45   0.500000000   0.166666667  -0.666666667
         46   0.500000000  -0.166666667   0.666666667
         47  -0.500000000  -0.166666667  -0.666666667
         48  -0.500000000   0.166666667   0.666666667

     Diagonalizing the dynamical matrix

     q = (   -0.166666667   0.666666667  -0.500000000 ) 

 **************************************************************************
     freq (    1) =       1.824846 [THz] =      60.870308 [cm-1]
     freq (    2) =       3.349787 [THz] =     111.736861 [cm-1]
     freq (    3) =       4.818911 [THz] =     160.741582 [cm-1]
 **************************************************************************

     Mode symmetry, C_1 (1)     point group:

     freq (  1 -  1) =         60.9  [cm-1]   --> A                  
     freq (  2 -  2) =        111.7  [cm-1]   --> A                  
     freq (  3 -  3) =        160.7  [cm-1]   --> A                  

     Calculation of q =   -0.3333333   0.6666667  -0.3333333

   Info: using nr1, nr2, nr3 values from input

   Info: using nr1, nr2, nr3 values from input

     Parallelization info
     --------------------
     sticks:   dense  smooth     PW     G-vecs:    dense   smooth      PW
     Min          62      30     12                 1240      437     107
     Max          63      31     13                 1242      441     109
     Sum        1001     487    197                19861     7011    1721



     bravais-lattice index     =            3
     lattice parameter (alat)  =       7.4500  a.u.
     unit-cell volume          =     206.7468 (a.u.)^3
     number of atoms/cell      =            1
     number of atomic types    =            1
     number of electrons       =         9.00
     number of Kohn-Sham states=            9
     kinetic-energy cutoff     =      40.0000  Ry
     charge density cutoff     =     320.0000  Ry
     Exchange-correlation      = SLA  PW   PBE  PBE ( 1  4  3  4 0 0)

     celldm(1)=   7.450000  celldm(2)=   0.000000  celldm(3)=   0.000000
     celldm(4)=   0.000000  celldm(5)=   0.000000  celldm(6)=   0.000000

     crystal axes: (cart. coord. in units of alat)
               a(1) = (   0.500000   0.500000   0.500000 )  
               a(2) = (  -0.500000   0.500000   0.500000 )  
               a(3) = (  -0.500000  -0.500000   0.500000 )  

     reciprocal axes: (cart. coord. in units 2 pi/alat)
               b(1) = (  1.000000  0.000000  1.000000 )  
               b(2) = ( -1.000000  1.000000  0.000000 )  
               b(3) = (  0.000000 -1.000000  1.000000 )  


     PseudoPot. # 1 for Na read from file:
     /home/s1333534/quantum_espresso/qe-6.1/pseudo/Na_pbe_v1.uspp.F.UPF
     MD5 check sum: 76a99c7e9422403d3e93cbc85ab7bccb
     Pseudo is Ultrasoft, Zval =  9.0
     Generated by new atomic code, or converted to UPF format
     Using radial grid of  819 points,  5 beta functions with: 
                l(1) =   0
                l(2) =   0
                l(3) =   1
                l(4) =   1
                l(5) =   2
     Q(r) pseudized with  8 coefficients,  rinner =    1.250   1.250   1.250
                                                       1.250   1.250

     atomic species   valence    mass     pseudopotential
        Na             9.00    22.99000     Na( 1.00)

     48 Sym. Ops., with inversion, found



   Cartesian axes

     site n.     atom                  positions (alat units)
         1           Na  tau(   1) = (   0.0000000   0.0000000   0.0000000  )

     number of k points=  3080  Marzari-Vanderbilt smearing, width (Ry)=  0.0200

     Number of k-points >= 100: set verbosity='high' to print them.

     Dense  grid:    19861 G-vectors     FFT dimensions: (  40,  40,  40)

     Smooth grid:     7011 G-vectors     FFT dimensions: (  25,  25,  25)

     Estimated max dynamical RAM per process >       0.68MB

     Estimated total allocated dynamical RAM >      43.64MB

     The potential is recalculated from file :
     ./_ph0/na.bcc.save/charge-density.dat

     Starting wfc are    5 atomic +    4 random wfc

     Band Structure Calculation
     Davidson diagonalization with overlap

     ethr =  1.11E-10,  avg # of iterations = 19.7

     total cpu time spent up to now is      630.5 secs

     End of band structure calculation

     Number of k-points >= 100: set verbosity='high' to print the bands.

     the Fermi energy is     2.4860 ev

     Writing output data file na.bcc.save

                                                                                

     bravais-lattice index     =            3
     lattice parameter (alat)  =       7.4500  a.u.
     unit-cell volume          =     206.7468 (a.u.)^3
     number of atoms/cell      =            1
     number of atomic types    =            1
     kinetic-energy cut-off    =      40.0000  Ry
     charge density cut-off    =     320.0000  Ry
     convergence threshold     =      1.0E-16
     beta                      =       0.7000
     number of iterations used =            4
     Exchange-correlation      = SLA  PW   PBE  PBE ( 1  4  3  4 0 0)


     celldm(1)=    7.45000  celldm(2)=    0.00000  celldm(3)=    0.00000
     celldm(4)=    0.00000  celldm(5)=    0.00000  celldm(6)=    0.00000

     crystal axes: (cart. coord. in units of alat)
               a(1) = (  0.5000  0.5000  0.5000 )  
               a(2) = ( -0.5000  0.5000  0.5000 )  
               a(3) = ( -0.5000 -0.5000  0.5000 )  

     reciprocal axes: (cart. coord. in units 2 pi/alat)
               b(1) = (  1.0000  0.0000  1.0000 )  
               b(2) = ( -1.0000  1.0000  0.0000 )  
               b(3) = (  0.0000 -1.0000  1.0000 )  


     Atoms inside the unit cell: 

     Cartesian axes

     site n.  atom      mass           positions (alat units)
        1     Na  22.9900   tau(    1) = (    0.00000    0.00000    0.00000  )

     Computing dynamical matrix for 
                    q = (  -0.3333333   0.6666667  -0.3333333 )

      6 Sym.Ops. (no q -> -q+G )


     G cutoff =  449.8863  (   1242 G-vectors)     FFT grid: ( 40, 40, 40)
     G cutoff =  224.9432  (    439 G-vectors)  smooth grid: ( 25, 25, 25)

     number of k points=  3080  Marzari-Vanderbilt smearing, width (Ry)=  0.0200

     PseudoPot. # 1 for Na read from file:
     /home/s1333534/quantum_espresso/qe-6.1/pseudo/Na_pbe_v1.uspp.F.UPF
     MD5 check sum: 76a99c7e9422403d3e93cbc85ab7bccb
     Pseudo is Ultrasoft, Zval =  9.0
     Generated by new atomic code, or converted to UPF format
     Using radial grid of  819 points,  5 beta functions with: 
                l(1) =   0
                l(2) =   0
                l(3) =   1
                l(4) =   1
                l(5) =   2
     Q(r) pseudized with  8 coefficients,  rinner =    1.250   1.250   1.250
                                                       1.250   1.250

     Mode symmetry, C_3v (3m)   point group:


     Atomic displacements:
     There are   2 irreducible representations

     Representation     1      1 modes -A_1  L_1  To be done

     Representation     2      2 modes -E    L_3  To be done



     Alpha used in Ewald sum =   2.8000
     PHONON       : 38m34.34s CPU    42m29.98s WALL



     Representation #  1 mode #   1

     Self-consistent Calculation

      iter #   1 total cpu time :  2555.0 secs   av.it.:   5.4
      thresh= 1.000E-02 alpha_mix =  0.700 |ddv_scf|^2 =  1.148E-05

      iter #   2 total cpu time :  2560.7 secs   av.it.:   7.8
      thresh= 3.388E-04 alpha_mix =  0.700 |ddv_scf|^2 =  1.811E-07

      iter #   3 total cpu time :  2566.6 secs   av.it.:   8.0
      thresh= 4.255E-05 alpha_mix =  0.700 |ddv_scf|^2 =  7.333E-09

      iter #   4 total cpu time :  2572.4 secs   av.it.:   7.6
      thresh= 8.563E-06 alpha_mix =  0.700 |ddv_scf|^2 =  1.374E-10

      iter #   5 total cpu time :  2578.1 secs   av.it.:   7.5
      thresh= 1.172E-06 alpha_mix =  0.700 |ddv_scf|^2 =  3.755E-12

      iter #   6 total cpu time :  2584.2 secs   av.it.:   8.1
      thresh= 1.938E-07 alpha_mix =  0.700 |ddv_scf|^2 =  1.752E-13

      iter #   7 total cpu time :  2590.4 secs   av.it.:   8.2
      thresh= 4.186E-08 alpha_mix =  0.700 |ddv_scf|^2 =  5.712E-15

      iter #   8 total cpu time :  2596.3 secs   av.it.:   8.0
      thresh= 7.558E-09 alpha_mix =  0.700 |ddv_scf|^2 =  6.052E-17

     End of self-consistent calculation

     Convergence has been achieved 


     Representation #  2 modes #   2  3

     Self-consistent Calculation

      iter #   1 total cpu time :  2606.7 secs   av.it.:   5.7
      thresh= 1.000E-02 alpha_mix =  0.700 |ddv_scf|^2 =  9.053E-06

      iter #   2 total cpu time :  2618.9 secs   av.it.:   8.2
      thresh= 3.009E-04 alpha_mix =  0.700 |ddv_scf|^2 =  1.049E-06

      iter #   3 total cpu time :  2630.7 secs   av.it.:   7.7
      thresh= 1.024E-04 alpha_mix =  0.700 |ddv_scf|^2 =  8.571E-09

      iter #   4 total cpu time :  2643.1 secs   av.it.:   8.6
      thresh= 9.258E-06 alpha_mix =  0.700 |ddv_scf|^2 =  6.371E-11

      iter #   5 total cpu time :  2654.9 secs   av.it.:   7.9
      thresh= 7.982E-07 alpha_mix =  0.700 |ddv_scf|^2 =  7.575E-14

      iter #   6 total cpu time :  2666.6 secs   av.it.:   8.0
      thresh= 2.752E-08 alpha_mix =  0.700 |ddv_scf|^2 =  4.553E-15

      iter #   7 total cpu time :  2678.4 secs   av.it.:   8.2
      thresh= 6.748E-09 alpha_mix =  0.700 |ddv_scf|^2 =  1.299E-17

     End of self-consistent calculation

     Convergence has been achieved 

     Number of q in the star =    8
     List of q in the star:
          1  -0.333333333   0.666666667  -0.333333333
          2   0.333333333  -0.666666667   0.333333333
          3  -0.333333333  -0.666666667   0.333333333
          4  -0.333333333  -0.666666667  -0.333333333
          5  -0.333333333   0.666666667   0.333333333
          6   0.333333333   0.666666667  -0.333333333
          7  -0.666666667   0.333333333  -0.333333333
          8   0.333333333   0.666666667   0.333333333

     Diagonalizing the dynamical matrix

     q = (   -0.333333333   0.666666667  -0.333333333 ) 

 **************************************************************************
     freq (    1) =       2.147896 [THz] =      71.646084 [cm-1]
     freq (    2) =       4.390430 [THz] =     146.448993 [cm-1]
     freq (    3) =       4.390430 [THz] =     146.448993 [cm-1]
 **************************************************************************

     Mode symmetry, C_3v (3m)   point group:

     freq (  1 -  1) =         71.6  [cm-1]   --> A_1  L_1           
     freq (  2 -  3) =        146.4  [cm-1]   --> E    L_3           

     Calculation of q =    0.0000000   0.0000000   0.3333333

   Info: using nr1, nr2, nr3 values from input

   Info: using nr1, nr2, nr3 values from input

     Parallelization info
     --------------------
     sticks:   dense  smooth     PW     G-vecs:    dense   smooth      PW
     Min          62      30     10                 1240      437      88
     Max          63      31     11                 1242      441      91
     Sum        1001     487    173                19861     7011    1433



     bravais-lattice index     =            3
     lattice parameter (alat)  =       7.4500  a.u.
     unit-cell volume          =     206.7468 (a.u.)^3
     number of atoms/cell      =            1
     number of atomic types    =            1
     number of electrons       =         9.00
     number of Kohn-Sham states=            9
     kinetic-energy cutoff     =      40.0000  Ry
     charge density cutoff     =     320.0000  Ry
     Exchange-correlation      = SLA  PW   PBE  PBE ( 1  4  3  4 0 0)

     celldm(1)=   7.450000  celldm(2)=   0.000000  celldm(3)=   0.000000
     celldm(4)=   0.000000  celldm(5)=   0.000000  celldm(6)=   0.000000

     crystal axes: (cart. coord. in units of alat)
               a(1) = (   0.500000   0.500000   0.500000 )  
               a(2) = (  -0.500000   0.500000   0.500000 )  
               a(3) = (  -0.500000  -0.500000   0.500000 )  

     reciprocal axes: (cart. coord. in units 2 pi/alat)
[...]
     G cutoff =  224.9432  (    439 G-vectors)  smooth grid: ( 25, 25, 25)

     number of k points=  4400  Marzari-Vanderbilt smearing, width (Ry)=  0.0200

     PseudoPot. # 1 for Na read from file:
     /home/s1333534/quantum_espresso/qe-6.1/pseudo/Na_pbe_v1.uspp.F.UPF
     MD5 check sum: 76a99c7e9422403d3e93cbc85ab7bccb
     Pseudo is Ultrasoft, Zval =  9.0
     Generated by new atomic code, or converted to UPF format
     Using radial grid of  819 points,  5 beta functions with: 
                l(1) =   0
                l(2) =   0
                l(3) =   1
                l(4) =   1
                l(5) =   2
     Q(r) pseudized with  8 coefficients,  rinner =    1.250   1.250   1.250
                                                       1.250   1.250

     Mode symmetry, C_2v (mm2)  point group:


     Atomic displacements:
     There are   3 irreducible representations

     Representation     1      1 modes -A_1  D_1  S_1  To be done

     Representation     2      1 modes -B_1  D_3  S_3  To be done

     Representation     3      1 modes -B_2  D_4  S_4  To be done



     Alpha used in Ewald sum =   2.8000
     PHONON       :     1h14m CPU        1h21m WALL



     Representation #  1 mode #   1

     Self-consistent Calculation

      iter #   1 total cpu time :  4916.2 secs   av.it.:   5.6
      thresh= 1.000E-02 alpha_mix =  0.700 |ddv_scf|^2 =  2.034E-05

      iter #   2 total cpu time :  4924.7 secs   av.it.:   7.8
      thresh= 4.510E-04 alpha_mix =  0.700 |ddv_scf|^2 =  8.998E-07

      iter #   3 total cpu time :  4933.1 secs   av.it.:   7.7
      thresh= 9.486E-05 alpha_mix =  0.700 |ddv_scf|^2 =  2.103E-08

      iter #   4 total cpu time :  4941.9 secs   av.it.:   8.1
      thresh= 1.450E-05 alpha_mix =  0.700 |ddv_scf|^2 =  1.335E-09

      iter #   5 total cpu time :  4950.6 secs   av.it.:   8.1
      thresh= 3.654E-06 alpha_mix =  0.700 |ddv_scf|^2 =  1.136E-10

      iter #   6 total cpu time :  4959.0 secs   av.it.:   8.0
      thresh= 1.066E-06 alpha_mix =  0.700 |ddv_scf|^2 =  5.540E-13

      iter #   7 total cpu time :  4967.4 secs   av.it.:   7.9
      thresh= 7.443E-08 alpha_mix =  0.700 |ddv_scf|^2 =  4.281E-14

      iter #   8 total cpu time :  4975.8 secs   av.it.:   8.0
      thresh= 2.069E-08 alpha_mix =  0.700 |ddv_scf|^2 =  6.261E-17

     End of self-consistent calculation

     Convergence has been achieved 


     Representation #  2 mode #   2

     Self-consistent Calculation

      iter #   1 total cpu time :  4983.3 secs   av.it.:   5.5
      thresh= 1.000E-02 alpha_mix =  0.700 |ddv_scf|^2 =  1.749E-05

      iter #   2 total cpu time :  4991.7 secs   av.it.:   7.7
      thresh= 4.182E-04 alpha_mix =  0.700 |ddv_scf|^2 =  2.106E-07

      iter #   3 total cpu time :  4999.8 secs   av.it.:   7.6
      thresh= 4.590E-05 alpha_mix =  0.700 |ddv_scf|^2 =  2.010E-08

      iter #   4 total cpu time :  5008.1 secs   av.it.:   7.7
      thresh= 1.418E-05 alpha_mix =  0.700 |ddv_scf|^2 =  8.763E-11

      iter #   5 total cpu time :  5016.4 secs   av.it.:   7.6
      thresh= 9.361E-07 alpha_mix =  0.700 |ddv_scf|^2 =  4.175E-14

      iter #   6 total cpu time :  5025.0 secs   av.it.:   7.1
      thresh= 2.043E-08 alpha_mix =  0.700 |ddv_scf|^2 =  2.814E-15

      iter #   7 total cpu time :  5033.2 secs   av.it.:   7.4
      thresh= 5.305E-09 alpha_mix =  0.700 |ddv_scf|^2 =  4.969E-18

     End of self-consistent calculation

     Convergence has been achieved 


     Representation #  3 mode #   3

     Self-consistent Calculation

      iter #   1 total cpu time :  5041.1 secs   av.it.:   5.7
      thresh= 1.000E-02 alpha_mix =  0.700 |ddv_scf|^2 =  2.992E-05

      iter #   2 total cpu time :  5049.5 secs   av.it.:   7.6
      thresh= 5.470E-04 alpha_mix =  0.700 |ddv_scf|^2 =  2.116E-06

      iter #   3 total cpu time :  5057.6 secs   av.it.:   7.3
      thresh= 1.455E-04 alpha_mix =  0.700 |ddv_scf|^2 =  2.968E-08

      iter #   4 total cpu time :  5066.3 secs   av.it.:   7.9
      thresh= 1.723E-05 alpha_mix =  0.700 |ddv_scf|^2 =  8.808E-10

      iter #   5 total cpu time :  5074.2 secs   av.it.:   7.4
      thresh= 2.968E-06 alpha_mix =  0.700 |ddv_scf|^2 =  1.579E-12

      iter #   6 total cpu time :  5082.7 secs   av.it.:   7.9
      thresh= 1.256E-07 alpha_mix =  0.700 |ddv_scf|^2 =  1.045E-14

      iter #   7 total cpu time :  5091.1 secs   av.it.:   7.8
      thresh= 1.022E-08 alpha_mix =  0.700 |ddv_scf|^2 =  1.844E-16

      iter #   8 total cpu time :  5099.3 secs   av.it.:   7.5
      thresh= 1.358E-09 alpha_mix =  0.700 |ddv_scf|^2 =  2.553E-19

     End of self-consistent calculation

     Convergence has been achieved 

     Number of q in the star =   12
     List of q in the star:
          1   0.000000000   0.833333333  -0.166666667
          2   0.000000000  -0.833333333  -0.166666667
          3   0.833333333   0.000000000  -0.166666667
          4  -0.833333333   0.000000000  -0.166666667
          5  -0.166666667  -0.833333333   0.000000000
          6   0.166666667  -0.833333333   0.000000000
          7  -0.166666667   0.833333333   0.000000000
          8   0.166666667   0.833333333   0.000000000
          9   0.833333333   0.000000000   0.166666667
         10   0.000000000   0.166666667  -0.833333333
         11   0.000000000  -0.166666667  -0.833333333
         12   0.166666667   0.000000000  -0.833333333

     Diagonalizing the dynamical matrix

     q = (    0.000000000   0.833333333  -0.166666667 ) 

 **************************************************************************
     freq (    1) =       3.914103 [THz] =     130.560431 [cm-1]
     freq (    2) =       4.247617 [THz] =     141.685265 [cm-1]
     freq (    3) =       4.695573 [THz] =     156.627444 [cm-1]
 **************************************************************************

     Mode symmetry, C_2v (mm2)  point group:

     freq (  1 -  1) =        130.6  [cm-1]   --> A_1  D_1  S_1      
     freq (  2 -  2) =        141.7  [cm-1]   --> B_1  D_3  S_3      
     freq (  3 -  3) =        156.6  [cm-1]   --> B_2  D_4  S_4      

     Calculation of q =    0.0000000   0.0000000  -1.0000000

   Info: using nr1, nr2, nr3 values from input

   Info: using nr1, nr2, nr3 values from input

     Parallelization info
     --------------------
     sticks:   dense  smooth     PW     G-vecs:    dense   smooth      PW
     Min          62      30     11                 1240      437      96
     Max          63      31     12                 1242      441      98
     Sum        1001     487    181                19861     7011    1553



     bravais-lattice index     =            3
     lattice parameter (alat)  =       7.4500  a.u.
     unit-cell volume          =     206.7468 (a.u.)^3
     number of atoms/cell      =            1
     number of atomic types    =            1
     number of electrons       =         9.00
     number of Kohn-Sham states=            9
     kinetic-energy cutoff     =      40.0000  Ry
     charge density cutoff     =     320.0000  Ry
     Exchange-correlation      = SLA  PW   PBE  PBE ( 1  4  3  4 0 0)

     celldm(1)=   7.450000  celldm(2)=   0.000000  celldm(3)=   0.000000
     celldm(4)=   0.000000  celldm(5)=   0.000000  celldm(6)=   0.000000

     crystal axes: (cart. coord. in units of alat)
               a(1) = (   0.500000   0.500000   0.500000 )  
               a(2) = (  -0.500000   0.500000   0.500000 )  
               a(3) = (  -0.500000  -0.500000   0.500000 )  

     reciprocal axes: (cart. coord. in units 2 pi/alat)
               b(1) = (  1.000000  0.000000  1.000000 )  
               b(2) = ( -1.000000  1.000000  0.000000 )  
               b(3) = (  0.000000 -1.000000  1.000000 )  


     PseudoPot. # 1 for Na read from file:
     /home/s1333534/quantum_espresso/qe-6.1/pseudo/Na_pbe_v1.uspp.F.UPF
     MD5 check sum: 76a99c7e9422403d3e93cbc85ab7bccb
     Pseudo is Ultrasoft, Zval =  9.0
     Generated by new atomic code, or converted to UPF format
     Using radial grid of  819 points,  5 beta functions with: 
                l(1) =   0
                l(2) =   0
                l(3) =   1
                l(4) =   1
                l(5) =   2
     Q(r) pseudized with  8 coefficients,  rinner =    1.250   1.250   1.250
                                                       1.250   1.250

     atomic species   valence    mass     pseudopotential
        Na             9.00    22.99000     Na( 1.00)

     48 Sym. Ops., with inversion, found



   Cartesian axes

     site n.     atom                  positions (alat units)
         1           Na  tau(   1) = (   0.0000000   0.0000000   0.0000000  )

     number of k points=   500  Marzari-Vanderbilt smearing, width (Ry)=  0.0200

     Number of k-points >= 100: set verbosity='high' to print them.

     Dense  grid:    19861 G-vectors     FFT dimensions: (  40,  40,  40)

     Smooth grid:     7011 G-vectors     FFT dimensions: (  25,  25,  25)

     Estimated max dynamical RAM per process >       0.68MB

     Estimated total allocated dynamical RAM >      43.64MB

     The potential is recalculated from file :
     ./_ph0/na.bcc.save/charge-density.dat

     Starting wfc are    5 atomic +    4 random wfc

     Band Structure Calculation
     Davidson diagonalization with overlap

     ethr =  1.11E-10,  avg # of iterations = 20.0

     total cpu time spent up to now is     1272.2 secs

     End of band structure calculation

     Number of k-points >= 100: set verbosity='high' to print the bands.

     the Fermi energy is     2.4860 ev

     Writing output data file na.bcc.save

                                                                                

     bravais-lattice index     =            3
     lattice parameter (alat)  =       7.4500  a.u.
     unit-cell volume          =     206.7468 (a.u.)^3
     number of atoms/cell      =            1
     number of atomic types    =            1
     kinetic-energy cut-off    =      40.0000  Ry
     charge density cut-off    =     320.0000  Ry
     convergence threshold     =      1.0E-16
     beta                      =       0.7000
     number of iterations used =            4
     Exchange-correlation      = SLA  PW   PBE  PBE ( 1  4  3  4 0 0)


     celldm(1)=    7.45000  celldm(2)=    0.00000  celldm(3)=    0.00000
     celldm(4)=    0.00000  celldm(5)=    0.00000  celldm(6)=    0.00000

     crystal axes: (cart. coord. in units of alat)
               a(1) = (  0.5000  0.5000  0.5000 )  
               a(2) = ( -0.5000  0.5000  0.5000 )  
               a(3) = ( -0.5000 -0.5000  0.5000 )  

     reciprocal axes: (cart. coord. in units 2 pi/alat)
               b(1) = (  1.0000  0.0000  1.0000 )  
               b(2) = ( -1.0000  1.0000  0.0000 )  
               b(3) = (  0.0000 -1.0000  1.0000 )  


     Atoms inside the unit cell: 

     Cartesian axes

     site n.  atom      mass           positions (alat units)
        1     Na  22.9900   tau(    1) = (    0.00000    0.00000    0.00000  )

     Computing dynamical matrix for 
                    q = (   0.0000000   0.0000000  -1.0000000 )

     49 Sym.Ops. (with q -> -q+G )


     G cutoff =  449.8863  (   1242 G-vectors)     FFT grid: ( 40, 40, 40)
     G cutoff =  224.9432  (    439 G-vectors)  smooth grid: ( 25, 25, 25)

     number of k points=   500  Marzari-Vanderbilt smearing, width (Ry)=  0.0200

     PseudoPot. # 1 for Na read from file:
     /home/s1333534/quantum_espresso/qe-6.1/pseudo/Na_pbe_v1.uspp.F.UPF
     MD5 check sum: 76a99c7e9422403d3e93cbc85ab7bccb
     Pseudo is Ultrasoft, Zval =  9.0
     Generated by new atomic code, or converted to UPF format
     Using radial grid of  819 points,  5 beta functions with: 
                l(1) =   0
                l(2) =   0
                l(3) =   1
                l(4) =   1
                l(5) =   2
     Q(r) pseudized with  8 coefficients,  rinner =    1.250   1.250   1.250
                                                       1.250   1.250

     Mode symmetry, O_h (m-3m)  point group:


     Atomic displacements:
     There are   1 irreducible representations

     Representation     1      3 modes -T_1u G_15  G_4-  To be done



     Alpha used in Ewald sum =   2.8000
     PHONON       :     1h17m CPU        1h25m WALL



     Representation #  1 modes #   1  2  3

     Self-consistent Calculation

      iter #   1 total cpu time :  5112.6 secs   av.it.:   5.7
      thresh= 1.000E-02 alpha_mix =  0.700 |ddv_scf|^2 =  2.173E-06

      iter #   2 total cpu time :  5116.6 secs   av.it.:   8.5
      thresh= 1.474E-04 alpha_mix =  0.700 |ddv_scf|^2 =  3.016E-08

      iter #   3 total cpu time :  5120.5 secs   av.it.:   8.3
      thresh= 1.737E-05 alpha_mix =  0.700 |ddv_scf|^2 =  2.585E-09

      iter #   4 total cpu time :  5124.4 secs   av.it.:   8.5
      thresh= 5.084E-06 alpha_mix =  0.700 |ddv_scf|^2 =  1.047E-11

      iter #   5 total cpu time :  5128.3 secs   av.it.:   8.3
      thresh= 3.236E-07 alpha_mix =  0.700 |ddv_scf|^2 =  3.723E-15

      iter #   6 total cpu time :  5132.1 secs   av.it.:   7.4
      thresh= 6.102E-09 alpha_mix =  0.700 |ddv_scf|^2 =  2.644E-16

      iter #   7 total cpu time :  5135.9 secs   av.it.:   8.0
      thresh= 1.626E-09 alpha_mix =  0.700 |ddv_scf|^2 =  2.494E-19

     End of self-consistent calculation

     Convergence has been achieved 

     Number of q in the star =    1
     List of q in the star:
          1   0.000000000   0.000000000  -1.000000000

     Diagonalizing the dynamical matrix

     q = (    0.000000000   0.000000000  -1.000000000 ) 

 **************************************************************************
     freq (    1) =       4.569587 [THz] =     152.425019 [cm-1]
     freq (    2) =       4.569587 [THz] =     152.425019 [cm-1]
     freq (    3) =       4.569587 [THz] =     152.425019 [cm-1]
 **************************************************************************

     Mode symmetry, O_h (m-3m)  point group:

     freq (  1 -  3) =        152.4  [cm-1]   --> T_1u G_15  G_4-    

     init_run     :      2.19s CPU      2.34s WALL (      15 calls)
     electrons    :    978.12s CPU   1042.10s WALL (      15 calls)

     Called by init_run:
     wfcinit      :      0.00s CPU      0.00s WALL (      15 calls)
     potinit      :      0.38s CPU      0.39s WALL (      15 calls)

     Called by electrons:
     c_bands      :    977.81s CPU   1041.78s WALL (      15 calls)
     v_of_rho     :      0.16s CPU      0.16s WALL (      16 calls)
     newd         :      0.13s CPU      0.14s WALL (      16 calls)

     Called by c_bands:
     init_us_2    :     22.87s CPU     25.21s WALL (  335939 calls)
     cegterg      :    753.38s CPU    812.50s WALL (   24544 calls)

     Called by sum_band:

     Called by *egterg:
     h_psi        :   2503.73s CPU   2768.30s WALL ( 3097962 calls)
     s_psi        :     89.09s CPU    100.07s WALL ( 6037090 calls)
     g_psi        :      2.71s CPU      2.94s WALL (  376745 calls)
     cdiaghg      :    243.81s CPU    260.83s WALL (  396007 calls)

     Called by h_psi:
     h_psi:pot    :   2480.76s CPU   2742.31s WALL ( 3097962 calls)
     h_psi:calbec :    187.46s CPU    206.08s WALL ( 3097962 calls)
     vloc_psi     :   2210.52s CPU   2444.42s WALL ( 3097962 calls)
     add_vuspsi   :     47.94s CPU     53.65s WALL ( 3097962 calls)

     General routines
     calbec       :    342.82s CPU    377.93s WALL ( 6579744 calls)
     fft          :      4.50s CPU      4.61s WALL (    6331 calls)
     ffts         :      3.27s CPU      3.60s WALL (   30427 calls)
     fftw         :   2375.28s CPU   2639.96s WALL (29890174 calls)
     interpolate  :      0.66s CPU      0.73s WALL (     868 calls)
     davcio       :     31.44s CPU     48.57s WALL ( 1366690 calls)

     Parallel routines
     fft_scatter  :   1342.40s CPU   1490.40s WALL (29926932 calls)

     PHONON       :     1h17m CPU        1h25m WALL

     INITIALIZATION: 
     phq_setup    :      0.64s CPU      0.66s WALL (      16 calls)
     phq_init     :     53.60s CPU     57.15s WALL (      16 calls)

     phq_init     :     53.60s CPU     57.15s WALL (      16 calls)
     init_vloc    :      0.11s CPU      0.11s WALL (      16 calls)
     init_us_1    :      1.12s CPU      1.23s WALL (      16 calls)
     newd         :      0.13s CPU      0.14s WALL (      16 calls)
     dvanqq       :      0.57s CPU      0.57s WALL (      16 calls)
     drho         :     39.70s CPU     42.47s WALL (      16 calls)

     DYNAMICAL MATRIX:
     dynmat0      :      8.89s CPU      9.29s WALL (      16 calls)
     phqscf       :   3398.95s CPU   3800.79s WALL (      16 calls)
     dynmatrix    :      0.11s CPU      0.11s WALL (      16 calls)

     phqscf       :   3398.95s CPU   3800.79s WALL (      16 calls)
     solve_linter :   3385.85s CPU   3786.68s WALL (      40 calls)
     drhodv       :     12.90s CPU     13.78s WALL (      40 calls)

     dynmat0      :      8.89s CPU      9.29s WALL (      16 calls)
     dynmat_us    :      8.84s CPU      9.23s WALL (      16 calls)
     d2ionq       :      0.01s CPU      0.01s WALL (      16 calls)

     dynmat_us    :      8.84s CPU      9.23s WALL (      16 calls)
     addusdynmat  :      0.00s CPU      0.00s WALL (      16 calls)

     phqscf       :   3398.95s CPU   3800.79s WALL (      16 calls)
     solve_linter :   3385.85s CPU   3786.68s WALL (      40 calls)

     solve_linter :   3385.85s CPU   3786.68s WALL (      40 calls)
     dvqpsi_us    :     62.48s CPU     68.02s WALL (   29082 calls)
     ortho        :     47.54s CPU     52.01s WALL (  261717 calls)
     cgsolve      :   2662.68s CPU   2963.53s WALL (  261717 calls)
     incdrhoscf   :    239.32s CPU    282.96s WALL (  261717 calls)
     addusddens   :      4.14s CPU      4.17s WALL (     380 calls)
     vpsifft      :    193.53s CPU    215.48s WALL (  232635 calls)
     dv_of_drho   :      3.38s CPU      3.45s WALL (     394 calls)
     mix_pot      :      0.71s CPU      2.32s WALL (     340 calls)
     ef_shift     :      0.03s CPU      0.04s WALL (       7 calls)
     localdos     :      0.06s CPU      0.07s WALL (       1 calls)
     psymdvscf    :     29.04s CPU     29.63s WALL (     309 calls)
     newdq        :      4.16s CPU      4.18s WALL (     340 calls)
     adddvscf     :     16.47s CPU     18.15s WALL (  232635 calls)
     drhodvus     :      0.01s CPU      0.01s WALL (      40 calls)

     dvqpsi_us    :     62.48s CPU     68.02s WALL (   29082 calls)
     dvqpsi_us_on :     13.52s CPU     14.41s WALL (   29082 calls)

     cgsolve      :   2662.68s CPU   2963.53s WALL (  261717 calls)
     ch_psi       :   2481.58s CPU   2761.02s WALL ( 2677411 calls)

     ch_psi       :   2481.58s CPU   2761.02s WALL ( 2677411 calls)
     h_psi        :   2503.73s CPU   2768.30s WALL ( 3097962 calls)
     last         :    313.04s CPU    348.74s WALL ( 2677411 calls)

     h_psi        :   2503.73s CPU   2768.30s WALL ( 3097962 calls)
     add_vuspsi   :     47.94s CPU     53.65s WALL ( 3097962 calls)

     incdrhoscf   :    239.32s CPU    282.96s WALL (  261717 calls)
     addusdbec    :     24.59s CPU     26.97s WALL (  290799 calls)

     drhodvus     :      0.01s CPU      0.01s WALL (      40 calls)

      General routines
     calbec       :    342.82s CPU    377.93s WALL ( 6579744 calls)
     fft          :      4.50s CPU      4.61s WALL (    6331 calls)
     ffts         :      3.27s CPU      3.60s WALL (   30427 calls)
     fftw         :   2375.28s CPU   2639.96s WALL (29890174 calls)
     davcio       :     31.44s CPU     48.57s WALL ( 1366690 calls)
     write_rec    :      1.18s CPU      2.32s WALL (     380 calls)


     PHONON       :     1h17m CPU        1h25m WALL


   This run was terminated on:   9:41:58   2Feb2018            

=------------------------------------------------------------------------------=
   JOB DONE.
=------------------------------------------------------------------------------=
