
     Program PWSCF v.6.1 (svn rev. 13369) starts on 30Jan2018 at 18:23: 8 

     This program is part of the open-source Quantum ESPRESSO suite
     for quantum simulation of materials; please cite
         "P. Giannozzi et al., J. Phys.:Condens. Matter 21 395502 (2009);
          URL http://www.quantum-espresso.org", 
     in publications or presentations arising from this work. More details at
     http://www.quantum-espresso.org/quote

     Parallel version (MPI), running on    64 processors
     K-points division:     npool     =       4
     R & G space division:  proc/nbgrp/npool/nimage =      16
     Waiting for input...
     Reading input from standard input

     Current dimensions of program PWSCF are:
     Max number of different atomic species (ntypx) = 10
     Max number of k-points (npk) =  80000
     Max angular momentum in pseudopotentials (lmaxx) =  3

     Subspace diagonalization in iterative solution of the eigenvalue problem:
     a serial algorithm will be used


     Parallelization info
     --------------------
     sticks:   dense  smooth     PW     G-vecs:    dense   smooth      PW
     Min          75      38     11                 1659      590      99
     Max          76      39     12                 1661      591     101
     Sum        1215     611    181                26563     9453    1601



     bravais-lattice index     =            3
     lattice parameter (alat)  =       8.2004  a.u.
     unit-cell volume          =     275.7254 (a.u.)^3
     number of atoms/cell      =            1
     number of atomic types    =            1
     number of electrons       =         9.00
     number of Kohn-Sham states=            9
     kinetic-energy cutoff     =      40.0000  Ry
     charge density cutoff     =     320.0000  Ry
     convergence threshold     =      1.0E-10
     mixing beta               =       0.7000
     number of iterations used =            8  plain     mixing
     Exchange-correlation      = SLA  PW   PBE  PBE ( 1  4  3  4 0 0)

     celldm(1)=   8.200410  celldm(2)=   0.000000  celldm(3)=   0.000000
     celldm(4)=   0.000000  celldm(5)=   0.000000  celldm(6)=   0.000000

     crystal axes: (cart. coord. in units of alat)
               a(1) = (   0.500000   0.500000   0.500000 )  
               a(2) = (  -0.500000   0.500000   0.500000 )  
               a(3) = (  -0.500000  -0.500000   0.500000 )  

     reciprocal axes: (cart. coord. in units 2 pi/alat)
               b(1) = (  1.000000  0.000000  1.000000 )  
               b(2) = ( -1.000000  1.000000  0.000000 )  
               b(3) = (  0.000000 -1.000000  1.000000 )  


     PseudoPot. # 1 for Na read from file:
     /home/s1333534/quantum_espresso/qe-6.1/pseudo/Na_pbe_v1.uspp.F.UPF
     MD5 check sum: 76a99c7e9422403d3e93cbc85ab7bccb
     Pseudo is Ultrasoft, Zval =  9.0
     Generated by new atomic code, or converted to UPF format
     Using radial grid of  819 points,  5 beta functions with: 
                l(1) =   0
                l(2) =   0
                l(3) =   1
                l(4) =   1
                l(5) =   2
     Q(r) pseudized with  8 coefficients,  rinner =    1.250   1.250   1.250
                                                       1.250   1.250

     atomic species   valence    mass     pseudopotential
        Na             9.00    22.99000     Na( 1.00)

     48 Sym. Ops., with inversion, found



   Cartesian axes

     site n.     atom                  positions (alat units)
         1           Na  tau(   1) = (   0.0000000   0.0000000   0.0000000  )

     number of k points=   250  Marzari-Vanderbilt smearing, width (Ry)=  0.0200

     Number of k-points >= 100: set verbosity='high' to print them.

     Dense  grid:    26563 G-vectors     FFT dimensions: (  45,  45,  45)

     Smooth grid:     9453 G-vectors     FFT dimensions: (  30,  30,  30)

     Estimated max dynamical RAM per process >       1.85MB

     Estimated total allocated dynamical RAM >     118.52MB

     Initial potential from superposition of free atoms

     starting charge    8.99371, renormalised to    9.00000
     Starting wfc are    5 randomized atomic wfcs +    4 random wfc

     total cpu time spent up to now is        0.6 secs

     per-process dynamical memory:     7.5 Mb

     Self-consistent Calculation

     iteration #  1     ecut=    40.00 Ry     beta=0.70
     Davidson diagonalization with overlap
     ethr =  1.00E-02,  avg # of iterations =  5.9

     Threshold (ethr) on eigenvalues was too large:
     Diagonalizing with lowered threshold

     Davidson diagonalization with overlap
     ethr =  9.80E-06,  avg # of iterations =  5.1

     total cpu time spent up to now is        3.5 secs

     total energy              =     -95.10580999 Ry
     Harris-Foulkes estimate   =     -95.10597376 Ry
     estimated scf accuracy    <       0.00088321 Ry

     iteration #  2     ecut=    40.00 Ry     beta=0.70
     Davidson diagonalization with overlap
     ethr =  9.81E-06,  avg # of iterations =  1.9

     total cpu time spent up to now is        4.2 secs

     total energy              =     -95.10590281 Ry
     Harris-Foulkes estimate   =     -95.10592116 Ry
     estimated scf accuracy    <       0.00009630 Ry

     iteration #  3     ecut=    40.00 Ry     beta=0.70
     Davidson diagonalization with overlap
     ethr =  1.07E-06,  avg # of iterations =  2.1

     total cpu time spent up to now is        5.0 secs

     total energy              =     -95.10591517 Ry
     Harris-Foulkes estimate   =     -95.10591595 Ry
     estimated scf accuracy    <       0.00000579 Ry

     iteration #  4     ecut=    40.00 Ry     beta=0.70
     Davidson diagonalization with overlap
     ethr =  6.43E-08,  avg # of iterations =  1.0

     total cpu time spent up to now is        5.7 secs

     total energy              =     -95.10591573 Ry
     Harris-Foulkes estimate   =     -95.10591569 Ry
     estimated scf accuracy    <       0.00000002 Ry

     iteration #  5     ecut=    40.00 Ry     beta=0.70
     Davidson diagonalization with overlap
     ethr =  2.03E-10,  avg # of iterations =  3.0

     total cpu time spent up to now is        6.7 secs

     total energy              =     -95.10591576 Ry
     Harris-Foulkes estimate   =     -95.10591576 Ry
     estimated scf accuracy    <          1.7E-09 Ry

     iteration #  6     ecut=    40.00 Ry     beta=0.70
     Davidson diagonalization with overlap
     ethr =  1.85E-11,  avg # of iterations =  1.6

     total cpu time spent up to now is        7.4 secs

     End of self-consistent calculation

     Number of k-points >= 100: set verbosity='high' to print the bands.

     the Fermi energy is     1.2227 ev

!    total energy              =     -95.10591576 Ry
     Harris-Foulkes estimate   =     -95.10591576 Ry
     estimated scf accuracy    <          1.9E-11 Ry

     The total energy is the sum of the following terms:

     one-electron contribution =     -90.22221480 Ry
     hartree contribution      =      45.31945063 Ry
     xc contribution           =     -14.25633660 Ry
     ewald contribution        =     -35.94672722 Ry
     smearing contrib. (-TS)   =      -0.00008777 Ry

     convergence has been achieved in   6 iterations


     Computing stress (Cartesian axis) and pressure

          total   stress  (Ry/bohr**3)                   (kbar)     P=   -8.94
  -0.00006076   0.00000000  -0.00000000         -8.94      0.00     -0.00
   0.00000000  -0.00006076   0.00000000          0.00     -8.94      0.00
  -0.00000000   0.00000000  -0.00006076         -0.00      0.00     -8.94


     Writing output data file na.bcc.save

     init_run     :      0.36s CPU      0.42s WALL (       1 calls)
     electrons    :      6.39s CPU      6.77s WALL (       1 calls)
     stress       :      0.22s CPU      0.22s WALL (       1 calls)

     Called by init_run:
     wfcinit      :      0.20s CPU      0.22s WALL (       1 calls)
     potinit      :      0.03s CPU      0.03s WALL (       1 calls)

     Called by electrons:
     c_bands      :      5.32s CPU      5.66s WALL (       7 calls)
     sum_band     :      0.88s CPU      0.92s WALL (       7 calls)
     v_of_rho     :      0.09s CPU      0.10s WALL (       7 calls)
     newd         :      0.08s CPU      0.08s WALL (       7 calls)
     mix_rho      :      0.01s CPU      0.01s WALL (       7 calls)

     Called by c_bands:
     init_us_2    :      0.09s CPU      0.09s WALL (    1008 calls)
     cegterg      :      4.75s CPU      5.08s WALL (     441 calls)

     Called by sum_band:
     sum_band:bec :      0.00s CPU      0.01s WALL (     441 calls)
     addusdens    :      0.09s CPU      0.09s WALL (       7 calls)

     Called by *egterg:
     h_psi        :      3.45s CPU      3.64s WALL (    1849 calls)
     s_psi        :      0.04s CPU      0.04s WALL (    1849 calls)
     g_psi        :      0.01s CPU      0.01s WALL (    1345 calls)
     cdiaghg      :      0.86s CPU      0.94s WALL (    1723 calls)

     Called by h_psi:
     h_psi:pot    :      3.44s CPU      3.62s WALL (    1849 calls)
     h_psi:calbec :      0.15s CPU      0.16s WALL (    1849 calls)
     vloc_psi     :      3.23s CPU      3.40s WALL (    1849 calls)
     add_vuspsi   :      0.04s CPU      0.04s WALL (    1849 calls)

     General routines
     calbec       :      0.20s CPU      0.21s WALL (    2353 calls)
     fft          :      0.10s CPU      0.12s WALL (     117 calls)
     ffts         :      0.01s CPU      0.01s WALL (      14 calls)
     fftw         :      3.47s CPU      3.65s WALL (   26123 calls)
     interpolate  :      0.02s CPU      0.02s WALL (      14 calls)
     davcio       :      0.00s CPU      0.03s WALL (      63 calls)

     Parallel routines
     fft_scatter  :      1.72s CPU      1.81s WALL (   26254 calls)

     PWSCF        :     8.10s CPU         8.70s WALL


   This run was terminated on:  18:23:17  30Jan2018            

=------------------------------------------------------------------------------=
   JOB DONE.
=------------------------------------------------------------------------------=
