
     Program PHONON v.5.4.0 starts on 27Mar2018 at  0:30: 2 

     This program is part of the open-source Quantum ESPRESSO suite
     for quantum simulation of materials; please cite
         "P. Giannozzi et al., J. Phys.:Condens. Matter 21 395502 (2009);
          URL http://www.quantum-espresso.org", 
     in publications or presentations arising from this work. More details at
     http://www.quantum-espresso.org/quote

     Parallel version (MPI & OpenMP), running on     192 processor cores
     Number of MPI processes:               192
     Threads/MPI process:                     1
     K-points division:     npool     =      24
     R & G space division:  proc/nbgrp/npool/nimage =       8

     Reading data from directory:
     ./na_hcp_6.993850699385001/na_hcp_6.993850699385001.save

   Info: using nr1, nr2, nr3 values from input

   Info: using nr1, nr2, nr3 values from input

     IMPORTANT: XC functional enforced from input :
     Exchange-correlation      = SLA  PW   PBE  PBE ( 1  4  3  4 0 0)
     Any further DFT definition will be discarded
     Please, verify this is what you really want

 
     Parallelization info
     --------------------
     sticks:   dense  smooth     PW     G-vecs:    dense   smooth      PW
     Min         133      68     20                 5835     2056     346
     Max         134      69     21                 5844     2068     351
     Sum        1069     547    163                46721    16503    2779
 


     Dynamical matrices for ( 4, 4, 4)  uniform grid of q-points
     (  12q-points):
       N         xq(1)         xq(2)         xq(3) 
       1   0.000000000   0.000000000   0.000000000
       2   0.000000000   0.000000000   0.153326575
       3   0.000000000   0.000000000  -0.306653149
       4   0.000000000   0.288675135   0.000000000
       5   0.000000000   0.288675135   0.153326575
       6   0.000000000   0.288675135  -0.306653149
       7   0.000000000  -0.577350269   0.000000000
       8   0.000000000  -0.577350269   0.153326575
       9   0.000000000  -0.577350269  -0.306653149
      10   0.250000000   0.433012702   0.000000000
      11   0.250000000   0.433012702   0.153326575
      12   0.250000000   0.433012702  -0.306653149

     Calculation of q =    0.0000000   0.0000000   0.0000000

                                                                                

     bravais-lattice index     =            4
     lattice parameter (alat)  =       6.9939  a.u.
     unit-cell volume          =     483.0613 (a.u.)^3
     number of atoms/cell      =            2
     number of atomic types    =            1
     kinetic-energy cut-off    =      40.0000  Ry
     charge density cut-off    =     320.0000  Ry
     convergence threshold     =      1.0E-15
     beta                      =       0.7000
     number of iterations used =            4
     Exchange-correlation      = SLA  PW   PBE  PBE ( 1  4  3  4 0 0)


     celldm(1)=    6.99385  celldm(2)=    0.00000  celldm(3)=    1.63051
     celldm(4)=    0.00000  celldm(5)=    0.00000  celldm(6)=    0.00000

     crystal axes: (cart. coord. in units of alat)
               a(1) = (  1.0000  0.0000  0.0000 )  
               a(2) = ( -0.5000  0.8660  0.0000 )  
               a(3) = (  0.0000  0.0000  1.6305 )  

     reciprocal axes: (cart. coord. in units 2 pi/alat)
               b(1) = (  1.0000  0.5774  0.0000 )  
               b(2) = (  0.0000  1.1547  0.0000 )  
               b(3) = (  0.0000  0.0000  0.6133 )  


     Atoms inside the unit cell: 

     Cartesian axes

     site n.  atom      mass           positions (alat units)
        1     Na  22.9900   tau(    1) = (    0.00000    0.00000    0.00000  )
        2     Na  22.9900   tau(    2) = (    0.50000    0.28868    0.81525  )

     Computing dynamical matrix for 
                    q = (   0.0000000   0.0000000   0.0000000 )
 
     13 Sym.Ops. (with q -> -q+G )


     G cutoff =  396.4815  (   5844 G-vectors)     FFT grid: ( 40, 40, 72)
     G cutoff =  198.2408  (   2066 G-vectors)  smooth grid: ( 30, 30, 45)

     number of k points=   366  Marzari-Vanderbilt smearing, width (Ry)=  0.0200

     PseudoPot. # 1 for Na read from file:
     ./Na_pbe_v1.uspp.F.UPF
     MD5 check sum: 76a99c7e9422403d3e93cbc85ab7bccb
     Pseudo is Ultrasoft, Zval =  9.0
     Generated by new atomic code, or converted to UPF format
     Using radial grid of  819 points,  5 beta functions with: 
                l(1) =   0
                l(2) =   0
                l(3) =   1
                l(4) =   1
                l(5) =   2
     Q(r) pseudized with  8 coefficients,  rinner =    1.250   1.250   1.250
                                                       1.250   1.250

     Mode symmetry, D_3h (-62m) point group:


     Atomic displacements:
     There are   4 irreducible representations

     Representation     1      2 modes -E'  To be done

     Representation     2      2 modes -E'  To be done

     Representation     3      1 modes -A''2  To be done

     Representation     4      1 modes -A''2  To be done



     Alpha used in Ewald sum =   2.8000
     PHONON       :     5.16s CPU         8.11s WALL



     Representation #  1 modes #   1  2

     Self-consistent Calculation
 
     Pert. #  1: Fermi energy shift (Ry) =     0.0000E+00     0.0000E+00
     Pert. #  2: Fermi energy shift (Ry) =     3.6140E-20     0.0000E+00

      iter #   1 total cpu time :     9.5 secs   av.it.:   5.2
      thresh= 1.000E-02 alpha_mix =  0.700 |ddv_scf|^2 =  9.408E-07
 
     Pert. #  1: Fermi energy shift (Ry) =     0.0000E+00     0.0000E+00
     Pert. #  2: Fermi energy shift (Ry) =    -4.5175E-21     0.0000E+00

      iter #   2 total cpu time :    12.4 secs   av.it.:   8.7
      thresh= 9.699E-05 alpha_mix =  0.700 |ddv_scf|^2 =  1.686E-08
 
     Pert. #  1: Fermi energy shift (Ry) =    -2.2588E-21     0.0000E+00
     Pert. #  2: Fermi energy shift (Ry) =    -5.6469E-22     0.0000E+00

      iter #   3 total cpu time :    14.8 secs   av.it.:   8.9
      thresh= 1.298E-05 alpha_mix =  0.700 |ddv_scf|^2 =  4.437E-10
 
     Pert. #  1: Fermi energy shift (Ry) =     0.0000E+00     0.0000E+00
     Pert. #  2: Fermi energy shift (Ry) =     2.2588E-21     0.0000E+00

      iter #   4 total cpu time :    16.6 secs   av.it.:   8.5
      thresh= 2.106E-06 alpha_mix =  0.700 |ddv_scf|^2 =  1.559E-12
 
     Pert. #  1: Fermi energy shift (Ry) =    -1.6941E-21     0.0000E+00
     Pert. #  2: Fermi energy shift (Ry) =     1.6941E-21     0.0000E+00

      iter #   5 total cpu time :    18.6 secs   av.it.:   8.9
      thresh= 1.249E-07 alpha_mix =  0.700 |ddv_scf|^2 =  5.873E-15
 
     Pert. #  1: Fermi energy shift (Ry) =    -5.6469E-22     0.0000E+00
     Pert. #  2: Fermi energy shift (Ry) =     3.3881E-21     0.0000E+00

      iter #   6 total cpu time :    20.8 secs   av.it.:   8.6
      thresh= 7.664E-09 alpha_mix =  0.700 |ddv_scf|^2 =  1.053E-16

     End of self-consistent calculation

     Convergence has been achieved 


     Representation #  2 modes #   3  4

     Self-consistent Calculation
 
     Pert. #  1: Fermi energy shift (Ry) =     2.1684E-19    -1.2539E-36
     Pert. #  2: Fermi energy shift (Ry) =    -1.8070E-19     2.5077E-37

      iter #   1 total cpu time :    22.7 secs   av.it.:   5.2
      thresh= 1.000E-02 alpha_mix =  0.700 |ddv_scf|^2 =  9.407E-07
 
     Pert. #  1: Fermi energy shift (Ry) =     6.3245E-20     2.4489E-39
     Pert. #  2: Fermi energy shift (Ry) =     2.2588E-20    -4.8979E-40

      iter #   2 total cpu time :    24.3 secs   av.it.:   8.7
      thresh= 9.699E-05 alpha_mix =  0.700 |ddv_scf|^2 =  1.686E-08
 
     Pert. #  1: Fermi energy shift (Ry) =     7.9056E-21    -3.0612E-41
     Pert. #  2: Fermi energy shift (Ry) =     1.6941E-21     0.0000E+00

      iter #   3 total cpu time :    26.2 secs   av.it.:   8.9
      thresh= 1.299E-05 alpha_mix =  0.700 |ddv_scf|^2 =  4.450E-10
 
     Pert. #  1: Fermi energy shift (Ry) =     4.5175E-21    -6.1224E-41
     Pert. #  2: Fermi energy shift (Ry) =     3.9528E-21     4.5918E-41

      iter #   4 total cpu time :    28.4 secs   av.it.:   8.5
      thresh= 2.110E-06 alpha_mix =  0.700 |ddv_scf|^2 =  1.552E-12
 
     Pert. #  1: Fermi energy shift (Ry) =     4.5175E-21    -4.7831E-43
     Pert. #  2: Fermi energy shift (Ry) =     6.2116E-21     0.0000E+00

      iter #   5 total cpu time :    30.1 secs   av.it.:   8.9
      thresh= 1.246E-07 alpha_mix =  0.700 |ddv_scf|^2 =  5.876E-15
 
     Pert. #  1: Fermi energy shift (Ry) =     5.0822E-21     3.3482E-42
     Pert. #  2: Fermi energy shift (Ry) =     5.0822E-21    -1.1958E-42

      iter #   6 total cpu time :    32.6 secs   av.it.:   8.7
      thresh= 7.665E-09 alpha_mix =  0.700 |ddv_scf|^2 =  1.053E-16

     End of self-consistent calculation

     Convergence has been achieved 


     Representation #  3 mode #   5

     Self-consistent Calculation
 
     Pert. #  1: Fermi energy shift (Ry) =     0.0000E+00     0.0000E+00

      iter #   1 total cpu time :    34.2 secs   av.it.:   5.5
      thresh= 1.000E-02 alpha_mix =  0.700 |ddv_scf|^2 =  2.031E-05
 
     Pert. #  1: Fermi energy shift (Ry) =    -1.1294E-21     0.0000E+00

      iter #   2 total cpu time :    36.0 secs   av.it.:   8.0
      thresh= 4.507E-04 alpha_mix =  0.700 |ddv_scf|^2 =  1.137E-05
 
     Pert. #  1: Fermi energy shift (Ry) =    -5.6469E-22     0.0000E+00

      iter #   3 total cpu time :    37.5 secs   av.it.:   7.0
      thresh= 3.372E-04 alpha_mix =  0.700 |ddv_scf|^2 =  1.911E-08
 
     Pert. #  1: Fermi energy shift (Ry) =    -1.4117E-22     0.0000E+00

      iter #   4 total cpu time :    38.5 secs   av.it.:   8.4
      thresh= 1.382E-05 alpha_mix =  0.700 |ddv_scf|^2 =  4.001E-10
 
     Pert. #  1: Fermi energy shift (Ry) =    -2.8234E-22     0.0000E+00

      iter #   5 total cpu time :    40.0 secs   av.it.:   7.9
      thresh= 2.000E-06 alpha_mix =  0.700 |ddv_scf|^2 =  3.073E-12
 
     Pert. #  1: Fermi energy shift (Ry) =     0.0000E+00     0.0000E+00

      iter #   6 total cpu time :    41.2 secs   av.it.:   8.0
      thresh= 1.753E-07 alpha_mix =  0.700 |ddv_scf|^2 =  3.134E-14
 
     Pert. #  1: Fermi energy shift (Ry) =    -2.8234E-22     0.0000E+00

      iter #   7 total cpu time :    41.8 secs   av.it.:   8.2
      thresh= 1.770E-08 alpha_mix =  0.700 |ddv_scf|^2 =  6.025E-16

     End of self-consistent calculation

     Convergence has been achieved 


     Representation #  4 mode #   6

     Self-consistent Calculation
 
     Pert. #  1: Fermi energy shift (Ry) =    -9.0350E-21     0.0000E+00

      iter #   1 total cpu time :    42.5 secs   av.it.:   5.5
      thresh= 1.000E-02 alpha_mix =  0.700 |ddv_scf|^2 =  2.031E-05
 
     Pert. #  1: Fermi energy shift (Ry) =    -1.1294E-21     0.0000E+00

      iter #   2 total cpu time :    43.0 secs   av.it.:   8.0
      thresh= 4.507E-04 alpha_mix =  0.700 |ddv_scf|^2 =  1.137E-05
 
     Pert. #  1: Fermi energy shift (Ry) =     5.6469E-22     0.0000E+00

      iter #   3 total cpu time :    43.5 secs   av.it.:   7.0
      thresh= 3.372E-04 alpha_mix =  0.700 |ddv_scf|^2 =  1.911E-08
 
     Pert. #  1: Fermi energy shift (Ry) =    -1.4117E-22     0.0000E+00

      iter #   4 total cpu time :    44.3 secs   av.it.:   8.4
      thresh= 1.382E-05 alpha_mix =  0.700 |ddv_scf|^2 =  4.002E-10
 
     Pert. #  1: Fermi energy shift (Ry) =     0.0000E+00     0.0000E+00

      iter #   5 total cpu time :    44.9 secs   av.it.:   7.9
      thresh= 2.001E-06 alpha_mix =  0.700 |ddv_scf|^2 =  3.073E-12
 
     Pert. #  1: Fermi energy shift (Ry) =     0.0000E+00     0.0000E+00

      iter #   6 total cpu time :    45.4 secs   av.it.:   8.0
      thresh= 1.753E-07 alpha_mix =  0.700 |ddv_scf|^2 =  3.134E-14
 
     Pert. #  1: Fermi energy shift (Ry) =     2.8234E-22     0.0000E+00

      iter #   7 total cpu time :    45.9 secs   av.it.:   8.2
      thresh= 1.770E-08 alpha_mix =  0.700 |ddv_scf|^2 =  6.025E-16

     End of self-consistent calculation

     Convergence has been achieved 
 
     Number of q in the star =    1
     List of q in the star:
          1   0.000000000   0.000000000   0.000000000

     Diagonalizing the dynamical matrix

     q = (    0.000000000   0.000000000   0.000000000 ) 

 **************************************************************************
     freq (    1) =      -0.553075 [THz] =     -18.448580 [cm-1]
     freq (    2) =      -0.553075 [THz] =     -18.448580 [cm-1]
     freq (    3) =       0.585469 [THz] =      19.529155 [cm-1]
     freq (    4) =       1.689193 [THz] =      56.345410 [cm-1]
     freq (    5) =       1.689193 [THz] =      56.345410 [cm-1]
     freq (    6) =       4.044762 [THz] =     134.918742 [cm-1]
 **************************************************************************

     Mode symmetry, D_3h (-62m) point group:

     freq (  1 -  2) =        -18.4  [cm-1]   --> E'              I+R
     freq (  3 -  3) =         19.5  [cm-1]   --> A''2            I  
     freq (  4 -  5) =         56.3  [cm-1]   --> E'              I+R
     freq (  6 -  6) =        134.9  [cm-1]   --> A''2            I  

     Calculation of q =    0.0000000   0.0000000   0.1533266
 
     Parallelization info
     --------------------
     sticks:   dense  smooth     PW     G-vecs:    dense   smooth      PW
     Min         133      68     20                 5835     2056     348
     Max         134      69     21                 5844     2068     355
     Sum        1069     547    163                46721    16503    2803
 


     bravais-lattice index     =            4
     lattice parameter (alat)  =       6.9939  a.u.
     unit-cell volume          =     483.0613 (a.u.)^3
     number of atoms/cell      =            2
     number of atomic types    =            1
     number of electrons       =        18.00
     number of Kohn-Sham states=           13
     kinetic-energy cutoff     =      40.0000  Ry
     charge density cutoff     =     320.0000  Ry
     Exchange-correlation      = SLA  PW   PBE  PBE ( 1  4  3  4 0 0)

     celldm(1)=   6.993851  celldm(2)=   0.000000  celldm(3)=   1.630507
     celldm(4)=   0.000000  celldm(5)=   0.000000  celldm(6)=   0.000000

     crystal axes: (cart. coord. in units of alat)
               a(1) = (   1.000000   0.000000   0.000000 )  
               a(2) = (  -0.500000   0.866025   0.000000 )  
               a(3) = (   0.000000   0.000000   1.630507 )  

     reciprocal axes: (cart. coord. in units 2 pi/alat)
               b(1) = (  1.000000  0.577350  0.000000 )  
               b(2) = (  0.000000  1.154701  0.000000 )  
               b(3) = (  0.000000  0.000000  0.613306 )  


     PseudoPot. # 1 for Na read from file:
     ./Na_pbe_v1.uspp.F.UPF
     MD5 check sum: 76a99c7e9422403d3e93cbc85ab7bccb
     Pseudo is Ultrasoft, Zval =  9.0
     Generated by new atomic code, or converted to UPF format
     Using radial grid of  819 points,  5 beta functions with: 
                l(1) =   0
                l(2) =   0
                l(3) =   1
                l(4) =   1
                l(5) =   2
     Q(r) pseudized with  8 coefficients,  rinner =    1.250   1.250   1.250
                                                       1.250   1.250

     atomic species   valence    mass     pseudopotential
        Na             9.00    22.99000     Na( 1.00)

     12 Sym. Ops. (no inversion) found



   Cartesian axes

     site n.     atom                  positions (alat units)
         1           Na  tau(   1) = (   0.0000000   0.0000000   0.0000000  )
         2           Na  tau(   2) = (   0.4999999   0.2886751   0.8152533  )

     number of k points=  2616  Marzari-Vanderbilt smearing, width (Ry)=  0.0200

     Number of k-points >= 100: set verbosity='high' to print them.

     Dense  grid:    46721 G-vectors     FFT dimensions: (  40,  40,  72)

     Smooth grid:    16503 G-vectors     FFT dimensions: (  30,  30,  45)

     Largest allocated arrays     est. size (Mb)     dimensions
        Kohn-Sham Wavefunctions         0.05 Mb     (     273,   13)
        NL pseudopotentials             0.11 Mb     (     273,   26)
        Each V/rho on FFT grid          0.22 Mb     (   14400)
        Each G-vector array             0.04 Mb     (    5844)
        G-vector shells                 0.01 Mb     (    1734)
     Largest temporary arrays     est. size (Mb)     dimensions
        Auxiliary wavefunctions         0.22 Mb     (     273,   52)
        Each subspace H/S matrix        0.01 Mb     (      26,   26)
        Each <psi_i|beta_j> matrix      0.01 Mb     (      26,   13)

     The potential is recalculated from file :
     ./na_hcp_6.993850699385001/_ph0/na_hcp_6.993850699385001.save/charge-density.dat

     Starting wfc are   10 atomic +    3 random wfc

     Band Structure Calculation
     Davidson diagonalization with overlap

     ethr =  5.56E-11,  avg # of iterations = 23.2

     total cpu time spent up to now is        9.4 secs

     End of band structure calculation

     Number of k-points >= 100: set verbosity='high' to print the bands.

     the Fermi energy is     1.7528 ev

     Writing output data file na_hcp_6.993850699385001.save

                                                                                

     bravais-lattice index     =            4
     lattice parameter (alat)  =       6.9939  a.u.
     unit-cell volume          =     483.0613 (a.u.)^3
     number of atoms/cell      =            2
     number of atomic types    =            1
     kinetic-energy cut-off    =      40.0000  Ry
     charge density cut-off    =     320.0000  Ry
     convergence threshold     =      1.0E-15
     beta                      =       0.7000
     number of iterations used =            4
     Exchange-correlation      = SLA  PW   PBE  PBE ( 1  4  3  4 0 0)


     celldm(1)=    6.99385  celldm(2)=    0.00000  celldm(3)=    1.63051
     celldm(4)=    0.00000  celldm(5)=    0.00000  celldm(6)=    0.00000

     crystal axes: (cart. coord. in units of alat)
               a(1) = (  1.0000  0.0000  0.0000 )  
               a(2) = ( -0.5000  0.8660  0.0000 )  
               a(3) = (  0.0000  0.0000  1.6305 )  

     reciprocal axes: (cart. coord. in units 2 pi/alat)
               b(1) = (  1.0000  0.5774  0.0000 )  
               b(2) = (  0.0000  1.1547  0.0000 )  
               b(3) = (  0.0000  0.0000  0.6133 )  


     Atoms inside the unit cell: 

     Cartesian axes

     site n.  atom      mass           positions (alat units)
        1     Na  22.9900   tau(    1) = (    0.00000    0.00000    0.00000  )
        2     Na  22.9900   tau(    2) = (    0.50000    0.28868    0.81525  )

     Computing dynamical matrix for 
                    q = (   0.0000000   0.0000000   0.1533266 )
 
      6 Sym.Ops. (no q -> -q+G )


     G cutoff =  396.4815  (   5844 G-vectors)     FFT grid: ( 40, 40, 72)
     G cutoff =  198.2408  (   2066 G-vectors)  smooth grid: ( 30, 30, 45)

     number of k points=  2616  Marzari-Vanderbilt smearing, width (Ry)=  0.0200

     PseudoPot. # 1 for Na read from file:
     ./Na_pbe_v1.uspp.F.UPF
     MD5 check sum: 76a99c7e9422403d3e93cbc85ab7bccb
     Pseudo is Ultrasoft, Zval =  9.0
     Generated by new atomic code, or converted to UPF format
     Using radial grid of  819 points,  5 beta functions with: 
                l(1) =   0
                l(2) =   0
                l(3) =   1
                l(4) =   1
                l(5) =   2
     Q(r) pseudized with  8 coefficients,  rinner =    1.250   1.250   1.250
                                                       1.250   1.250

     Mode symmetry, C_3v (3m)   point group:


     Atomic displacements:
     There are   4 irreducible representations

     Representation     1      1 modes -A_1  L_1  To be done

     Representation     2      1 modes -A_1  L_1  To be done

     Representation     3      2 modes -E    L_3  To be done

     Representation     4      2 modes -E    L_3  To be done



     Alpha used in Ewald sum =   2.8000
     PHONON       :    49.92s CPU        59.63s WALL



     Representation #  1 mode #   1

     Self-consistent Calculation

      iter #   1 total cpu time :    61.1 secs   av.it.:   5.8
      thresh= 1.000E-02 alpha_mix =  0.700 |ddv_scf|^2 =  3.065E-02

      iter #   2 total cpu time :    65.8 secs   av.it.:   6.8
      thresh= 1.000E-02 alpha_mix =  0.700 |ddv_scf|^2 =  1.680E+01

      iter #   3 total cpu time :    89.2 secs   av.it.:   6.7
      thresh= 1.000E-02 alpha_mix =  0.700 |ddv_scf|^2 =  1.994E-04

      iter #   4 total cpu time :    94.5 secs   av.it.:   7.3
      thresh= 1.412E-03 alpha_mix =  0.700 |ddv_scf|^2 =  3.585E-04

      iter #   5 total cpu time :    98.4 secs   av.it.:   6.4
      thresh= 1.894E-03 alpha_mix =  0.700 |ddv_scf|^2 =  1.276E-08

      iter #   6 total cpu time :   103.6 secs   av.it.:   8.3
      thresh= 1.130E-05 alpha_mix =  0.700 |ddv_scf|^2 =  1.170E-07

      iter #   7 total cpu time :   110.2 secs   av.it.:   4.0
      thresh= 3.421E-05 alpha_mix =  0.700 |ddv_scf|^2 =  1.551E-08

      iter #   8 total cpu time :   125.1 secs   av.it.:   7.2
      thresh= 1.246E-05 alpha_mix =  0.700 |ddv_scf|^2 =  3.761E-10

      iter #   9 total cpu time :   130.1 secs   av.it.:   7.4
      thresh= 1.939E-06 alpha_mix =  0.700 |ddv_scf|^2 =  6.107E-09

      iter #  10 total cpu time :   136.9 secs   av.it.:   6.0
      thresh= 7.815E-06 alpha_mix =  0.700 |ddv_scf|^2 =  2.432E-12

      iter #  11 total cpu time :   141.6 secs   av.it.:   8.0
      thresh= 1.560E-07 alpha_mix =  0.700 |ddv_scf|^2 =  5.676E-13

      iter #  12 total cpu time :   148.4 secs   av.it.:   7.2
      thresh= 7.534E-08 alpha_mix =  0.700 |ddv_scf|^2 =  1.307E-13

      iter #  13 total cpu time :   153.0 secs   av.it.:   7.6
      thresh= 3.615E-08 alpha_mix =  0.700 |ddv_scf|^2 =  1.801E-11

      iter #  14 total cpu time :   157.4 secs   av.it.:   4.7
      thresh= 4.244E-07 alpha_mix =  0.700 |ddv_scf|^2 =  1.858E-15

      iter #  15 total cpu time :   162.4 secs   av.it.:   8.7
      thresh= 4.311E-09 alpha_mix =  0.700 |ddv_scf|^2 =  1.111E-14

      iter #  16 total cpu time :   166.6 secs   av.it.:   5.9
      thresh= 1.054E-08 alpha_mix =  0.700 |ddv_scf|^2 =  7.810E-15

      iter #  17 total cpu time :   173.3 secs   av.it.:   6.7
      thresh= 8.837E-09 alpha_mix =  0.700 |ddv_scf|^2 =  2.229E-17

     End of self-consistent calculation

     Convergence has been achieved 


     Representation #  2 mode #   2

     Self-consistent Calculation

      iter #   1 total cpu time :   180.3 secs   av.it.:   5.8
      thresh= 1.000E-02 alpha_mix =  0.700 |ddv_scf|^2 =  3.065E-02

      iter #   2 total cpu time :   184.7 secs   av.it.:   6.8
      thresh= 1.000E-02 alpha_mix =  0.700 |ddv_scf|^2 =  1.680E+01

      iter #   3 total cpu time :   188.6 secs   av.it.:   6.7
      thresh= 1.000E-02 alpha_mix =  0.700 |ddv_scf|^2 =  1.994E-04

      iter #   4 total cpu time :   192.5 secs   av.it.:   7.3
      thresh= 1.412E-03 alpha_mix =  0.700 |ddv_scf|^2 =  3.585E-04

      iter #   5 total cpu time :   196.4 secs   av.it.:   6.4
      thresh= 1.894E-03 alpha_mix =  0.700 |ddv_scf|^2 =  1.259E-08

      iter #   6 total cpu time :   200.9 secs   av.it.:   8.3
      thresh= 1.122E-05 alpha_mix =  0.700 |ddv_scf|^2 =  3.476E-08

      iter #   7 total cpu time :   204.9 secs   av.it.:   4.5
      thresh= 1.864E-05 alpha_mix =  0.700 |ddv_scf|^2 =  4.811E-08

      iter #   8 total cpu time :   208.7 secs   av.it.:   6.6
      thresh= 2.193E-05 alpha_mix =  0.700 |ddv_scf|^2 =  3.784E-10

      iter #   9 total cpu time :   213.0 secs   av.it.:   7.4
      thresh= 1.945E-06 alpha_mix =  0.700 |ddv_scf|^2 =  6.132E-09

      iter #  10 total cpu time :   217.6 secs   av.it.:   6.0
      thresh= 7.830E-06 alpha_mix =  0.700 |ddv_scf|^2 =  2.368E-12

      iter #  11 total cpu time :   222.2 secs   av.it.:   8.0
      thresh= 1.539E-07 alpha_mix =  0.700 |ddv_scf|^2 =  6.913E-13

      iter #  12 total cpu time :   226.5 secs   av.it.:   7.2
      thresh= 8.314E-08 alpha_mix =  0.700 |ddv_scf|^2 =  7.356E-14

      iter #  13 total cpu time :   232.0 secs   av.it.:   8.1
      thresh= 2.712E-08 alpha_mix =  0.700 |ddv_scf|^2 =  9.193E-12

      iter #  14 total cpu time :   237.1 secs   av.it.:   4.1
      thresh= 3.032E-07 alpha_mix =  0.700 |ddv_scf|^2 =  4.258E-15

      iter #  15 total cpu time :   253.8 secs   av.it.:   8.4
      thresh= 6.525E-09 alpha_mix =  0.700 |ddv_scf|^2 =  1.060E-14

      iter #  16 total cpu time :   263.6 secs   av.it.:   6.0
      thresh= 1.030E-08 alpha_mix =  0.700 |ddv_scf|^2 =  7.058E-15

      iter #  17 total cpu time :   269.1 secs   av.it.:   6.7
      thresh= 8.401E-09 alpha_mix =  0.700 |ddv_scf|^2 =  2.533E-17

     End of self-consistent calculation

     Convergence has been achieved 


     Representation #  3 modes #   3  4

     Self-consistent Calculation

      iter #   1 total cpu time :   276.9 secs   av.it.:   5.2
      thresh= 1.000E-02 alpha_mix =  0.700 |ddv_scf|^2 =  9.397E-07

      iter #   2 total cpu time :   291.4 secs   av.it.:   8.7
      thresh= 9.694E-05 alpha_mix =  0.700 |ddv_scf|^2 =  1.687E-08

      iter #   3 total cpu time :   303.9 secs   av.it.:   9.0
      thresh= 1.299E-05 alpha_mix =  0.700 |ddv_scf|^2 =  4.367E-10

      iter #   4 total cpu time :   314.9 secs   av.it.:   8.6
      thresh= 2.090E-06 alpha_mix =  0.700 |ddv_scf|^2 =  1.491E-12

      iter #   5 total cpu time :   336.6 secs   av.it.:   9.0
      thresh= 1.221E-07 alpha_mix =  0.700 |ddv_scf|^2 =  4.343E-15

      iter #   6 total cpu time :   343.9 secs   av.it.:   8.6
      thresh= 6.590E-09 alpha_mix =  0.700 |ddv_scf|^2 =  1.004E-16

     End of self-consistent calculation

     Convergence has been achieved 


     Representation #  4 modes #   5  6

     Self-consistent Calculation

      iter #   1 total cpu time :   354.2 secs   av.it.:   5.2
      thresh= 1.000E-02 alpha_mix =  0.700 |ddv_scf|^2 =  9.397E-07

      iter #   2 total cpu time :   370.1 secs   av.it.:   8.7
      thresh= 9.694E-05 alpha_mix =  0.700 |ddv_scf|^2 =  1.688E-08

      iter #   3 total cpu time :   386.6 secs   av.it.:   9.0
      thresh= 1.299E-05 alpha_mix =  0.700 |ddv_scf|^2 =  4.380E-10

      iter #   4 total cpu time :   405.0 secs   av.it.:   8.5
      thresh= 2.093E-06 alpha_mix =  0.700 |ddv_scf|^2 =  1.484E-12

      iter #   5 total cpu time :   412.9 secs   av.it.:   9.0
      thresh= 1.218E-07 alpha_mix =  0.700 |ddv_scf|^2 =  4.346E-15

      iter #   6 total cpu time :   421.0 secs   av.it.:   8.6
      thresh= 6.592E-09 alpha_mix =  0.700 |ddv_scf|^2 =  1.005E-16

     End of self-consistent calculation

     Convergence has been achieved 
 
     Number of q in the star =    2
     List of q in the star:
          1   0.000000000   0.000000000   0.153326575
          2   0.000000000   0.000000000  -0.153326575

     Diagonalizing the dynamical matrix

     q = (    0.000000000   0.000000000   0.153326575 ) 

 **************************************************************************
     freq (    1) =       0.411360 [THz] =      13.721487 [cm-1]
     freq (    2) =       0.411360 [THz] =      13.721487 [cm-1]
     freq (    3) =       1.565818 [THz] =      52.230073 [cm-1]
     freq (    4) =       1.565818 [THz] =      52.230073 [cm-1]
     freq (    5) =       1.650564 [THz] =      55.056882 [cm-1]
     freq (    6) =       3.801763 [THz] =     126.813172 [cm-1]
 **************************************************************************

     Mode symmetry, C_3v (3m)   point group:

     freq (  1 -  2) =         13.7  [cm-1]   --> E    L_3           
     freq (  3 -  4) =         52.2  [cm-1]   --> E    L_3           
     freq (  5 -  5) =         55.1  [cm-1]   --> A_1  L_1           
     freq (  6 -  6) =        126.8  [cm-1]   --> A_1  L_1           

     Calculation of q =    0.0000000   0.0000000  -0.3066531
 
     Parallelization info
     --------------------
     sticks:   dense  smooth     PW     G-vecs:    dense   smooth      PW
     Min         133      68     20                 5835     2056     346
     Max         134      69     21                 5844     2068     351
     Sum        1069     547    163                46721    16503    2779
 


     bravais-lattice index     =            4
     lattice parameter (alat)  =       6.9939  a.u.
     unit-cell volume          =     483.0613 (a.u.)^3
     number of atoms/cell      =            2
     number of atomic types    =            1
     number of electrons       =        18.00
     number of Kohn-Sham states=           13
     kinetic-energy cutoff     =      40.0000  Ry
     charge density cutoff     =     320.0000  Ry
     Exchange-correlation      = SLA  PW   PBE  PBE ( 1  4  3  4 0 0)

     celldm(1)=   6.993851  celldm(2)=   0.000000  celldm(3)=   1.630507
     celldm(4)=   0.000000  celldm(5)=   0.000000  celldm(6)=   0.000000

     crystal axes: (cart. coord. in units of alat)
               a(1) = (   1.000000   0.000000   0.000000 )  
               a(2) = (  -0.500000   0.866025   0.000000 )  
               a(3) = (   0.000000   0.000000   1.630507 )  

     reciprocal axes: (cart. coord. in units 2 pi/alat)
               b(1) = (  1.000000  0.577350  0.000000 )  
               b(2) = (  0.000000  1.154701  0.000000 )  
               b(3) = (  0.000000  0.000000  0.613306 )  


     PseudoPot. # 1 for Na read from file:
     ./Na_pbe_v1.uspp.F.UPF
     MD5 check sum: 76a99c7e9422403d3e93cbc85ab7bccb
     Pseudo is Ultrasoft, Zval =  9.0
     Generated by new atomic code, or converted to UPF format
     Using radial grid of  819 points,  5 beta functions with: 
                l(1) =   0
                l(2) =   0
                l(3) =   1
                l(4) =   1
                l(5) =   2
     Q(r) pseudized with  8 coefficients,  rinner =    1.250   1.250   1.250
                                                       1.250   1.250

     atomic species   valence    mass     pseudopotential
        Na             9.00    22.99000     Na( 1.00)

     12 Sym. Ops. (no inversion) found



   Cartesian axes

     site n.     atom                  positions (alat units)
         1           Na  tau(   1) = (   0.0000000   0.0000000   0.0000000  )
         2           Na  tau(   2) = (   0.4999999   0.2886751   0.8152533  )

     number of k points=   732  Marzari-Vanderbilt smearing, width (Ry)=  0.0200

     Number of k-points >= 100: set verbosity='high' to print them.

     Dense  grid:    46721 G-vectors     FFT dimensions: (  40,  40,  72)

     Smooth grid:    16503 G-vectors     FFT dimensions: (  30,  30,  45)

     Largest allocated arrays     est. size (Mb)     dimensions
        Kohn-Sham Wavefunctions         0.05 Mb     (     276,   13)
        NL pseudopotentials             0.11 Mb     (     276,   26)
        Each V/rho on FFT grid          0.22 Mb     (   14400)
        Each G-vector array             0.04 Mb     (    5844)
        G-vector shells                 0.01 Mb     (    1763)
     Largest temporary arrays     est. size (Mb)     dimensions
        Auxiliary wavefunctions         0.22 Mb     (     276,   52)
        Each subspace H/S matrix        0.01 Mb     (      26,   26)
        Each <psi_i|beta_j> matrix      0.01 Mb     (      26,   13)

     The potential is recalculated from file :
     ./na_hcp_6.993850699385001/_ph0/na_hcp_6.993850699385001.save/charge-density.dat

     Starting wfc are   10 atomic +    3 random wfc

     Band Structure Calculation
     Davidson diagonalization with overlap

     ethr =  5.56E-11,  avg # of iterations = 23.3

     total cpu time spent up to now is       14.6 secs

     End of band structure calculation

     Number of k-points >= 100: set verbosity='high' to print the bands.

     the Fermi energy is     1.7528 ev

     Writing output data file na_hcp_6.993850699385001.save

                                                                                

     bravais-lattice index     =            4
     lattice parameter (alat)  =       6.9939  a.u.
     unit-cell volume          =     483.0613 (a.u.)^3
     number of atoms/cell      =            2
     number of atomic types    =            1
     kinetic-energy cut-off    =      40.0000  Ry
     charge density cut-off    =     320.0000  Ry
     convergence threshold     =      1.0E-15
     beta                      =       0.7000
     number of iterations used =            4
     Exchange-correlation      = SLA  PW   PBE  PBE ( 1  4  3  4 0 0)


     celldm(1)=    6.99385  celldm(2)=    0.00000  celldm(3)=    1.63051
     celldm(4)=    0.00000  celldm(5)=    0.00000  celldm(6)=    0.00000

     crystal axes: (cart. coord. in units of alat)
               a(1) = (  1.0000  0.0000  0.0000 )  
               a(2) = ( -0.5000  0.8660  0.0000 )  
               a(3) = (  0.0000  0.0000  1.6305 )  

     reciprocal axes: (cart. coord. in units 2 pi/alat)
               b(1) = (  1.0000  0.5774  0.0000 )  
               b(2) = (  0.0000  1.1547  0.0000 )  
               b(3) = (  0.0000  0.0000  0.6133 )  


     Atoms inside the unit cell: 

     Cartesian axes

     site n.  atom      mass           positions (alat units)
        1     Na  22.9900   tau(    1) = (    0.00000    0.00000    0.00000  )
        2     Na  22.9900   tau(    2) = (    0.50000    0.28868    0.81525  )

     Computing dynamical matrix for 
                    q = (   0.0000000   0.0000000  -0.3066531 )
 
     13 Sym.Ops. (with q -> -q+G )


     G cutoff =  396.4815  (   5844 G-vectors)     FFT grid: ( 40, 40, 72)
     G cutoff =  198.2408  (   2066 G-vectors)  smooth grid: ( 30, 30, 45)

     number of k points=   732  Marzari-Vanderbilt smearing, width (Ry)=  0.0200

     PseudoPot. # 1 for Na read from file:
     ./Na_pbe_v1.uspp.F.UPF
     MD5 check sum: 76a99c7e9422403d3e93cbc85ab7bccb
     Pseudo is Ultrasoft, Zval =  9.0
     Generated by new atomic code, or converted to UPF format
     Using radial grid of  819 points,  5 beta functions with: 
                l(1) =   0
                l(2) =   0
                l(3) =   1
                l(4) =   1
                l(5) =   2
     Q(r) pseudized with  8 coefficients,  rinner =    1.250   1.250   1.250
                                                       1.250   1.250

     Mode symmetry, D_3h (-62m) point group:


     Atomic displacements:
     There are   4 irreducible representations

     Representation     1      1 modes -A'_1  To be done

     Representation     2      2 modes -E'  To be done

     Representation     3      1 modes -A''2  To be done

     Representation     4      2 modes -E''  To be done



     Alpha used in Ewald sum =   2.8000
     PHONON       :  6m14.09s CPU     7m 5.57s WALL



     Representation #  1 mode #   1

     Self-consistent Calculation

      iter #   1 total cpu time :   426.2 secs   av.it.:   5.7
      thresh= 1.000E-02 alpha_mix =  0.700 |ddv_scf|^2 =  9.742E-04

      iter #   2 total cpu time :   427.0 secs   av.it.:   7.0
      thresh= 3.121E-03 alpha_mix =  0.700 |ddv_scf|^2 =  2.613E-02

      iter #   3 total cpu time :   427.5 secs   av.it.:   5.9
      thresh= 1.000E-02 alpha_mix =  0.700 |ddv_scf|^2 =  7.101E-07

      iter #   4 total cpu time :   427.9 secs   av.it.:   7.9
      thresh= 8.427E-05 alpha_mix =  0.700 |ddv_scf|^2 =  3.484E-09

      iter #   5 total cpu time :   428.5 secs   av.it.:   8.7
      thresh= 5.903E-06 alpha_mix =  0.700 |ddv_scf|^2 =  2.602E-10

      iter #   6 total cpu time :   429.0 secs   av.it.:   8.5
      thresh= 1.613E-06 alpha_mix =  0.700 |ddv_scf|^2 =  6.976E-12

      iter #   7 total cpu time :   429.5 secs   av.it.:   8.9
      thresh= 2.641E-07 alpha_mix =  0.700 |ddv_scf|^2 =  9.634E-13

      iter #   8 total cpu time :   430.2 secs   av.it.:   7.6
      thresh= 9.815E-08 alpha_mix =  0.700 |ddv_scf|^2 =  4.234E-16

     End of self-consistent calculation

     Convergence has been achieved 


     Representation #  2 modes #   2  3

     Self-consistent Calculation

      iter #   1 total cpu time :   432.5 secs   av.it.:   5.2
      thresh= 1.000E-02 alpha_mix =  0.700 |ddv_scf|^2 =  9.387E-07

      iter #   2 total cpu time :   435.2 secs   av.it.:   8.7
      thresh= 9.689E-05 alpha_mix =  0.700 |ddv_scf|^2 =  1.688E-08

      iter #   3 total cpu time :   436.7 secs   av.it.:   9.0
      thresh= 1.299E-05 alpha_mix =  0.700 |ddv_scf|^2 =  4.287E-10

      iter #   4 total cpu time :   439.5 secs   av.it.:   8.5
      thresh= 2.070E-06 alpha_mix =  0.700 |ddv_scf|^2 =  1.431E-12

      iter #   5 total cpu time :   441.4 secs   av.it.:   8.9
      thresh= 1.196E-07 alpha_mix =  0.700 |ddv_scf|^2 =  2.733E-15

      iter #   6 total cpu time :   443.7 secs   av.it.:   8.2
      thresh= 5.228E-09 alpha_mix =  0.700 |ddv_scf|^2 =  9.164E-17

     End of self-consistent calculation

     Convergence has been achieved 


     Representation #  3 mode #   4

     Self-consistent Calculation

      iter #   1 total cpu time :   445.7 secs   av.it.:   5.7
      thresh= 1.000E-02 alpha_mix =  0.700 |ddv_scf|^2 =  9.742E-04

      iter #   2 total cpu time :   447.0 secs   av.it.:   7.0
      thresh= 3.121E-03 alpha_mix =  0.700 |ddv_scf|^2 =  2.613E-02

      iter #   3 total cpu time :   448.6 secs   av.it.:   5.9
      thresh= 1.000E-02 alpha_mix =  0.700 |ddv_scf|^2 =  7.104E-07

      iter #   4 total cpu time :   449.9 secs   av.it.:   7.9
      thresh= 8.429E-05 alpha_mix =  0.700 |ddv_scf|^2 =  3.488E-09

      iter #   5 total cpu time :   451.7 secs   av.it.:   8.7
      thresh= 5.906E-06 alpha_mix =  0.700 |ddv_scf|^2 =  2.602E-10

      iter #   6 total cpu time :   453.6 secs   av.it.:   8.5
      thresh= 1.613E-06 alpha_mix =  0.700 |ddv_scf|^2 =  6.981E-12

      iter #   7 total cpu time :   454.7 secs   av.it.:   8.9
      thresh= 2.642E-07 alpha_mix =  0.700 |ddv_scf|^2 =  9.643E-13

      iter #   8 total cpu time :   456.2 secs   av.it.:   7.6
      thresh= 9.820E-08 alpha_mix =  0.700 |ddv_scf|^2 =  4.222E-16

     End of self-consistent calculation

     Convergence has been achieved 


     Representation #  4 modes #   5  6

     Self-consistent Calculation

      iter #   1 total cpu time :   459.3 secs   av.it.:   5.2
      thresh= 1.000E-02 alpha_mix =  0.700 |ddv_scf|^2 =  9.387E-07

      iter #   2 total cpu time :   461.4 secs   av.it.:   8.7
      thresh= 9.688E-05 alpha_mix =  0.700 |ddv_scf|^2 =  1.688E-08

      iter #   3 total cpu time :   463.4 secs   av.it.:   9.0
      thresh= 1.299E-05 alpha_mix =  0.700 |ddv_scf|^2 =  4.300E-10

      iter #   4 total cpu time :   466.3 secs   av.it.:   8.5
      thresh= 2.074E-06 alpha_mix =  0.700 |ddv_scf|^2 =  1.424E-12

      iter #   5 total cpu time :   468.4 secs   av.it.:   9.0
      thresh= 1.193E-07 alpha_mix =  0.700 |ddv_scf|^2 =  2.741E-15

      iter #   6 total cpu time :   470.5 secs   av.it.:   8.3
      thresh= 5.235E-09 alpha_mix =  0.700 |ddv_scf|^2 =  9.172E-17

     End of self-consistent calculation

     Convergence has been achieved 
 
     Number of q in the star =    1
     List of q in the star:
          1   0.000000000   0.000000000  -0.306653149

     Diagonalizing the dynamical matrix

     q = (    0.000000000   0.000000000  -0.306653149 ) 

 **************************************************************************
     freq (    1) =       1.127514 [THz] =      37.609808 [cm-1]
     freq (    2) =       1.127514 [THz] =      37.609808 [cm-1]
     freq (    3) =       1.159121 [THz] =      38.664110 [cm-1]
     freq (    4) =       1.159121 [THz] =      38.664110 [cm-1]
     freq (    5) =       2.972305 [THz] =      99.145411 [cm-1]
     freq (    6) =       2.973015 [THz] =      99.169120 [cm-1]
 **************************************************************************

     Mode symmetry, D_3h (-62m) point group:

     freq (  1 -  2) =         37.6  [cm-1]   --> E'                 
     freq (  3 -  4) =         38.7  [cm-1]   --> E''                
     freq (  5 -  5) =         99.1  [cm-1]   --> A'_1               
     freq (  6 -  6) =         99.2  [cm-1]   --> A''2               

     Calculation of q =    0.0000000   0.2886751   0.0000000
 
     Parallelization info
     --------------------
     sticks:   dense  smooth     PW     G-vecs:    dense   smooth      PW
     Min         133      68     20                 5835     2056     374
     Max         134      69     22                 5844     2068     381
     Sum        1069     547    169                46721    16503    3015
 


     bravais-lattice index     =            4
     lattice parameter (alat)  =       6.9939  a.u.
     unit-cell volume          =     483.0613 (a.u.)^3
     number of atoms/cell      =            2
     number of atomic types    =            1
     number of electrons       =        18.00
     number of Kohn-Sham states=           13
     kinetic-energy cutoff     =      40.0000  Ry
     charge density cutoff     =     320.0000  Ry
     Exchange-correlation      = SLA  PW   PBE  PBE ( 1  4  3  4 0 0)

     celldm(1)=   6.993851  celldm(2)=   0.000000  celldm(3)=   1.630507
     celldm(4)=   0.000000  celldm(5)=   0.000000  celldm(6)=   0.000000

     crystal axes: (cart. coord. in units of alat)
               a(1) = (   1.000000   0.000000   0.000000 )  
               a(2) = (  -0.500000   0.866025   0.000000 )  
               a(3) = (   0.000000   0.000000   1.630507 )  

     reciprocal axes: (cart. coord. in units 2 pi/alat)
               b(1) = (  1.000000  0.577350  0.000000 )  
               b(2) = (  0.000000  1.154701  0.000000 )  
               b(3) = (  0.000000  0.000000  0.613306 )  


     PseudoPot. # 1 for Na read from file:
     ./Na_pbe_v1.uspp.F.UPF
     MD5 check sum: 76a99c7e9422403d3e93cbc85ab7bccb
     Pseudo is Ultrasoft, Zval =  9.0
     Generated by new atomic code, or converted to UPF format
     Using radial grid of  819 points,  5 beta functions with: 
                l(1) =   0
                l(2) =   0
                l(3) =   1
                l(4) =   1
                l(5) =   2
     Q(r) pseudized with  8 coefficients,  rinner =    1.250   1.250   1.250
                                                       1.250   1.250

     atomic species   valence    mass     pseudopotential
        Na             9.00    22.99000     Na( 1.00)

     12 Sym. Ops. (no inversion) found



   Cartesian axes

     site n.     atom                  positions (alat units)
         1           Na  tau(   1) = (   0.0000000   0.0000000   0.0000000  )
         2           Na  tau(   2) = (   0.4999999   0.2886751   0.8152533  )

     number of k points=  3600  Marzari-Vanderbilt smearing, width (Ry)=  0.0200

     Number of k-points >= 100: set verbosity='high' to print them.

     Dense  grid:    46721 G-vectors     FFT dimensions: (  40,  40,  72)

     Smooth grid:    16503 G-vectors     FFT dimensions: (  30,  30,  45)

     Largest allocated arrays     est. size (Mb)     dimensions
        Kohn-Sham Wavefunctions         0.05 Mb     (     276,   13)
        NL pseudopotentials             0.11 Mb     (     276,   26)
        Each V/rho on FFT grid          0.22 Mb     (   14400)
        Each G-vector array             0.04 Mb     (    5844)
        G-vector shells                 0.01 Mb     (    1733)
     Largest temporary arrays     est. size (Mb)     dimensions
        Auxiliary wavefunctions         0.22 Mb     (     276,   52)
        Each subspace H/S matrix        0.01 Mb     (      26,   26)
        Each <psi_i|beta_j> matrix      0.01 Mb     (      26,   13)

     The potential is recalculated from file :
     ./na_hcp_6.993850699385001/_ph0/na_hcp_6.993850699385001.save/charge-density.dat

     Starting wfc are   10 atomic +    3 random wfc

     Band Structure Calculation
     Davidson diagonalization with overlap

     ethr =  5.56E-11,  avg # of iterations = 22.7

     total cpu time spent up to now is       26.1 secs

     End of band structure calculation

     Number of k-points >= 100: set verbosity='high' to print the bands.

     the Fermi energy is     1.7528 ev

     Writing output data file na_hcp_6.993850699385001.save

                                                                                

     bravais-lattice index     =            4
     lattice parameter (alat)  =       6.9939  a.u.
     unit-cell volume          =     483.0613 (a.u.)^3
     number of atoms/cell      =            2
     number of atomic types    =            1
     kinetic-energy cut-off    =      40.0000  Ry
     charge density cut-off    =     320.0000  Ry
     convergence threshold     =      1.0E-15
     beta                      =       0.7000
     number of iterations used =            4
     Exchange-correlation      = SLA  PW   PBE  PBE ( 1  4  3  4 0 0)


     celldm(1)=    6.99385  celldm(2)=    0.00000  celldm(3)=    1.63051
     celldm(4)=    0.00000  celldm(5)=    0.00000  celldm(6)=    0.00000

     crystal axes: (cart. coord. in units of alat)
               a(1) = (  1.0000  0.0000  0.0000 )  
               a(2) = ( -0.5000  0.8660  0.0000 )  
               a(3) = (  0.0000  0.0000  1.6305 )  

     reciprocal axes: (cart. coord. in units 2 pi/alat)
               b(1) = (  1.0000  0.5774  0.0000 )  
               b(2) = (  0.0000  1.1547  0.0000 )  
               b(3) = (  0.0000  0.0000  0.6133 )  


     Atoms inside the unit cell: 

     Cartesian axes

     site n.  atom      mass           positions (alat units)
        1     Na  22.9900   tau(    1) = (    0.00000    0.00000    0.00000  )
        2     Na  22.9900   tau(    2) = (    0.50000    0.28868    0.81525  )

     Computing dynamical matrix for 
                    q = (   0.0000000   0.2886751   0.0000000 )
 
      4 Sym.Ops. (no q -> -q+G )


     G cutoff =  396.4815  (   5844 G-vectors)     FFT grid: ( 40, 40, 72)
     G cutoff =  198.2408  (   2068 G-vectors)  smooth grid: ( 30, 30, 45)

     number of k points=  3600  Marzari-Vanderbilt smearing, width (Ry)=  0.0200

     PseudoPot. # 1 for Na read from file:
     ./Na_pbe_v1.uspp.F.UPF
     MD5 check sum: 76a99c7e9422403d3e93cbc85ab7bccb
     Pseudo is Ultrasoft, Zval =  9.0
     Generated by new atomic code, or converted to UPF format
     Using radial grid of  819 points,  5 beta functions with: 
                l(1) =   0
                l(2) =   0
                l(3) =   1
                l(4) =   1
                l(5) =   2
     Q(r) pseudized with  8 coefficients,  rinner =    1.250   1.250   1.250
                                                       1.250   1.250

     Mode symmetry, C_2v (mm2)  point group:


     Atomic displacements:
     There are   6 irreducible representations

     Representation     1      1 modes -A_1  D_1  S_1  To be done

     Representation     2      1 modes -A_1  D_1  S_1  To be done

     Representation     3      1 modes -B_1  D_3  S_3  To be done

     Representation     4      1 modes -B_1  D_3  S_3  To be done

     Representation     5      1 modes -B_2  D_4  S_4  To be done

     Representation     6      1 modes -B_2  D_4  S_4  To be done



     Alpha used in Ewald sum =   2.8000
     PHONON       :  7m 8.48s CPU     8m 6.85s WALL



     Representation #  1 mode #   1

     Self-consistent Calculation

      iter #   1 total cpu time :   488.7 secs   av.it.:   5.7
      thresh= 1.000E-02 alpha_mix =  0.700 |ddv_scf|^2 =  7.033E-04

      iter #   2 total cpu time :   494.2 secs   av.it.:   7.2
      thresh= 2.652E-03 alpha_mix =  0.700 |ddv_scf|^2 =  2.488E-02

      iter #   3 total cpu time :   498.6 secs   av.it.:   5.4
      thresh= 1.000E-02 alpha_mix =  0.700 |ddv_scf|^2 =  6.030E-07

      iter #   4 total cpu time :   502.8 secs   av.it.:   8.1
      thresh= 7.765E-05 alpha_mix =  0.700 |ddv_scf|^2 =  3.316E-08

      iter #   5 total cpu time :   507.4 secs   av.it.:   8.2
      thresh= 1.821E-05 alpha_mix =  0.700 |ddv_scf|^2 =  8.220E-10

      iter #   6 total cpu time :   510.5 secs   av.it.:   8.7
      thresh= 2.867E-06 alpha_mix =  0.700 |ddv_scf|^2 =  1.628E-10

      iter #   7 total cpu time :   513.9 secs   av.it.:   7.9
      thresh= 1.276E-06 alpha_mix =  0.700 |ddv_scf|^2 =  1.847E-09

      iter #   8 total cpu time :   517.7 secs   av.it.:   6.5
      thresh= 4.298E-06 alpha_mix =  0.700 |ddv_scf|^2 =  3.667E-12

      iter #   9 total cpu time :   521.4 secs   av.it.:   8.6
      thresh= 1.915E-07 alpha_mix =  0.700 |ddv_scf|^2 =  6.821E-13

      iter #  10 total cpu time :   527.7 secs   av.it.:   7.6
      thresh= 8.259E-08 alpha_mix =  0.700 |ddv_scf|^2 =  2.312E-12

      iter #  11 total cpu time :   532.0 secs   av.it.:   6.9
      thresh= 1.520E-07 alpha_mix =  0.700 |ddv_scf|^2 =  1.994E-15

      iter #  12 total cpu time :   538.2 secs   av.it.:   8.8
      thresh= 4.465E-09 alpha_mix =  0.700 |ddv_scf|^2 =  1.219E-16

     End of self-consistent calculation

     Convergence has been achieved 


     Representation #  2 mode #   2

     Self-consistent Calculation

      iter #   1 total cpu time :   544.3 secs   av.it.:   5.7
      thresh= 1.000E-02 alpha_mix =  0.700 |ddv_scf|^2 =  7.033E-04

      iter #   2 total cpu time :   549.1 secs   av.it.:   7.2
      thresh= 2.652E-03 alpha_mix =  0.700 |ddv_scf|^2 =  2.488E-02

      iter #   3 total cpu time :   553.8 secs   av.it.:   5.4
      thresh= 1.000E-02 alpha_mix =  0.700 |ddv_scf|^2 =  6.030E-07

      iter #   4 total cpu time :   557.0 secs   av.it.:   8.1
      thresh= 7.765E-05 alpha_mix =  0.700 |ddv_scf|^2 =  3.320E-08

      iter #   5 total cpu time :   561.0 secs   av.it.:   8.2
      thresh= 1.822E-05 alpha_mix =  0.700 |ddv_scf|^2 =  8.247E-10

      iter #   6 total cpu time :   568.1 secs   av.it.:   8.7
      thresh= 2.872E-06 alpha_mix =  0.700 |ddv_scf|^2 =  1.737E-10

      iter #   7 total cpu time :   572.2 secs   av.it.:   7.9
      thresh= 1.318E-06 alpha_mix =  0.700 |ddv_scf|^2 =  1.863E-09

      iter #   8 total cpu time :   577.2 secs   av.it.:   6.6
      thresh= 4.316E-06 alpha_mix =  0.700 |ddv_scf|^2 =  3.576E-12

      iter #   9 total cpu time :   582.5 secs   av.it.:   8.6
      thresh= 1.891E-07 alpha_mix =  0.700 |ddv_scf|^2 =  6.847E-13

      iter #  10 total cpu time :   599.5 secs   av.it.:   7.6
      thresh= 8.274E-08 alpha_mix =  0.700 |ddv_scf|^2 =  2.299E-12

      iter #  11 total cpu time :   602.4 secs   av.it.:   6.9
      thresh= 1.516E-07 alpha_mix =  0.700 |ddv_scf|^2 =  1.991E-15

      iter #  12 total cpu time :   605.7 secs   av.it.:   8.8
      thresh= 4.462E-09 alpha_mix =  0.700 |ddv_scf|^2 =  1.212E-16

     End of self-consistent calculation

     Convergence has been achieved 


     Representation #  3 mode #   3

     Self-consistent Calculation

      iter #   1 total cpu time :   608.7 secs   av.it.:   5.3
      thresh= 1.000E-02 alpha_mix =  0.700 |ddv_scf|^2 =  4.074E-06

      iter #   2 total cpu time :   612.0 secs   av.it.:   8.3
      thresh= 2.018E-04 alpha_mix =  0.700 |ddv_scf|^2 =  6.525E-08

      iter #   3 total cpu time :   615.0 secs   av.it.:   8.5
      thresh= 2.554E-05 alpha_mix =  0.700 |ddv_scf|^2 =  2.920E-09

      iter #   4 total cpu time :   618.7 secs   av.it.:   8.1
      thresh= 5.404E-06 alpha_mix =  0.700 |ddv_scf|^2 =  1.750E-11

      iter #   5 total cpu time :   621.6 secs   av.it.:   8.1
      thresh= 4.183E-07 alpha_mix =  0.700 |ddv_scf|^2 =  1.298E-13

      iter #   6 total cpu time :   624.6 secs   av.it.:   8.5
      thresh= 3.603E-08 alpha_mix =  0.700 |ddv_scf|^2 =  4.556E-16

     End of self-consistent calculation

     Convergence has been achieved 


     Representation #  4 mode #   4

     Self-consistent Calculation

      iter #   1 total cpu time :   629.0 secs   av.it.:   5.3
      thresh= 1.000E-02 alpha_mix =  0.700 |ddv_scf|^2 =  4.074E-06

      iter #   2 total cpu time :   632.5 secs   av.it.:   8.3
      thresh= 2.018E-04 alpha_mix =  0.700 |ddv_scf|^2 =  6.529E-08

      iter #   3 total cpu time :   636.6 secs   av.it.:   8.5
      thresh= 2.555E-05 alpha_mix =  0.700 |ddv_scf|^2 =  2.929E-09

      iter #   4 total cpu time :   640.5 secs   av.it.:   8.1
      thresh= 5.412E-06 alpha_mix =  0.700 |ddv_scf|^2 =  1.746E-11

      iter #   5 total cpu time :   644.8 secs   av.it.:   8.1
      thresh= 4.178E-07 alpha_mix =  0.700 |ddv_scf|^2 =  1.294E-13

      iter #   6 total cpu time :   648.2 secs   av.it.:   8.5
      thresh= 3.597E-08 alpha_mix =  0.700 |ddv_scf|^2 =  4.557E-16

     End of self-consistent calculation

     Convergence has been achieved 


     Representation #  5 mode #   5

     Self-consistent Calculation

      iter #   1 total cpu time :   652.6 secs   av.it.:   5.5
      thresh= 1.000E-02 alpha_mix =  0.700 |ddv_scf|^2 =  1.125E-05

      iter #   2 total cpu time :   655.9 secs   av.it.:   8.4
      thresh= 3.354E-04 alpha_mix =  0.700 |ddv_scf|^2 =  2.369E-06

      iter #   3 total cpu time :   658.9 secs   av.it.:   7.6
      thresh= 1.539E-04 alpha_mix =  0.700 |ddv_scf|^2 =  1.373E-08

      iter #   4 total cpu time :   662.3 secs   av.it.:   8.6
      thresh= 1.172E-05 alpha_mix =  0.700 |ddv_scf|^2 =  4.655E-10

      iter #   5 total cpu time :   665.4 secs   av.it.:   8.1
      thresh= 2.158E-06 alpha_mix =  0.700 |ddv_scf|^2 =  2.722E-12

      iter #   6 total cpu time :   669.5 secs   av.it.:   8.5
      thresh= 1.650E-07 alpha_mix =  0.700 |ddv_scf|^2 =  1.420E-14

      iter #   7 total cpu time :   674.7 secs   av.it.:   8.2
      thresh= 1.191E-08 alpha_mix =  0.700 |ddv_scf|^2 =  6.577E-16

     End of self-consistent calculation

     Convergence has been achieved 


     Representation #  6 mode #   6

     Self-consistent Calculation

      iter #   1 total cpu time :   679.6 secs   av.it.:   5.5
      thresh= 1.000E-02 alpha_mix =  0.700 |ddv_scf|^2 =  1.125E-05

      iter #   2 total cpu time :   683.8 secs   av.it.:   8.4
      thresh= 3.354E-04 alpha_mix =  0.700 |ddv_scf|^2 =  2.369E-06

      iter #   3 total cpu time :   688.1 secs   av.it.:   7.6
      thresh= 1.539E-04 alpha_mix =  0.700 |ddv_scf|^2 =  1.373E-08

      iter #   4 total cpu time :   692.5 secs   av.it.:   8.6
      thresh= 1.172E-05 alpha_mix =  0.700 |ddv_scf|^2 =  4.656E-10

      iter #   5 total cpu time :   698.1 secs   av.it.:   8.1
      thresh= 2.158E-06 alpha_mix =  0.700 |ddv_scf|^2 =  2.722E-12

      iter #   6 total cpu time :   702.5 secs   av.it.:   8.5
      thresh= 1.650E-07 alpha_mix =  0.700 |ddv_scf|^2 =  1.419E-14

      iter #   7 total cpu time :   706.2 secs   av.it.:   8.2
      thresh= 1.191E-08 alpha_mix =  0.700 |ddv_scf|^2 =  6.577E-16

     End of self-consistent calculation

     Convergence has been achieved 
 
     Number of q in the star =    3
     List of q in the star:
          1   0.000000000   0.288675135   0.000000000
          2   0.250000000  -0.144337567   0.000000000
          3  -0.250000000  -0.144337567   0.000000000
     In addition there is the -q list: 
          1   0.000000000  -0.288675135   0.000000000
          2  -0.250000000   0.144337567   0.000000000
          3   0.250000000   0.144337567   0.000000000

     Diagonalizing the dynamical matrix

     q = (    0.000000000   0.288675135   0.000000000 ) 

 **************************************************************************
     freq (    1) =       1.162991 [THz] =      38.793195 [cm-1]
     freq (    2) =       1.451037 [THz] =      48.401374 [cm-1]
     freq (    3) =       2.435982 [THz] =      81.255623 [cm-1]
     freq (    4) =       2.600038 [THz] =      86.727920 [cm-1]
     freq (    5) =       3.176611 [THz] =     105.960353 [cm-1]
     freq (    6) =       3.802476 [THz] =     126.836957 [cm-1]
 **************************************************************************

     Mode symmetry, C_2v (mm2)  point group:

     freq (  1 -  1) =         38.8  [cm-1]   --> B_1  D_3  S_3      
     freq (  2 -  2) =         48.4  [cm-1]   --> B_2  D_4  S_4      
     freq (  3 -  3) =         81.3  [cm-1]   --> B_1  D_3  S_3      
     freq (  4 -  4) =         86.7  [cm-1]   --> A_1  D_1  S_1      
     freq (  5 -  5) =        106.0  [cm-1]   --> A_1  D_1  S_1      
     freq (  6 -  6) =        126.8  [cm-1]   --> B_2  D_4  S_4      

     Calculation of q =    0.0000000   0.2886751   0.1533266
 
     Parallelization info
     --------------------
     sticks:   dense  smooth     PW     G-vecs:    dense   smooth      PW
     Min         133      68     21                 5835     2056     377
     Max         134      69     22                 5844     2068     383
     Sum        1069     547    169                46721    16503    3039
 


     bravais-lattice index     =            4
     lattice parameter (alat)  =       6.9939  a.u.
     unit-cell volume          =     483.0613 (a.u.)^3
     number of atoms/cell      =            2
     number of atomic types    =            1
     number of electrons       =        18.00
     number of Kohn-Sham states=           13
     kinetic-energy cutoff     =      40.0000  Ry
     charge density cutoff     =     320.0000  Ry
     Exchange-correlation      = SLA  PW   PBE  PBE ( 1  4  3  4 0 0)

     celldm(1)=   6.993851  celldm(2)=   0.000000  celldm(3)=   1.630507
     celldm(4)=   0.000000  celldm(5)=   0.000000  celldm(6)=   0.000000

     crystal axes: (cart. coord. in units of alat)
               a(1) = (   1.000000   0.000000   0.000000 )  
               a(2) = (  -0.500000   0.866025   0.000000 )  
               a(3) = (   0.000000   0.000000   1.630507 )  

     reciprocal axes: (cart. coord. in units 2 pi/alat)
               b(1) = (  1.000000  0.577350  0.000000 )  
               b(2) = (  0.000000  1.154701  0.000000 )  
               b(3) = (  0.000000  0.000000  0.613306 )  


     PseudoPot. # 1 for Na read from file:
     ./Na_pbe_v1.uspp.F.UPF
     MD5 check sum: 76a99c7e9422403d3e93cbc85ab7bccb
     Pseudo is Ultrasoft, Zval =  9.0
     Generated by new atomic code, or converted to UPF format
     Using radial grid of  819 points,  5 beta functions with: 
                l(1) =   0
                l(2) =   0
                l(3) =   1
                l(4) =   1
                l(5) =   2
     Q(r) pseudized with  8 coefficients,  rinner =    1.250   1.250   1.250
                                                       1.250   1.250

     atomic species   valence    mass     pseudopotential
        Na             9.00    22.99000     Na( 1.00)

     12 Sym. Ops. (no inversion) found



   Cartesian axes

     site n.     atom                  positions (alat units)
         1           Na  tau(   1) = (   0.0000000   0.0000000   0.0000000  )
         2           Na  tau(   2) = (   0.4999999   0.2886751   0.8152533  )

     number of k points=  7200  Marzari-Vanderbilt smearing, width (Ry)=  0.0200

     Number of k-points >= 100: set verbosity='high' to print them.

     Dense  grid:    46721 G-vectors     FFT dimensions: (  40,  40,  72)

     Smooth grid:    16503 G-vectors     FFT dimensions: (  30,  30,  45)

     Largest allocated arrays     est. size (Mb)     dimensions
        Kohn-Sham Wavefunctions         0.05 Mb     (     272,   13)
        NL pseudopotentials             0.11 Mb     (     272,   26)
        Each V/rho on FFT grid          0.22 Mb     (   14400)
        Each G-vector array             0.04 Mb     (    5844)
        G-vector shells                 0.01 Mb     (    1796)
     Largest temporary arrays     est. size (Mb)     dimensions
        Auxiliary wavefunctions         0.22 Mb     (     272,   52)
        Each subspace H/S matrix        0.01 Mb     (      26,   26)
        Each <psi_i|beta_j> matrix      0.01 Mb     (      26,   13)

     The potential is recalculated from file :
     ./na_hcp_6.993850699385001/_ph0/na_hcp_6.993850699385001.save/charge-density.dat

     Starting wfc are   10 atomic +    3 random wfc

     Band Structure Calculation
     Davidson diagonalization with overlap

     ethr =  5.56E-11,  avg # of iterations = 22.7

     total cpu time spent up to now is       52.2 secs

     End of band structure calculation

     Number of k-points >= 100: set verbosity='high' to print the bands.

     the Fermi energy is     1.7528 ev

     Writing output data file na_hcp_6.993850699385001.save

                                                                                

     bravais-lattice index     =            4
     lattice parameter (alat)  =       6.9939  a.u.
     unit-cell volume          =     483.0613 (a.u.)^3
     number of atoms/cell      =            2
     number of atomic types    =            1
     kinetic-energy cut-off    =      40.0000  Ry
     charge density cut-off    =     320.0000  Ry
     convergence threshold     =      1.0E-15
     beta                      =       0.7000
     number of iterations used =            4
     Exchange-correlation      = SLA  PW   PBE  PBE ( 1  4  3  4 0 0)


     celldm(1)=    6.99385  celldm(2)=    0.00000  celldm(3)=    1.63051
     celldm(4)=    0.00000  celldm(5)=    0.00000  celldm(6)=    0.00000

     crystal axes: (cart. coord. in units of alat)
               a(1) = (  1.0000  0.0000  0.0000 )  
               a(2) = ( -0.5000  0.8660  0.0000 )  
               a(3) = (  0.0000  0.0000  1.6305 )  

     reciprocal axes: (cart. coord. in units 2 pi/alat)
               b(1) = (  1.0000  0.5774  0.0000 )  
               b(2) = (  0.0000  1.1547  0.0000 )  
               b(3) = (  0.0000  0.0000  0.6133 )  


     Atoms inside the unit cell: 

     Cartesian axes

     site n.  atom      mass           positions (alat units)
        1     Na  22.9900   tau(    1) = (    0.00000    0.00000    0.00000  )
        2     Na  22.9900   tau(    2) = (    0.50000    0.28868    0.81525  )

     Computing dynamical matrix for 
                    q = (   0.0000000   0.2886751   0.1533266 )
 
      2 Sym.Ops. (no q -> -q+G )


     G cutoff =  396.4815  (   5844 G-vectors)     FFT grid: ( 40, 40, 72)
     G cutoff =  198.2408  (   2064 G-vectors)  smooth grid: ( 30, 30, 45)

     number of k points=  7200  Marzari-Vanderbilt smearing, width (Ry)=  0.0200

     PseudoPot. # 1 for Na read from file:
     ./Na_pbe_v1.uspp.F.UPF
     MD5 check sum: 76a99c7e9422403d3e93cbc85ab7bccb
     Pseudo is Ultrasoft, Zval =  9.0
     Generated by new atomic code, or converted to UPF format
     Using radial grid of  819 points,  5 beta functions with: 
                l(1) =   0
                l(2) =   0
                l(3) =   1
                l(4) =   1
                l(5) =   2
     Q(r) pseudized with  8 coefficients,  rinner =    1.250   1.250   1.250
                                                       1.250   1.250

     Mode symmetry, C_s (m)     point group:


     Atomic displacements:
     There are   6 irreducible representations

     Representation     1      1 modes -A'  To be done

     Representation     2      1 modes -A'  To be done

     Representation     3      1 modes -A'  To be done

     Representation     4      1 modes -A'  To be done

     Representation     5      1 modes -A''  To be done

     Representation     6      1 modes -A''  To be done



     Alpha used in Ewald sum =   2.8000
     PHONON       : 10m54.56s CPU    12m19.95s WALL



     Representation #  1 mode #   1

     Self-consistent Calculation

      iter #   1 total cpu time :   743.2 secs   av.it.:   5.7
      thresh= 1.000E-02 alpha_mix =  0.700 |ddv_scf|^2 =  2.756E-04

      iter #   2 total cpu time :   755.7 secs   av.it.:   7.5
      thresh= 1.660E-03 alpha_mix =  0.700 |ddv_scf|^2 =  5.403E-03

      iter #   3 total cpu time :   765.0 secs   av.it.:   5.4
      thresh= 7.350E-03 alpha_mix =  0.700 |ddv_scf|^2 =  2.476E-06

      iter #   4 total cpu time :   774.4 secs   av.it.:   7.7
      thresh= 1.574E-04 alpha_mix =  0.700 |ddv_scf|^2 =  3.483E-07

      iter #   5 total cpu time :   781.0 secs   av.it.:   7.7
      thresh= 5.902E-05 alpha_mix =  0.700 |ddv_scf|^2 =  1.567E-09

      iter #   6 total cpu time :   790.6 secs   av.it.:   8.7
      thresh= 3.958E-06 alpha_mix =  0.700 |ddv_scf|^2 =  7.764E-11

      iter #   7 total cpu time :   803.6 secs   av.it.:   8.6
      thresh= 8.811E-07 alpha_mix =  0.700 |ddv_scf|^2 =  8.190E-11

      iter #   8 total cpu time :   810.8 secs   av.it.:   7.1
      thresh= 9.050E-07 alpha_mix =  0.700 |ddv_scf|^2 =  4.544E-11

      iter #   9 total cpu time :   820.4 secs   av.it.:   7.6
      thresh= 6.741E-07 alpha_mix =  0.700 |ddv_scf|^2 =  7.463E-13

      iter #  10 total cpu time :   832.9 secs   av.it.:   7.9
      thresh= 8.639E-08 alpha_mix =  0.700 |ddv_scf|^2 =  9.015E-13

      iter #  11 total cpu time :   842.5 secs   av.it.:   7.4
      thresh= 9.495E-08 alpha_mix =  0.700 |ddv_scf|^2 =  7.894E-15

      iter #  12 total cpu time :   848.1 secs   av.it.:   8.4
      thresh= 8.885E-09 alpha_mix =  0.700 |ddv_scf|^2 =  2.843E-15

      iter #  13 total cpu time :   857.0 secs   av.it.:   8.1
      thresh= 5.332E-09 alpha_mix =  0.700 |ddv_scf|^2 =  9.195E-16

     End of self-consistent calculation

     Convergence has been achieved 


     Representation #  2 mode #   2

     Self-consistent Calculation

      iter #   1 total cpu time :   866.8 secs   av.it.:   5.7
      thresh= 1.000E-02 alpha_mix =  0.700 |ddv_scf|^2 =  4.722E-05

      iter #   2 total cpu time :   876.5 secs   av.it.:   7.8
      thresh= 6.872E-04 alpha_mix =  0.700 |ddv_scf|^2 =  5.646E-04

      iter #   3 total cpu time :   883.5 secs   av.it.:   5.8
      thresh= 2.376E-03 alpha_mix =  0.700 |ddv_scf|^2 =  1.823E-05

      iter #   4 total cpu time :   893.2 secs   av.it.:   7.1
      thresh= 4.270E-04 alpha_mix =  0.700 |ddv_scf|^2 =  8.612E-08

      iter #   5 total cpu time :   901.9 secs   av.it.:   8.5
      thresh= 2.935E-05 alpha_mix =  0.700 |ddv_scf|^2 =  9.858E-10

      iter #   6 total cpu time :   910.9 secs   av.it.:   8.8
      thresh= 3.140E-06 alpha_mix =  0.700 |ddv_scf|^2 =  8.182E-11

      iter #   7 total cpu time :   917.0 secs   av.it.:   8.7
      thresh= 9.045E-07 alpha_mix =  0.700 |ddv_scf|^2 =  5.704E-11

      iter #   8 total cpu time :   926.9 secs   av.it.:   7.7
      thresh= 7.552E-07 alpha_mix =  0.700 |ddv_scf|^2 =  1.864E-10

      iter #   9 total cpu time :   936.4 secs   av.it.:   6.9
      thresh= 1.365E-06 alpha_mix =  0.700 |ddv_scf|^2 =  4.731E-12

      iter #  10 total cpu time :   946.0 secs   av.it.:   7.6
      thresh= 2.175E-07 alpha_mix =  0.700 |ddv_scf|^2 =  3.532E-12

      iter #  11 total cpu time :   951.9 secs   av.it.:   7.6
      thresh= 1.879E-07 alpha_mix =  0.700 |ddv_scf|^2 =  1.829E-14

      iter #  12 total cpu time :   959.0 secs   av.it.:   8.1
      thresh= 1.352E-08 alpha_mix =  0.700 |ddv_scf|^2 =  3.423E-15

      iter #  13 total cpu time :   967.7 secs   av.it.:   8.6
      thresh= 5.851E-09 alpha_mix =  0.700 |ddv_scf|^2 =  7.816E-17

     End of self-consistent calculation

     Convergence has been achieved 


     Representation #  3 mode #   3

     Self-consistent Calculation

      iter #   1 total cpu time :   976.3 secs   av.it.:   5.8
      thresh= 1.000E-02 alpha_mix =  0.700 |ddv_scf|^2 =  3.157E-04

      iter #   2 total cpu time :   985.3 secs   av.it.:   7.5
      thresh= 1.777E-03 alpha_mix =  0.700 |ddv_scf|^2 =  6.272E-03

      iter #   3 total cpu time :  1002.5 secs   av.it.:   5.4
      thresh= 7.920E-03 alpha_mix =  0.700 |ddv_scf|^2 =  8.096E-07

      iter #   4 total cpu time :  1014.3 secs   av.it.:   7.9
      thresh= 8.998E-05 alpha_mix =  0.700 |ddv_scf|^2 =  3.648E-07

      iter #   5 total cpu time :  1021.0 secs   av.it.:   7.6
      thresh= 6.040E-05 alpha_mix =  0.700 |ddv_scf|^2 =  1.932E-09

      iter #   6 total cpu time :  1032.8 secs   av.it.:   8.7
      thresh= 4.395E-06 alpha_mix =  0.700 |ddv_scf|^2 =  9.396E-11

      iter #   7 total cpu time :  1042.8 secs   av.it.:   8.5
      thresh= 9.693E-07 alpha_mix =  0.700 |ddv_scf|^2 =  2.815E-12

      iter #   8 total cpu time :  1053.6 secs   av.it.:   8.9
      thresh= 1.678E-07 alpha_mix =  0.700 |ddv_scf|^2 =  9.243E-12

      iter #   9 total cpu time :  1064.3 secs   av.it.:   7.2
      thresh= 3.040E-07 alpha_mix =  0.700 |ddv_scf|^2 =  3.017E-12

      iter #  10 total cpu time :  1071.7 secs   av.it.:   7.6
      thresh= 1.737E-07 alpha_mix =  0.700 |ddv_scf|^2 =  4.344E-13

      iter #  11 total cpu time :  1080.3 secs   av.it.:   7.2
      thresh= 6.591E-08 alpha_mix =  0.700 |ddv_scf|^2 =  2.357E-14

      iter #  12 total cpu time :  1089.2 secs   av.it.:   8.0
      thresh= 1.535E-08 alpha_mix =  0.700 |ddv_scf|^2 =  1.236E-15

      iter #  13 total cpu time :  1096.8 secs   av.it.:   8.1
      thresh= 3.515E-09 alpha_mix =  0.700 |ddv_scf|^2 =  2.128E-16

     End of self-consistent calculation

     Convergence has been achieved 


     Representation #  4 mode #   4

     Self-consistent Calculation

      iter #   1 total cpu time :  1106.0 secs   av.it.:   5.7
      thresh= 1.000E-02 alpha_mix =  0.700 |ddv_scf|^2 =  8.723E-05

      iter #   2 total cpu time :  1116.1 secs   av.it.:   7.8
      thresh= 9.340E-04 alpha_mix =  0.700 |ddv_scf|^2 =  1.433E-03

      iter #   3 total cpu time :  1124.5 secs   av.it.:   5.6
      thresh= 3.786E-03 alpha_mix =  0.700 |ddv_scf|^2 =  9.074E-06

      iter #   4 total cpu time :  1133.9 secs   av.it.:   7.4
      thresh= 3.012E-04 alpha_mix =  0.700 |ddv_scf|^2 =  1.362E-07

      iter #   5 total cpu time :  1142.1 secs   av.it.:   8.1
      thresh= 3.691E-05 alpha_mix =  0.700 |ddv_scf|^2 =  1.122E-09

      iter #   6 total cpu time :  1159.7 secs   av.it.:   8.8
      thresh= 3.349E-06 alpha_mix =  0.700 |ddv_scf|^2 =  9.575E-11

      iter #   7 total cpu time :  1169.8 secs   av.it.:   8.7
      thresh= 9.785E-07 alpha_mix =  0.700 |ddv_scf|^2 =  3.540E-11

      iter #   8 total cpu time :  1178.9 secs   av.it.:   8.0
      thresh= 5.950E-07 alpha_mix =  0.700 |ddv_scf|^2 =  2.863E-10

      iter #   9 total cpu time :  1186.7 secs   av.it.:   6.6
      thresh= 1.692E-06 alpha_mix =  0.700 |ddv_scf|^2 =  3.948E-12

      iter #  10 total cpu time :  1194.5 secs   av.it.:   7.7
      thresh= 1.987E-07 alpha_mix =  0.700 |ddv_scf|^2 =  3.639E-12

      iter #  11 total cpu time :  1204.2 secs   av.it.:   7.5
      thresh= 1.908E-07 alpha_mix =  0.700 |ddv_scf|^2 =  1.456E-14

      iter #  12 total cpu time :  1214.3 secs   av.it.:   8.3
      thresh= 1.206E-08 alpha_mix =  0.700 |ddv_scf|^2 =  3.768E-15

      iter #  13 total cpu time :  1221.9 secs   av.it.:   8.4
      thresh= 6.138E-09 alpha_mix =  0.700 |ddv_scf|^2 =  9.936E-17

     End of self-consistent calculation

     Convergence has been achieved 


     Representation #  5 mode #   5

     Self-consistent Calculation

      iter #   1 total cpu time :  1230.5 secs   av.it.:   5.3
      thresh= 1.000E-02 alpha_mix =  0.700 |ddv_scf|^2 =  4.065E-06

      iter #   2 total cpu time :  1255.6 secs   av.it.:   8.3
      thresh= 2.016E-04 alpha_mix =  0.700 |ddv_scf|^2 =  6.503E-08

      iter #   3 total cpu time :  1265.3 secs   av.it.:   8.5
      thresh= 2.550E-05 alpha_mix =  0.700 |ddv_scf|^2 =  2.934E-09

      iter #   4 total cpu time :  1273.3 secs   av.it.:   8.0
      thresh= 5.417E-06 alpha_mix =  0.700 |ddv_scf|^2 =  1.356E-11

      iter #   5 total cpu time :  1280.9 secs   av.it.:   8.3
      thresh= 3.683E-07 alpha_mix =  0.700 |ddv_scf|^2 =  9.681E-14

      iter #   6 total cpu time :  1289.1 secs   av.it.:   8.5
      thresh= 3.111E-08 alpha_mix =  0.700 |ddv_scf|^2 =  4.354E-16

     End of self-consistent calculation

     Convergence has been achieved 


     Representation #  6 mode #   6

     Self-consistent Calculation

      iter #   1 total cpu time :  1297.2 secs   av.it.:   5.3
      thresh= 1.000E-02 alpha_mix =  0.700 |ddv_scf|^2 =  4.065E-06

      iter #   2 total cpu time :  1303.9 secs   av.it.:   8.3
      thresh= 2.016E-04 alpha_mix =  0.700 |ddv_scf|^2 =  6.507E-08

      iter #   3 total cpu time :  1312.0 secs   av.it.:   8.5
      thresh= 2.551E-05 alpha_mix =  0.700 |ddv_scf|^2 =  2.943E-09

      iter #   4 total cpu time :  1319.7 secs   av.it.:   8.0
      thresh= 5.425E-06 alpha_mix =  0.700 |ddv_scf|^2 =  1.352E-11

      iter #   5 total cpu time :  1327.9 secs   av.it.:   8.3
      thresh= 3.677E-07 alpha_mix =  0.700 |ddv_scf|^2 =  9.659E-14

      iter #   6 total cpu time :  1334.3 secs   av.it.:   8.5
      thresh= 3.108E-08 alpha_mix =  0.700 |ddv_scf|^2 =  4.355E-16

     End of self-consistent calculation

     Convergence has been achieved 
 
     Number of q in the star =    6
     List of q in the star:
          1   0.000000000   0.288675135   0.153326575
          2   0.000000000   0.288675135  -0.153326575
          3   0.250000000  -0.144337567   0.153326575
          4  -0.250000000  -0.144337567   0.153326575
          5   0.250000000  -0.144337567  -0.153326575
          6  -0.250000000  -0.144337567  -0.153326575
     In addition there is the -q list: 
          1   0.000000000  -0.288675135  -0.153326575
          2   0.000000000  -0.288675135   0.153326575
          3  -0.250000000   0.144337567  -0.153326575
          4   0.250000000   0.144337567  -0.153326575
          5  -0.250000000   0.144337567   0.153326575
          6   0.250000000   0.144337567   0.153326575

     Diagonalizing the dynamical matrix

     q = (    0.000000000   0.288675135   0.153326575 ) 

 **************************************************************************
     freq (    1) =       1.414233 [THz] =      47.173745 [cm-1]
     freq (    2) =       1.670344 [THz] =      55.716674 [cm-1]
     freq (    3) =       2.303742 [THz] =      76.844576 [cm-1]
     freq (    4) =       2.856018 [THz] =      95.266503 [cm-1]
     freq (    5) =       2.972945 [THz] =      99.166763 [cm-1]
     freq (    6) =       3.705553 [THz] =     123.603957 [cm-1]
 **************************************************************************

     Mode symmetry, C_s (m)     point group:

     freq (  1 -  1) =         47.2  [cm-1]   --> A''                
     freq (  2 -  2) =         55.7  [cm-1]   --> A'                 
     freq (  3 -  3) =         76.8  [cm-1]   --> A''                
     freq (  4 -  4) =         95.3  [cm-1]   --> A'                 
     freq (  5 -  5) =         99.2  [cm-1]   --> A'                 
     freq (  6 -  6) =        123.6  [cm-1]   --> A'                 

     Calculation of q =    0.0000000   0.2886751  -0.3066531
 
     Parallelization info
     --------------------
     sticks:   dense  smooth     PW     G-vecs:    dense   smooth      PW
     Min         133      68     20                 5835     2056     374
     Max         134      69     22                 5844     2068     381
     Sum        1069     547    169                46721    16503    3015
 


     bravais-lattice index     =            4
     lattice parameter (alat)  =       6.9939  a.u.
     unit-cell volume          =     483.0613 (a.u.)^3
     number of atoms/cell      =            2
     number of atomic types    =            1
     number of electrons       =        18.00
     number of Kohn-Sham states=           13
     kinetic-energy cutoff     =      40.0000  Ry
     charge density cutoff     =     320.0000  Ry
     Exchange-correlation      = SLA  PW   PBE  PBE ( 1  4  3  4 0 0)

     celldm(1)=   6.993851  celldm(2)=   0.000000  celldm(3)=   1.630507
     celldm(4)=   0.000000  celldm(5)=   0.000000  celldm(6)=   0.000000

     crystal axes: (cart. coord. in units of alat)
               a(1) = (   1.000000   0.000000   0.000000 )  
               a(2) = (  -0.500000   0.866025   0.000000 )  
               a(3) = (   0.000000   0.000000   1.630507 )  

     reciprocal axes: (cart. coord. in units 2 pi/alat)
               b(1) = (  1.000000  0.577350  0.000000 )  
               b(2) = (  0.000000  1.154701  0.000000 )  
               b(3) = (  0.000000  0.000000  0.613306 )  


     PseudoPot. # 1 for Na read from file:
     ./Na_pbe_v1.uspp.F.UPF
     MD5 check sum: 76a99c7e9422403d3e93cbc85ab7bccb
     Pseudo is Ultrasoft, Zval =  9.0
     Generated by new atomic code, or converted to UPF format
     Using radial grid of  819 points,  5 beta functions with: 
                l(1) =   0
                l(2) =   0
                l(3) =   1
                l(4) =   1
                l(5) =   2
     Q(r) pseudized with  8 coefficients,  rinner =    1.250   1.250   1.250
                                                       1.250   1.250

     atomic species   valence    mass     pseudopotential
        Na             9.00    22.99000     Na( 1.00)

     12 Sym. Ops. (no inversion) found



   Cartesian axes

     site n.     atom                  positions (alat units)
         1           Na  tau(   1) = (   0.0000000   0.0000000   0.0000000  )
         2           Na  tau(   2) = (   0.4999999   0.2886751   0.8152533  )

     number of k points=  3600  Marzari-Vanderbilt smearing, width (Ry)=  0.0200

     Number of k-points >= 100: set verbosity='high' to print them.

     Dense  grid:    46721 G-vectors     FFT dimensions: (  40,  40,  72)

     Smooth grid:    16503 G-vectors     FFT dimensions: (  30,  30,  45)

     Largest allocated arrays     est. size (Mb)     dimensions
        Kohn-Sham Wavefunctions         0.05 Mb     (     276,   13)
        NL pseudopotentials             0.11 Mb     (     276,   26)
        Each V/rho on FFT grid          0.22 Mb     (   14400)
        Each G-vector array             0.04 Mb     (    5844)
        G-vector shells                 0.01 Mb     (    1733)
     Largest temporary arrays     est. size (Mb)     dimensions
        Auxiliary wavefunctions         0.22 Mb     (     276,   52)
        Each subspace H/S matrix        0.01 Mb     (      26,   26)
        Each <psi_i|beta_j> matrix      0.01 Mb     (      26,   13)

     The potential is recalculated from file :
     ./na_hcp_6.993850699385001/_ph0/na_hcp_6.993850699385001.save/charge-density.dat

     Starting wfc are   10 atomic +    3 random wfc

     Band Structure Calculation
     Davidson diagonalization with overlap

     ethr =  5.56E-11,  avg # of iterations = 22.7

     total cpu time spent up to now is       72.1 secs

     End of band structure calculation

     Number of k-points >= 100: set verbosity='high' to print the bands.

     the Fermi energy is     1.7528 ev

     Writing output data file na_hcp_6.993850699385001.save

                                                                                

     bravais-lattice index     =            4
     lattice parameter (alat)  =       6.9939  a.u.
     unit-cell volume          =     483.0613 (a.u.)^3
     number of atoms/cell      =            2
     number of atomic types    =            1
     kinetic-energy cut-off    =      40.0000  Ry
     charge density cut-off    =     320.0000  Ry
     convergence threshold     =      1.0E-15
     beta                      =       0.7000
     number of iterations used =            4
     Exchange-correlation      = SLA  PW   PBE  PBE ( 1  4  3  4 0 0)


     celldm(1)=    6.99385  celldm(2)=    0.00000  celldm(3)=    1.63051
     celldm(4)=    0.00000  celldm(5)=    0.00000  celldm(6)=    0.00000

     crystal axes: (cart. coord. in units of alat)
               a(1) = (  1.0000  0.0000  0.0000 )  
               a(2) = ( -0.5000  0.8660  0.0000 )  
               a(3) = (  0.0000  0.0000  1.6305 )  

     reciprocal axes: (cart. coord. in units 2 pi/alat)
               b(1) = (  1.0000  0.5774  0.0000 )  
               b(2) = (  0.0000  1.1547  0.0000 )  
               b(3) = (  0.0000  0.0000  0.6133 )  


     Atoms inside the unit cell: 

     Cartesian axes

     site n.  atom      mass           positions (alat units)
[...]
         1           Na  tau(   1) = (   0.0000000   0.0000000   0.0000000  )
         2           Na  tau(   2) = (   0.4999999   0.2886751   0.8152533  )

     number of k points=  6912  Marzari-Vanderbilt smearing, width (Ry)=  0.0200

     Number of k-points >= 100: set verbosity='high' to print them.

     Dense  grid:    46721 G-vectors     FFT dimensions: (  40,  40,  72)

     Smooth grid:    16503 G-vectors     FFT dimensions: (  30,  30,  45)

     Largest allocated arrays     est. size (Mb)     dimensions
        Kohn-Sham Wavefunctions         0.05 Mb     (     275,   13)
        NL pseudopotentials             0.11 Mb     (     275,   26)
        Each V/rho on FFT grid          0.22 Mb     (   14400)
        Each G-vector array             0.04 Mb     (    5844)
        G-vector shells                 0.01 Mb     (    1671)
     Largest temporary arrays     est. size (Mb)     dimensions
        Auxiliary wavefunctions         0.22 Mb     (     275,   52)
        Each subspace H/S matrix        0.01 Mb     (      26,   26)
        Each <psi_i|beta_j> matrix      0.01 Mb     (      26,   13)

     The potential is recalculated from file :
     ./na_hcp_6.993850699385001/_ph0/na_hcp_6.993850699385001.save/charge-density.dat

     Starting wfc are   10 atomic +    3 random wfc

     Band Structure Calculation
     Davidson diagonalization with overlap

     ethr =  5.56E-11,  avg # of iterations = 22.4

     total cpu time spent up to now is      248.2 secs

     End of band structure calculation

     Number of k-points >= 100: set verbosity='high' to print the bands.

     the Fermi energy is     1.7528 ev

     Writing output data file na_hcp_6.993850699385001.save

                                                                                

     bravais-lattice index     =            4
     lattice parameter (alat)  =       6.9939  a.u.
     unit-cell volume          =     483.0613 (a.u.)^3
     number of atoms/cell      =            2
     number of atomic types    =            1
     kinetic-energy cut-off    =      40.0000  Ry
     charge density cut-off    =     320.0000  Ry
     convergence threshold     =      1.0E-15
     beta                      =       0.7000
     number of iterations used =            4
     Exchange-correlation      = SLA  PW   PBE  PBE ( 1  4  3  4 0 0)


     celldm(1)=    6.99385  celldm(2)=    0.00000  celldm(3)=    1.63051
     celldm(4)=    0.00000  celldm(5)=    0.00000  celldm(6)=    0.00000

     crystal axes: (cart. coord. in units of alat)
               a(1) = (  1.0000  0.0000  0.0000 )  
               a(2) = ( -0.5000  0.8660  0.0000 )  
               a(3) = (  0.0000  0.0000  1.6305 )  

     reciprocal axes: (cart. coord. in units 2 pi/alat)
               b(1) = (  1.0000  0.5774  0.0000 )  
               b(2) = (  0.0000  1.1547  0.0000 )  
               b(3) = (  0.0000  0.0000  0.6133 )  


     Atoms inside the unit cell: 

     Cartesian axes

     site n.  atom      mass           positions (alat units)
        1     Na  22.9900   tau(    1) = (    0.00000    0.00000    0.00000  )
        2     Na  22.9900   tau(    2) = (    0.50000    0.28868    0.81525  )

     Computing dynamical matrix for 
                    q = (   0.2500000   0.4330127  -0.3066531 )
 
      2 Sym.Ops. (no q -> -q+G )


     G cutoff =  396.4815  (   5844 G-vectors)     FFT grid: ( 40, 40, 72)
     G cutoff =  198.2408  (   2064 G-vectors)  smooth grid: ( 30, 30, 45)

     number of k points=  6912  Marzari-Vanderbilt smearing, width (Ry)=  0.0200

     PseudoPot. # 1 for Na read from file:
     ./Na_pbe_v1.uspp.F.UPF
     MD5 check sum: 76a99c7e9422403d3e93cbc85ab7bccb
     Pseudo is Ultrasoft, Zval =  9.0
     Generated by new atomic code, or converted to UPF format
     Using radial grid of  819 points,  5 beta functions with: 
                l(1) =   0
                l(2) =   0
                l(3) =   1
                l(4) =   1
                l(5) =   2
     Q(r) pseudized with  8 coefficients,  rinner =    1.250   1.250   1.250
                                                       1.250   1.250

     Mode symmetry, C_s (m)     point group:


     Atomic displacements:
     There are   6 irreducible representations

     Representation     1      1 modes -A'  To be done

     Representation     2      1 modes -A'  To be done

     Representation     3      1 modes -A'  To be done

     Representation     4      1 modes -A''  To be done

     Representation     5      1 modes -A''  To be done

     Representation     6      1 modes -A''  To be done



     Alpha used in Ewald sum =   2.8000
     PHONON       :     1h 0m CPU        1h 6m WALL



     Representation #  1 mode #   1

     Self-consistent Calculation

      iter #   1 total cpu time :  4009.7 secs   av.it.:   5.7
      thresh= 1.000E-02 alpha_mix =  0.700 |ddv_scf|^2 =  1.999E-05

      iter #   2 total cpu time :  4017.6 secs   av.it.:   8.4
      thresh= 4.471E-04 alpha_mix =  0.700 |ddv_scf|^2 =  1.230E-05

      iter #   3 total cpu time :  4040.7 secs   av.it.:   7.7
      thresh= 3.508E-04 alpha_mix =  0.700 |ddv_scf|^2 =  4.107E-08

      iter #   4 total cpu time :  4050.4 secs   av.it.:   8.8
      thresh= 2.027E-05 alpha_mix =  0.700 |ddv_scf|^2 =  1.560E-09

      iter #   5 total cpu time :  4058.0 secs   av.it.:   8.9
      thresh= 3.950E-06 alpha_mix =  0.700 |ddv_scf|^2 =  7.600E-11

      iter #   6 total cpu time :  4066.5 secs   av.it.:   9.0
      thresh= 8.718E-07 alpha_mix =  0.700 |ddv_scf|^2 =  5.510E-12

      iter #   7 total cpu time :  4074.8 secs   av.it.:   8.8
      thresh= 2.347E-07 alpha_mix =  0.700 |ddv_scf|^2 =  3.936E-14

      iter #   8 total cpu time :  4084.5 secs   av.it.:   8.8
      thresh= 1.984E-08 alpha_mix =  0.700 |ddv_scf|^2 =  1.018E-15

      iter #   9 total cpu time :  4093.7 secs   av.it.:   8.5
      thresh= 3.191E-09 alpha_mix =  0.700 |ddv_scf|^2 =  1.071E-16

     End of self-consistent calculation

     Convergence has been achieved 


     Representation #  2 mode #   2

     Self-consistent Calculation

      iter #   1 total cpu time :  4104.3 secs   av.it.:   5.6
      thresh= 1.000E-02 alpha_mix =  0.700 |ddv_scf|^2 =  1.079E-05

      iter #   2 total cpu time :  4110.8 secs   av.it.:   8.6
      thresh= 3.286E-04 alpha_mix =  0.700 |ddv_scf|^2 =  5.264E-06

      iter #   3 total cpu time :  4119.6 secs   av.it.:   7.8
      thresh= 2.294E-04 alpha_mix =  0.700 |ddv_scf|^2 =  6.480E-08

      iter #   4 total cpu time :  4131.1 secs   av.it.:   8.6
      thresh= 2.546E-05 alpha_mix =  0.700 |ddv_scf|^2 =  1.337E-09

      iter #   5 total cpu time :  4141.3 secs   av.it.:   8.7
      thresh= 3.657E-06 alpha_mix =  0.700 |ddv_scf|^2 =  1.121E-10

      iter #   6 total cpu time :  4148.4 secs   av.it.:   8.7
      thresh= 1.059E-06 alpha_mix =  0.700 |ddv_scf|^2 =  3.427E-12

      iter #   7 total cpu time :  4164.0 secs   av.it.:   9.1
      thresh= 1.851E-07 alpha_mix =  0.700 |ddv_scf|^2 =  7.052E-14

      iter #   8 total cpu time :  4174.8 secs   av.it.:   8.9
      thresh= 2.656E-08 alpha_mix =  0.700 |ddv_scf|^2 =  4.266E-15

      iter #   9 total cpu time :  4181.4 secs   av.it.:   8.9
      thresh= 6.531E-09 alpha_mix =  0.700 |ddv_scf|^2 =  1.671E-16

     End of self-consistent calculation

     Convergence has been achieved 


     Representation #  3 mode #   3

     Self-consistent Calculation

      iter #   1 total cpu time :  4190.9 secs   av.it.:   5.7
      thresh= 1.000E-02 alpha_mix =  0.700 |ddv_scf|^2 =  7.777E-06

      iter #   2 total cpu time :  4199.5 secs   av.it.:   8.6
      thresh= 2.789E-04 alpha_mix =  0.700 |ddv_scf|^2 =  1.358E-06

      iter #   3 total cpu time :  4208.6 secs   av.it.:   7.9
      thresh= 1.165E-04 alpha_mix =  0.700 |ddv_scf|^2 =  1.889E-07

      iter #   4 total cpu time :  4216.4 secs   av.it.:   8.0
      thresh= 4.347E-05 alpha_mix =  0.700 |ddv_scf|^2 =  2.625E-09

      iter #   5 total cpu time :  4232.0 secs   av.it.:   8.7
      thresh= 5.124E-06 alpha_mix =  0.700 |ddv_scf|^2 =  4.624E-11

      iter #   6 total cpu time :  4250.4 secs   av.it.:   8.7
      thresh= 6.800E-07 alpha_mix =  0.700 |ddv_scf|^2 =  1.966E-12

      iter #   7 total cpu time :  4260.8 secs   av.it.:   9.2
      thresh= 1.402E-07 alpha_mix =  0.700 |ddv_scf|^2 =  9.129E-14

      iter #   8 total cpu time :  4269.6 secs   av.it.:   9.2
      thresh= 3.021E-08 alpha_mix =  0.700 |ddv_scf|^2 =  9.182E-16

     End of self-consistent calculation

     Convergence has been achieved 


     Representation #  4 mode #   4

     Self-consistent Calculation

      iter #   1 total cpu time :  4280.3 secs   av.it.:   5.6
      thresh= 1.000E-02 alpha_mix =  0.700 |ddv_scf|^2 =  7.943E-06

      iter #   2 total cpu time :  4287.7 secs   av.it.:   8.7
      thresh= 2.818E-04 alpha_mix =  0.700 |ddv_scf|^2 =  1.518E-06

      iter #   3 total cpu time :  4295.2 secs   av.it.:   7.9
      thresh= 1.232E-04 alpha_mix =  0.700 |ddv_scf|^2 =  1.899E-07

      iter #   4 total cpu time :  4304.3 secs   av.it.:   8.0
      thresh= 4.358E-05 alpha_mix =  0.700 |ddv_scf|^2 =  2.538E-09

      iter #   5 total cpu time :  4312.3 secs   av.it.:   8.7
      thresh= 5.037E-06 alpha_mix =  0.700 |ddv_scf|^2 =  4.697E-11

      iter #   6 total cpu time :  4320.1 secs   av.it.:   8.7
      thresh= 6.854E-07 alpha_mix =  0.700 |ddv_scf|^2 =  2.139E-12

      iter #   7 total cpu time :  4329.4 secs   av.it.:   9.2
      thresh= 1.463E-07 alpha_mix =  0.700 |ddv_scf|^2 =  9.676E-14

      iter #   8 total cpu time :  4338.3 secs   av.it.:   9.2
      thresh= 3.111E-08 alpha_mix =  0.700 |ddv_scf|^2 =  9.409E-16

     End of self-consistent calculation

     Convergence has been achieved 


     Representation #  5 mode #   5

     Self-consistent Calculation

      iter #   1 total cpu time :  4348.3 secs   av.it.:   5.6
      thresh= 1.000E-02 alpha_mix =  0.700 |ddv_scf|^2 =  1.080E-05

      iter #   2 total cpu time :  4356.1 secs   av.it.:   8.6
      thresh= 3.286E-04 alpha_mix =  0.700 |ddv_scf|^2 =  5.265E-06

      iter #   3 total cpu time :  4365.3 secs   av.it.:   7.8
      thresh= 2.295E-04 alpha_mix =  0.700 |ddv_scf|^2 =  6.479E-08

      iter #   4 total cpu time :  4374.8 secs   av.it.:   8.6
      thresh= 2.545E-05 alpha_mix =  0.700 |ddv_scf|^2 =  1.339E-09

      iter #   5 total cpu time :  4384.3 secs   av.it.:   8.7
      thresh= 3.659E-06 alpha_mix =  0.700 |ddv_scf|^2 =  1.123E-10

      iter #   6 total cpu time :  4391.8 secs   av.it.:   8.7
      thresh= 1.059E-06 alpha_mix =  0.700 |ddv_scf|^2 =  3.430E-12

      iter #   7 total cpu time :  4400.6 secs   av.it.:   9.1
      thresh= 1.852E-07 alpha_mix =  0.700 |ddv_scf|^2 =  7.057E-14

      iter #   8 total cpu time :  4409.0 secs   av.it.:   8.9
      thresh= 2.656E-08 alpha_mix =  0.700 |ddv_scf|^2 =  4.268E-15

      iter #   9 total cpu time :  4417.1 secs   av.it.:   8.9
      thresh= 6.533E-09 alpha_mix =  0.700 |ddv_scf|^2 =  1.676E-16

     End of self-consistent calculation

     Convergence has been achieved 


     Representation #  6 mode #   6

     Self-consistent Calculation

      iter #   1 total cpu time :  4425.6 secs   av.it.:   5.7
      thresh= 1.000E-02 alpha_mix =  0.700 |ddv_scf|^2 =  1.982E-05

      iter #   2 total cpu time :  4433.5 secs   av.it.:   8.4
      thresh= 4.452E-04 alpha_mix =  0.700 |ddv_scf|^2 =  1.215E-05

      iter #   3 total cpu time :  4442.8 secs   av.it.:   7.7
      thresh= 3.485E-04 alpha_mix =  0.700 |ddv_scf|^2 =  4.178E-08

      iter #   4 total cpu time :  4452.5 secs   av.it.:   8.8
      thresh= 2.044E-05 alpha_mix =  0.700 |ddv_scf|^2 =  1.580E-09

      iter #   5 total cpu time :  4460.0 secs   av.it.:   8.9
      thresh= 3.975E-06 alpha_mix =  0.700 |ddv_scf|^2 =  7.532E-11

      iter #   6 total cpu time :  4470.9 secs   av.it.:   9.0
      thresh= 8.679E-07 alpha_mix =  0.700 |ddv_scf|^2 =  5.523E-12

      iter #   7 total cpu time :  4488.3 secs   av.it.:   8.8
      thresh= 2.350E-07 alpha_mix =  0.700 |ddv_scf|^2 =  3.948E-14

      iter #   8 total cpu time :  4502.8 secs   av.it.:   8.8
      thresh= 1.987E-08 alpha_mix =  0.700 |ddv_scf|^2 =  1.057E-15

      iter #   9 total cpu time :  4512.9 secs   av.it.:   8.6
      thresh= 3.252E-09 alpha_mix =  0.700 |ddv_scf|^2 =  1.030E-16

     End of self-consistent calculation

     Convergence has been achieved 
 
     Number of q in the star =    6
     List of q in the star:
          1   0.250000000   0.433012702  -0.306653149
          2  -0.250000000   0.433012702  -0.306653149
          3   0.250000000  -0.433012702  -0.306653149
          4  -0.500000000   0.000000000  -0.306653149
          5   0.500000000  -0.000000000  -0.306653149
          6  -0.250000000  -0.433012702  -0.306653149

     Diagonalizing the dynamical matrix

     q = (    0.250000000   0.433012702  -0.306653149 ) 

 **************************************************************************
     freq (    1) =       2.070068 [THz] =      69.050046 [cm-1]
     freq (    2) =       2.077081 [THz] =      69.283980 [cm-1]
     freq (    3) =       3.107714 [THz] =     103.662179 [cm-1]
     freq (    4) =       3.114780 [THz] =     103.897864 [cm-1]
     freq (    5) =       3.852059 [THz] =     128.490851 [cm-1]
     freq (    6) =       3.859425 [THz] =     128.736553 [cm-1]
 **************************************************************************

     Mode symmetry, C_s (m)     point group:

     freq (  1 -  1) =         69.1  [cm-1]   --> A'                 
     freq (  2 -  2) =         69.3  [cm-1]   --> A''                
     freq (  3 -  3) =        103.7  [cm-1]   --> A'                 
     freq (  4 -  4) =        103.9  [cm-1]   --> A''                
     freq (  5 -  5) =        128.5  [cm-1]   --> A'                 
     freq (  6 -  6) =        128.7  [cm-1]   --> A''                
 
     init_run     :      1.49s CPU      1.70s WALL (      11 calls)
     electrons    :    178.79s CPU    183.08s WALL (      11 calls)

     Called by init_run:
     wfcinit      :      0.00s CPU      0.12s WALL (      11 calls)
     potinit      :      0.28s CPU      0.36s WALL (      11 calls)

     Called by electrons:
     c_bands      :    178.71s CPU    182.99s WALL (      11 calls)
     v_of_rho     :      0.09s CPU      0.09s WALL (      12 calls)
     newd         :      0.12s CPU      0.14s WALL (      12 calls)

     Called by c_bands:
     init_us_2    :      5.01s CPU      5.50s WALL (   80220 calls)
     cegterg      :    101.44s CPU    103.51s WALL (    4211 calls)

     Called by sum_band:

     Called by *egterg:
     h_psi        :     59.39s CPU     60.61s WALL (   67643 calls)
     s_psi        :     68.59s CPU     71.62s WALL ( 1873577 calls)
     g_psi        :      0.66s CPU      0.63s WALL (   61078 calls)
     cdiaghg      :     29.12s CPU     29.66s WALL (   63432 calls)

     Called by h_psi:
     add_vuspsi   :     40.25s CPU     41.72s WALL (  937057 calls)

     General routines
     calbec       :     99.95s CPU    105.02s WALL ( 1993175 calls)
     fft          :      2.46s CPU      2.58s WALL (    9758 calls)
     ffts         :      1.40s CPU      1.52s WALL (    9607 calls)
     fftw         :   1879.39s CPU   1920.41s WALL (14362695 calls)
     interpolate  :      1.16s CPU      1.20s WALL (    1341 calls)
     davcio       :     14.60s CPU    308.30s WALL (  348691 calls)
 
     Parallel routines
     fft_scatter  :   1293.18s CPU   1309.70s WALL (14382060 calls)
 
     PHONON       :     1h 7m CPU        1h15m WALL

     INITIALIZATION: 
     phq_setup    :      0.32s CPU      0.49s WALL (      12 calls)
     phq_init     :     16.91s CPU     17.83s WALL (      12 calls)
 
     phq_init     :     16.91s CPU     17.83s WALL (      12 calls)
     init_vloc    :      0.12s CPU      0.12s WALL (      12 calls)
     init_us_1    :      0.45s CPU      0.46s WALL (      12 calls)
     newd         :      0.12s CPU      0.14s WALL (      12 calls)
     dvanqq       :      1.39s CPU      1.39s WALL (      12 calls)
     drho         :     12.23s CPU     12.76s WALL (      12 calls)
 
     DYNAMICAL MATRIX:
     dynmat0      :      2.19s CPU      2.39s WALL (      12 calls)
     phqscf       :   3840.48s CPU   4227.24s WALL (      12 calls)
     dynmatrix    :      0.02s CPU      0.16s WALL (      12 calls)
 
     phqscf       :   3840.48s CPU   4227.24s WALL (      12 calls)
     solve_linter :   3836.66s CPU   4221.42s WALL (      66 calls)
     drhodv       :      3.63s CPU      4.00s WALL (      66 calls)
 
     dynmat0      :      2.19s CPU      2.39s WALL (      12 calls)
     dynmat_us    :      2.14s CPU      2.20s WALL (      12 calls)
     d2ionq       :      0.03s CPU      0.03s WALL (      12 calls)
 
     dynmat_us    :      2.14s CPU      2.20s WALL (      12 calls)
     addusdynmat  :      0.00s CPU      0.00s WALL (      12 calls)
 
     phqscf       :   3840.48s CPU   4227.24s WALL (      12 calls)
     solve_linter :   3836.66s CPU   4221.42s WALL (      66 calls)
 
     solve_linter :   3836.66s CPU   4221.42s WALL (      66 calls)
     dvqpsi_us    :     15.91s CPU     17.30s WALL (    7158 calls)
     ortho        :     48.44s CPU     49.69s WALL (   67106 calls)
     cgsolve      :   1027.68s CPU   1069.16s WALL (   67106 calls)
     incdrhoscf   :   1153.91s CPU   1164.60s WALL (   67106 calls)
     addusddens   :      8.69s CPU      8.85s WALL (     651 calls)
     vpsifft      :     72.18s CPU     77.09s WALL (   59948 calls)
     dv_of_drho   :      3.18s CPU      3.26s WALL (     621 calls)
     mix_pot      :      2.30s CPU     11.69s WALL (     585 calls)
     ef_shift     :      0.03s CPU      0.87s WALL (      30 calls)
     localdos     :      0.16s CPU      0.17s WALL (       4 calls)
     psymdvscf    :     16.47s CPU     16.41s WALL (     522 calls)
     newdq        :      7.83s CPU      7.91s WALL (     585 calls)
     adddvscf     :      5.48s CPU      5.74s WALL (   59948 calls)
     drhodvus     :      0.08s CPU      0.07s WALL (      66 calls)
 
     dvqpsi_us    :     15.91s CPU     17.30s WALL (    7158 calls)
     dvqpsi_us_on :      3.89s CPU      4.26s WALL (    7158 calls)
 
     cgsolve      :   1027.68s CPU   1069.16s WALL (   67106 calls)
     ch_psi       :    990.45s CPU   1029.93s WALL (  869414 calls)
 
     ch_psi       :    990.45s CPU   1029.93s WALL (  869414 calls)
     h_psiq       :    860.08s CPU    893.77s WALL (  869414 calls)
     last         :    124.68s CPU    130.54s WALL (  869414 calls)
 
     h_psiq       :    860.08s CPU    893.77s WALL (  869414 calls)
     firstfft     :    396.06s CPU    413.07s WALL ( 5433908 calls)
     secondfft    :    306.38s CPU    317.50s WALL ( 5433908 calls)
     add_vuspsi   :     40.25s CPU     41.72s WALL (  937057 calls)
 
     incdrhoscf   :   1153.91s CPU   1164.60s WALL (   67106 calls)
     addusdbec    :      6.53s CPU      6.75s WALL (   74264 calls)
 
     drhodvus     :      0.08s CPU      0.07s WALL (      66 calls)
 
      General routines
     calbec       :     99.95s CPU    105.02s WALL ( 1993175 calls)
     fft          :      2.46s CPU      2.58s WALL (    9758 calls)
     ffts         :      1.40s CPU      1.52s WALL (    9607 calls)
     fftw         :   1879.39s CPU   1920.41s WALL (14362695 calls)
     davcio       :     14.60s CPU    308.30s WALL (  348691 calls)
     write_rec    :      1.18s CPU     19.40s WALL (     651 calls)
 
 
     PHONON       :     1h 7m CPU        1h15m WALL

 
   This run was terminated on:   1:45:16  27Mar2018            

=------------------------------------------------------------------------------=
   JOB DONE.
=------------------------------------------------------------------------------=
Application 30370209 resources: utime ~804226s, stime ~11421s, Rss ~49296, inblocks ~6053531774, outblocks ~1893085528
