
     Program PHONON v.5.4.0 starts on 28Mar2018 at 22:30:14 

     This program is part of the open-source Quantum ESPRESSO suite
     for quantum simulation of materials; please cite
         "P. Giannozzi et al., J. Phys.:Condens. Matter 21 395502 (2009);
          URL http://www.quantum-espresso.org", 
     in publications or presentations arising from this work. More details at
     http://www.quantum-espresso.org/quote

     Parallel version (MPI & OpenMP), running on     192 processor cores
     Number of MPI processes:               192
     Threads/MPI process:                     1
     K-points division:     npool     =      24
     R & G space division:  proc/nbgrp/npool/nimage =       8

     Reading data from directory:
     ./na_hcp_7.12/na_hcp_7.12.save

   Info: using nr1, nr2, nr3 values from input

   Info: using nr1, nr2, nr3 values from input

     IMPORTANT: XC functional enforced from input :
     Exchange-correlation      = SLA  PW   PBE  PBE ( 1  4  3  4 0 0)
     Any further DFT definition will be discarded
     Please, verify this is what you really want

 
     Parallelization info
     --------------------
     sticks:   dense  smooth     PW     G-vecs:    dense   smooth      PW
     Min         140      69     20                 6156     2170     356
     Max         141      70     21                 6161     2190     363
     Sum        1123     559    163                49261    17417    2875
 


     Dynamical matrices for ( 4, 4, 4)  uniform grid of q-points
     (  12q-points):
       N         xq(1)         xq(2)         xq(3) 
       1   0.000000000   0.000000000   0.000000000
       2   0.000000000   0.000000000   0.153330962
       3   0.000000000   0.000000000  -0.306661924
       4   0.000000000   0.288675135   0.000000000
       5   0.000000000   0.288675135   0.153330962
       6   0.000000000   0.288675135  -0.306661924
       7   0.000000000  -0.577350269   0.000000000
       8   0.000000000  -0.577350269   0.153330962
       9   0.000000000  -0.577350269  -0.306661924
      10   0.250000000   0.433012702   0.000000000
      11   0.250000000   0.433012702   0.153330962
      12   0.250000000   0.433012702  -0.306661924

     Calculation of q =    0.0000000   0.0000000   0.0000000

                                                                                

     bravais-lattice index     =            4
     lattice parameter (alat)  =       7.1200  a.u.
     unit-cell volume          =     509.6602 (a.u.)^3
     number of atoms/cell      =            2
     number of atomic types    =            1
     kinetic-energy cut-off    =      40.0000  Ry
     charge density cut-off    =     320.0000  Ry
     convergence threshold     =      1.0E-15
     beta                      =       0.7000
     number of iterations used =            4
     Exchange-correlation      = SLA  PW   PBE  PBE ( 1  4  3  4 0 0)


     celldm(1)=    7.12000  celldm(2)=    0.00000  celldm(3)=    1.63046
     celldm(4)=    0.00000  celldm(5)=    0.00000  celldm(6)=    0.00000

     crystal axes: (cart. coord. in units of alat)
               a(1) = (  1.0000  0.0000  0.0000 )  
               a(2) = ( -0.5000  0.8660  0.0000 )  
               a(3) = (  0.0000  0.0000  1.6305 )  

     reciprocal axes: (cart. coord. in units 2 pi/alat)
               b(1) = (  1.0000  0.5774  0.0000 )  
               b(2) = (  0.0000  1.1547  0.0000 )  
               b(3) = (  0.0000  0.0000  0.6133 )  


     Atoms inside the unit cell: 

     Cartesian axes

     site n.  atom      mass           positions (alat units)
        1     Na  22.9900   tau(    1) = (    0.00000    0.00000    0.00000  )
        2     Na  22.9900   tau(    2) = (    0.50000    0.28868    0.81523  )

     Computing dynamical matrix for 
                    q = (   0.0000000   0.0000000   0.0000000 )
 
     25 Sym.Ops. (with q -> -q+G )


     G cutoff =  410.9133  (   6161 G-vectors)     FFT grid: ( 45, 45, 72)
     G cutoff =  205.4567  (   2176 G-vectors)  smooth grid: ( 30, 30, 48)

     number of k points=   366  Marzari-Vanderbilt smearing, width (Ry)=  0.0200

     PseudoPot. # 1 for Na read from file:
     ./Na_pbe_v1.uspp.F.UPF
     MD5 check sum: 76a99c7e9422403d3e93cbc85ab7bccb
     Pseudo is Ultrasoft, Zval =  9.0
     Generated by new atomic code, or converted to UPF format
     Using radial grid of  819 points,  5 beta functions with: 
                l(1) =   0
                l(2) =   0
                l(3) =   1
                l(4) =   1
                l(5) =   2
     Q(r) pseudized with  8 coefficients,  rinner =    1.250   1.250   1.250
                                                       1.250   1.250

     Mode symmetry, D_6h(6/mmm) point group:


     Atomic displacements:
     There are   4 irreducible representations

     Representation     1      1 modes -B_1g  To be done

     Representation     2      2 modes -E_2g  To be done

     Representation     3      1 modes -A_2u  To be done

     Representation     4      2 modes -E_1u  To be done



     Alpha used in Ewald sum =   2.8000
     PHONON       :     5.76s CPU         9.27s WALL



     Representation #  1 mode #   1

     Self-consistent Calculation
 
     Pert. #  1: Fermi energy shift (Ry) =     0.0000E+00     0.0000E+00

      iter #   1 total cpu time :    11.3 secs   av.it.:   5.4
      thresh= 1.000E-02 alpha_mix =  0.700 |ddv_scf|^2 =  2.769E-05
 
     Pert. #  1: Fermi energy shift (Ry) =     0.0000E+00     0.0000E+00

      iter #   2 total cpu time :    12.8 secs   av.it.:   7.2
      thresh= 5.262E-04 alpha_mix =  0.700 |ddv_scf|^2 =  1.718E-05
 
     Pert. #  1: Fermi energy shift (Ry) =     0.0000E+00     0.0000E+00

      iter #   3 total cpu time :    13.9 secs   av.it.:   6.9
      thresh= 4.145E-04 alpha_mix =  0.700 |ddv_scf|^2 =  2.187E-08
 
     Pert. #  1: Fermi energy shift (Ry) =     1.4117E-22     9.5662E-43

      iter #   4 total cpu time :    15.2 secs   av.it.:   8.3
      thresh= 1.479E-05 alpha_mix =  0.700 |ddv_scf|^2 =  8.817E-11
 
     Pert. #  1: Fermi energy shift (Ry) =     0.0000E+00    -4.7831E-43

      iter #   5 total cpu time :    15.8 secs   av.it.:   7.3
      thresh= 9.390E-07 alpha_mix =  0.700 |ddv_scf|^2 =  1.767E-12
 
     Pert. #  1: Fermi energy shift (Ry) =     0.0000E+00     7.4736E-45

      iter #   6 total cpu time :    17.8 secs   av.it.:   7.2
      thresh= 1.329E-07 alpha_mix =  0.700 |ddv_scf|^2 =  4.863E-15
 
     Pert. #  1: Fermi energy shift (Ry) =     0.0000E+00     5.9789E-44

      iter #   7 total cpu time :    19.8 secs   av.it.:   8.1
      thresh= 6.974E-09 alpha_mix =  0.700 |ddv_scf|^2 =  1.345E-17

     End of self-consistent calculation

     Convergence has been achieved 


     Representation #  2 modes #   2  3

     Self-consistent Calculation
 
     Pert. #  1: Fermi energy shift (Ry) =    -5.6617E-20     7.6801E-42
     Pert. #  2: Fermi energy shift (Ry) =     3.6140E-20    -4.5918E-41

      iter #   1 total cpu time :    23.2 secs   av.it.:   5.1
      thresh= 1.000E-02 alpha_mix =  0.700 |ddv_scf|^2 =  7.368E-07
 
     Pert. #  1: Fermi energy shift (Ry) =     2.7788E-20     5.3530E-41
     Pert. #  2: Fermi energy shift (Ry) =     1.3553E-20     3.8265E-41

      iter #   2 total cpu time :    27.4 secs   av.it.:   8.6
      thresh= 8.584E-05 alpha_mix =  0.700 |ddv_scf|^2 =  1.269E-08
 
     Pert. #  1: Fermi energy shift (Ry) =     1.6883E-21     3.6331E-41
     Pert. #  2: Fermi energy shift (Ry) =    -6.7763E-21     1.9132E-41

      iter #   3 total cpu time :    31.3 secs   av.it.:   8.8
      thresh= 1.127E-05 alpha_mix =  0.700 |ddv_scf|^2 =  4.319E-10
 
     Pert. #  1: Fermi energy shift (Ry) =    -5.0873E-21    -5.9619E-43
     Pert. #  2: Fermi energy shift (Ry) =    -5.6469E-21     9.5662E-43

      iter #   4 total cpu time :    35.7 secs   av.it.:   8.4
      thresh= 2.078E-06 alpha_mix =  0.700 |ddv_scf|^2 =  1.413E-12
 
     Pert. #  1: Fermi energy shift (Ry) =     5.5983E-22    -8.3577E-43
     Pert. #  2: Fermi energy shift (Ry) =     3.3881E-21     2.3915E-43

      iter #   5 total cpu time :    40.1 secs   av.it.:   8.8
      thresh= 1.189E-07 alpha_mix =  0.700 |ddv_scf|^2 =  2.086E-15
 
     Pert. #  1: Fermi energy shift (Ry) =    -1.1342E-21    -8.3577E-43
     Pert. #  2: Fermi energy shift (Ry) =    -6.7763E-21     2.3915E-43

      iter #   6 total cpu time :    44.6 secs   av.it.:   7.8
      thresh= 4.567E-09 alpha_mix =  0.700 |ddv_scf|^2 =  9.114E-17

     End of self-consistent calculation

     Convergence has been achieved 


     Representation #  3 mode #   4

     Self-consistent Calculation
 
     Pert. #  1: Fermi energy shift (Ry) =     0.0000E+00    -1.0031E-36

      iter #   1 total cpu time :    47.7 secs   av.it.:   5.1
      thresh= 1.000E-02 alpha_mix =  0.700 |ddv_scf|^2 =  2.763E-06
 
     Pert. #  1: Fermi energy shift (Ry) =     6.8932E-26     3.9183E-39

      iter #   2 total cpu time :    50.1 secs   av.it.:   8.0
      thresh= 1.662E-04 alpha_mix =  0.700 |ddv_scf|^2 =  5.179E-08
 
     Pert. #  1: Fermi energy shift (Ry) =    -2.5849E-26     4.8979E-40

      iter #   3 total cpu time :    52.9 secs   av.it.:   8.2
      thresh= 2.276E-05 alpha_mix =  0.700 |ddv_scf|^2 =  1.119E-09
 
     Pert. #  1: Fermi energy shift (Ry) =     4.3082E-27     1.2245E-40

      iter #   4 total cpu time :    58.5 secs   av.it.:   7.7
      thresh= 3.345E-06 alpha_mix =  0.700 |ddv_scf|^2 =  3.748E-12
 
     Pert. #  1: Fermi energy shift (Ry) =     2.5849E-26    -3.0612E-41

      iter #   5 total cpu time :    60.9 secs   av.it.:   8.2
      thresh= 1.936E-07 alpha_mix =  0.700 |ddv_scf|^2 =  8.256E-15
 
     Pert. #  1: Fermi energy shift (Ry) =     8.6165E-27     1.5306E-41

      iter #   6 total cpu time :    64.1 secs   av.it.:   7.7
      thresh= 9.086E-09 alpha_mix =  0.700 |ddv_scf|^2 =  1.978E-16

     End of self-consistent calculation

     Convergence has been achieved 


     Representation #  4 modes #   5  6

     Self-consistent Calculation
 
     Pert. #  1: Fermi energy shift (Ry) =     5.4246E-24     2.0375E-37
     Pert. #  2: Fermi energy shift (Ry) =    -3.5844E-24    -1.0031E-36

      iter #   1 total cpu time :    69.6 secs   av.it.:   5.2
      thresh= 1.000E-02 alpha_mix =  0.700 |ddv_scf|^2 =  6.932E-07
 
     Pert. #  1: Fermi energy shift (Ry) =    -1.5500E-24     1.2245E-40
     Pert. #  2: Fermi energy shift (Ry) =     2.2058E-24     1.4694E-39

      iter #   2 total cpu time :    78.8 secs   av.it.:   8.8
      thresh= 8.326E-05 alpha_mix =  0.700 |ddv_scf|^2 =  1.290E-08
 
     Pert. #  1: Fermi energy shift (Ry) =    -3.7551E-25     1.5306E-41
     Pert. #  2: Fermi energy shift (Ry) =     0.0000E+00     1.8367E-40

      iter #   3 total cpu time :    85.7 secs   av.it.:   9.0
      thresh= 1.136E-05 alpha_mix =  0.700 |ddv_scf|^2 =  2.909E-10
 
     Pert. #  1: Fermi energy shift (Ry) =     3.0130E-25    -5.7397E-42
     Pert. #  2: Fermi energy shift (Ry) =    -8.2718E-25    -2.2959E-41

      iter #   4 total cpu time :    88.8 secs   av.it.:   8.7
      thresh= 1.706E-06 alpha_mix =  0.700 |ddv_scf|^2 =  9.746E-13
 
     Pert. #  1: Fermi energy shift (Ry) =     7.5103E-25     7.1746E-43
     Pert. #  2: Fermi energy shift (Ry) =    -5.5145E-25    -4.7831E-43

      iter #   5 total cpu time :    93.3 secs   av.it.:   9.1
      thresh= 9.872E-08 alpha_mix =  0.700 |ddv_scf|^2 =  2.011E-15
 
     Pert. #  1: Fermi energy shift (Ry) =     1.3066E-25     7.1746E-43
     Pert. #  2: Fermi energy shift (Ry) =    -5.5145E-25    -4.7831E-43

      iter #   6 total cpu time :    97.2 secs   av.it.:   8.5
      thresh= 4.484E-09 alpha_mix =  0.700 |ddv_scf|^2 =  4.904E-17

     End of self-consistent calculation

     Convergence has been achieved 
 
     Number of q in the star =    1
     List of q in the star:
          1   0.000000000   0.000000000   0.000000000

     Diagonalizing the dynamical matrix

     q = (    0.000000000   0.000000000   0.000000000 ) 

 **************************************************************************
     freq (    1) =      -0.566713 [THz] =     -18.903523 [cm-1]
     freq (    2) =      -0.494692 [THz] =     -16.501164 [cm-1]
     freq (    3) =      -0.494692 [THz] =     -16.501164 [cm-1]
     freq (    4) =       1.541183 [THz] =      51.408330 [cm-1]
     freq (    5) =       1.541183 [THz] =      51.408330 [cm-1]
     freq (    6) =       3.737304 [THz] =     124.663027 [cm-1]
 **************************************************************************

     Mode symmetry, D_6h(6/mmm) point group:

     freq (  1 -  1) =        -18.9  [cm-1]   --> A_2u            I  
     freq (  2 -  3) =        -16.5  [cm-1]   --> E_1u            I  
     freq (  4 -  5) =         51.4  [cm-1]   --> E_2g            R  
     freq (  6 -  6) =        124.7  [cm-1]   --> B_1g               

     Calculation of q =    0.0000000   0.0000000   0.1533310
 
     Parallelization info
     --------------------
     sticks:   dense  smooth     PW     G-vecs:    dense   smooth      PW
     Min         140      69     20                 6156     2168     368
     Max         141      70     21                 6161     2188     377
     Sum        1123     559    163                49261    17417    2971
 


     bravais-lattice index     =            4
     lattice parameter (alat)  =       7.1200  a.u.
     unit-cell volume          =     509.6602 (a.u.)^3
     number of atoms/cell      =            2
     number of atomic types    =            1
     number of electrons       =        18.00
     number of Kohn-Sham states=           13
     kinetic-energy cutoff     =      40.0000  Ry
     charge density cutoff     =     320.0000  Ry
     Exchange-correlation      = SLA  PW   PBE  PBE ( 1  4  3  4 0 0)

     celldm(1)=   7.120000  celldm(2)=   0.000000  celldm(3)=   1.630460
     celldm(4)=   0.000000  celldm(5)=   0.000000  celldm(6)=   0.000000

     crystal axes: (cart. coord. in units of alat)
               a(1) = (   1.000000   0.000000   0.000000 )  
               a(2) = (  -0.500000   0.866025   0.000000 )  
               a(3) = (   0.000000   0.000000   1.630460 )  

     reciprocal axes: (cart. coord. in units 2 pi/alat)
               b(1) = (  1.000000  0.577350  0.000000 )  
               b(2) = (  0.000000  1.154701  0.000000 )  
               b(3) = (  0.000000  0.000000  0.613324 )  


     PseudoPot. # 1 for Na read from file:
     ./Na_pbe_v1.uspp.F.UPF
     MD5 check sum: 76a99c7e9422403d3e93cbc85ab7bccb
     Pseudo is Ultrasoft, Zval =  9.0
     Generated by new atomic code, or converted to UPF format
     Using radial grid of  819 points,  5 beta functions with: 
                l(1) =   0
                l(2) =   0
                l(3) =   1
                l(4) =   1
                l(5) =   2
     Q(r) pseudized with  8 coefficients,  rinner =    1.250   1.250   1.250
                                                       1.250   1.250

     atomic species   valence    mass     pseudopotential
        Na             9.00    22.99000     Na( 1.00)

     24 Sym. Ops., with inversion, found



   Cartesian axes

     site n.     atom                  positions (alat units)
         1           Na  tau(   1) = (   0.0000000   0.0000000   0.0000000  )
         2           Na  tau(   2) = (   0.4999999   0.2886751   0.8152300  )

     number of k points=  1464  Marzari-Vanderbilt smearing, width (Ry)=  0.0200

     Number of k-points >= 100: set verbosity='high' to print them.

     Dense  grid:    49261 G-vectors     FFT dimensions: (  45,  45,  72)

     Smooth grid:    17417 G-vectors     FFT dimensions: (  30,  30,  48)

     Largest allocated arrays     est. size (Mb)     dimensions
        Kohn-Sham Wavefunctions         0.06 Mb     (     281,   13)
        NL pseudopotentials             0.11 Mb     (     281,   26)
        Each V/rho on FFT grid          0.28 Mb     (   18225)
        Each G-vector array             0.05 Mb     (    6161)
        G-vector shells                 0.01 Mb     (    1712)
     Largest temporary arrays     est. size (Mb)     dimensions
        Auxiliary wavefunctions         0.22 Mb     (     281,   52)
        Each subspace H/S matrix        0.01 Mb     (      26,   26)
        Each <psi_i|beta_j> matrix      0.01 Mb     (      26,   13)

     The potential is recalculated from file :
     ./na_hcp_7.12/_ph0/na_hcp_7.12.save/charge-density.dat

     Starting wfc are   10 atomic +    3 random wfc

     Band Structure Calculation
     Davidson diagonalization with overlap

     ethr =  5.56E-11,  avg # of iterations = 24.0

     total cpu time spent up to now is        7.3 secs

     End of band structure calculation

     Number of k-points >= 100: set verbosity='high' to print the bands.

     the Fermi energy is     1.5280 ev

     Writing output data file na_hcp_7.12.save

                                                                                

     bravais-lattice index     =            4
     lattice parameter (alat)  =       7.1200  a.u.
     unit-cell volume          =     509.6602 (a.u.)^3
     number of atoms/cell      =            2
     number of atomic types    =            1
     kinetic-energy cut-off    =      40.0000  Ry
     charge density cut-off    =     320.0000  Ry
     convergence threshold     =      1.0E-15
     beta                      =       0.7000
     number of iterations used =            4
     Exchange-correlation      = SLA  PW   PBE  PBE ( 1  4  3  4 0 0)


     celldm(1)=    7.12000  celldm(2)=    0.00000  celldm(3)=    1.63046
     celldm(4)=    0.00000  celldm(5)=    0.00000  celldm(6)=    0.00000

     crystal axes: (cart. coord. in units of alat)
               a(1) = (  1.0000  0.0000  0.0000 )  
               a(2) = ( -0.5000  0.8660  0.0000 )  
               a(3) = (  0.0000  0.0000  1.6305 )  

     reciprocal axes: (cart. coord. in units 2 pi/alat)
               b(1) = (  1.0000  0.5774  0.0000 )  
               b(2) = (  0.0000  1.1547  0.0000 )  
               b(3) = (  0.0000  0.0000  0.6133 )  


     Atoms inside the unit cell: 

     Cartesian axes

     site n.  atom      mass           positions (alat units)
        1     Na  22.9900   tau(    1) = (    0.00000    0.00000    0.00000  )
        2     Na  22.9900   tau(    2) = (    0.50000    0.28868    0.81523  )

     Computing dynamical matrix for 
                    q = (   0.0000000   0.0000000   0.1533310 )
 
     12 Sym.Ops. (no q -> -q+G )


     G cutoff =  410.9133  (   6161 G-vectors)     FFT grid: ( 45, 45, 72)
     G cutoff =  205.4567  (   2170 G-vectors)  smooth grid: ( 30, 30, 48)

     number of k points=  1464  Marzari-Vanderbilt smearing, width (Ry)=  0.0200

     PseudoPot. # 1 for Na read from file:
     ./Na_pbe_v1.uspp.F.UPF
     MD5 check sum: 76a99c7e9422403d3e93cbc85ab7bccb
     Pseudo is Ultrasoft, Zval =  9.0
     Generated by new atomic code, or converted to UPF format
     Using radial grid of  819 points,  5 beta functions with: 
                l(1) =   0
                l(2) =   0
                l(3) =   1
                l(4) =   1
                l(5) =   2
     Q(r) pseudized with  8 coefficients,  rinner =    1.250   1.250   1.250
                                                       1.250   1.250

     Mode symmetry, C_6v (6mm)  point group:


     Atomic displacements:
     There are   4 irreducible representations

     Representation     1      1 modes -A_1  To be done

     Representation     2      1 modes -B_2  To be done

     Representation     3      2 modes -E_1  To be done

     Representation     4      2 modes -E_2  To be done



     Alpha used in Ewald sum =   2.8000
     PHONON       :  1m33.55s CPU     1m49.48s WALL



     Representation #  1 mode #   1

     Self-consistent Calculation

      iter #   1 total cpu time :   111.4 secs   av.it.:   5.4
      thresh= 1.000E-02 alpha_mix =  0.700 |ddv_scf|^2 =  4.608E-02

      iter #   2 total cpu time :   114.6 secs   av.it.:   6.8
      thresh= 1.000E-02 alpha_mix =  0.700 |ddv_scf|^2 =  2.592E+01

      iter #   3 total cpu time :   118.8 secs   av.it.:   6.8
      thresh= 1.000E-02 alpha_mix =  0.700 |ddv_scf|^2 =  9.941E-05

      iter #   4 total cpu time :   122.6 secs   av.it.:   5.5
      thresh= 9.971E-04 alpha_mix =  0.700 |ddv_scf|^2 =  3.622E-08

      iter #   5 total cpu time :   126.3 secs   av.it.:   7.7
      thresh= 1.903E-05 alpha_mix =  0.700 |ddv_scf|^2 =  1.116E-09

      iter #   6 total cpu time :   129.0 secs   av.it.:   7.7
      thresh= 3.340E-06 alpha_mix =  0.700 |ddv_scf|^2 =  1.204E-07

      iter #   7 total cpu time :   133.2 secs   av.it.:   4.0
      thresh= 3.470E-05 alpha_mix =  0.700 |ddv_scf|^2 =  3.143E-11

      iter #   8 total cpu time :   146.0 secs   av.it.:   8.1
      thresh= 5.607E-07 alpha_mix =  0.700 |ddv_scf|^2 =  2.687E-13

      iter #   9 total cpu time :   149.6 secs   av.it.:   8.8
      thresh= 5.183E-08 alpha_mix =  0.700 |ddv_scf|^2 =  1.241E-14

      iter #  10 total cpu time :   152.7 secs   av.it.:   8.7
      thresh= 1.114E-08 alpha_mix =  0.700 |ddv_scf|^2 =  1.401E-14

      iter #  11 total cpu time :   158.6 secs   av.it.:   6.9
      thresh= 1.184E-08 alpha_mix =  0.700 |ddv_scf|^2 =  6.991E-13

      iter #  12 total cpu time :   161.4 secs   av.it.:   5.2
      thresh= 8.361E-08 alpha_mix =  0.700 |ddv_scf|^2 =  9.214E-17

     End of self-consistent calculation

     Convergence has been achieved 


     Representation #  2 mode #   2

     Self-consistent Calculation

      iter #   1 total cpu time :   164.8 secs   av.it.:   5.4
      thresh= 1.000E-02 alpha_mix =  0.700 |ddv_scf|^2 =  7.294E-05

      iter #   2 total cpu time :   171.8 secs   av.it.:   7.2
      thresh= 8.540E-04 alpha_mix =  0.700 |ddv_scf|^2 =  2.499E-04

      iter #   3 total cpu time :   174.6 secs   av.it.:   6.4
      thresh= 1.581E-03 alpha_mix =  0.700 |ddv_scf|^2 =  1.222E-07

      iter #   4 total cpu time :   177.9 secs   av.it.:   8.2
      thresh= 3.496E-05 alpha_mix =  0.700 |ddv_scf|^2 =  3.285E-09

      iter #   5 total cpu time :   181.2 secs   av.it.:   8.7
      thresh= 5.731E-06 alpha_mix =  0.700 |ddv_scf|^2 =  7.652E-11

      iter #   6 total cpu time :   186.0 secs   av.it.:   8.7
      thresh= 8.748E-07 alpha_mix =  0.700 |ddv_scf|^2 =  5.494E-12

      iter #   7 total cpu time :   190.2 secs   av.it.:   8.3
      thresh= 2.344E-07 alpha_mix =  0.700 |ddv_scf|^2 =  3.270E-13

      iter #   8 total cpu time :   202.3 secs   av.it.:   8.5
      thresh= 5.718E-08 alpha_mix =  0.700 |ddv_scf|^2 =  1.705E-14

      iter #   9 total cpu time :   204.6 secs   av.it.:   7.7
      thresh= 1.306E-08 alpha_mix =  0.700 |ddv_scf|^2 =  5.393E-16

     End of self-consistent calculation

     Convergence has been achieved 


     Representation #  3 modes #   3  4

     Self-consistent Calculation

      iter #   1 total cpu time :   214.7 secs   av.it.:   5.1
      thresh= 1.000E-02 alpha_mix =  0.700 |ddv_scf|^2 =  6.988E-07

      iter #   2 total cpu time :   221.6 secs   av.it.:   8.6
      thresh= 8.360E-05 alpha_mix =  0.700 |ddv_scf|^2 =  1.288E-08

      iter #   3 total cpu time :   230.5 secs   av.it.:   8.8
      thresh= 1.135E-05 alpha_mix =  0.700 |ddv_scf|^2 =  3.063E-10

      iter #   4 total cpu time :   237.0 secs   av.it.:   8.5
      thresh= 1.750E-06 alpha_mix =  0.700 |ddv_scf|^2 =  1.015E-12

      iter #   5 total cpu time :   242.1 secs   av.it.:   8.9
      thresh= 1.008E-07 alpha_mix =  0.700 |ddv_scf|^2 =  2.053E-15

      iter #   6 total cpu time :   248.2 secs   av.it.:   8.3
      thresh= 4.531E-09 alpha_mix =  0.700 |ddv_scf|^2 =  5.752E-17

     End of self-consistent calculation

     Convergence has been achieved 


     Representation #  4 modes #   5  6

     Self-consistent Calculation

      iter #   1 total cpu time :   255.0 secs   av.it.:   5.1
      thresh= 1.000E-02 alpha_mix =  0.700 |ddv_scf|^2 =  7.296E-07

      iter #   2 total cpu time :   263.5 secs   av.it.:   8.6
      thresh= 8.542E-05 alpha_mix =  0.700 |ddv_scf|^2 =  1.273E-08

      iter #   3 total cpu time :   269.3 secs   av.it.:   8.8
      thresh= 1.128E-05 alpha_mix =  0.700 |ddv_scf|^2 =  4.055E-10

      iter #   4 total cpu time :   275.4 secs   av.it.:   8.5
      thresh= 2.014E-06 alpha_mix =  0.700 |ddv_scf|^2 =  1.327E-12

      iter #   5 total cpu time :   282.6 secs   av.it.:   8.9
      thresh= 1.152E-07 alpha_mix =  0.700 |ddv_scf|^2 =  2.106E-15

      iter #   6 total cpu time :   290.6 secs   av.it.:   8.0
      thresh= 4.589E-09 alpha_mix =  0.700 |ddv_scf|^2 =  8.696E-17

     End of self-consistent calculation

     Convergence has been achieved 
 
     Number of q in the star =    2
     List of q in the star:
          1   0.000000000   0.000000000   0.153330962
          2   0.000000000   0.000000000  -0.153330962

     Diagonalizing the dynamical matrix

     q = (    0.000000000   0.000000000   0.153330962 ) 

 **************************************************************************
     freq (    1) =       0.489238 [THz] =      16.319215 [cm-1]
     freq (    2) =       0.489238 [THz] =      16.319215 [cm-1]
     freq (    3) =       1.447436 [THz] =      48.281253 [cm-1]
     freq (    4) =       1.447436 [THz] =      48.281253 [cm-1]
     freq (    5) =       1.497833 [THz] =      49.962327 [cm-1]
     freq (    6) =       3.493275 [THz] =     116.523115 [cm-1]
 **************************************************************************

     Mode symmetry, C_6v (6mm)  point group:

     freq (  1 -  2) =         16.3  [cm-1]   --> E_1                
     freq (  3 -  4) =         48.3  [cm-1]   --> E_2                
     freq (  5 -  5) =         50.0  [cm-1]   --> A_1                
     freq (  6 -  6) =        116.5  [cm-1]   --> B_2                

     Calculation of q =    0.0000000   0.0000000  -0.3066619
 
     Parallelization info
     --------------------
     sticks:   dense  smooth     PW     G-vecs:    dense   smooth      PW
     Min         140      69     20                 6156     2170     356
     Max         141      70     21                 6161     2190     363
     Sum        1123     559    163                49261    17417    2875
 


     bravais-lattice index     =            4
     lattice parameter (alat)  =       7.1200  a.u.
     unit-cell volume          =     509.6602 (a.u.)^3
     number of atoms/cell      =            2
     number of atomic types    =            1
     number of electrons       =        18.00
     number of Kohn-Sham states=           13
     kinetic-energy cutoff     =      40.0000  Ry
     charge density cutoff     =     320.0000  Ry
     Exchange-correlation      = SLA  PW   PBE  PBE ( 1  4  3  4 0 0)

     celldm(1)=   7.120000  celldm(2)=   0.000000  celldm(3)=   1.630460
     celldm(4)=   0.000000  celldm(5)=   0.000000  celldm(6)=   0.000000

     crystal axes: (cart. coord. in units of alat)
               a(1) = (   1.000000   0.000000   0.000000 )  
               a(2) = (  -0.500000   0.866025   0.000000 )  
               a(3) = (   0.000000   0.000000   1.630460 )  

     reciprocal axes: (cart. coord. in units 2 pi/alat)
               b(1) = (  1.000000  0.577350  0.000000 )  
               b(2) = (  0.000000  1.154701  0.000000 )  
               b(3) = (  0.000000  0.000000  0.613324 )  


     PseudoPot. # 1 for Na read from file:
     ./Na_pbe_v1.uspp.F.UPF
     MD5 check sum: 76a99c7e9422403d3e93cbc85ab7bccb
     Pseudo is Ultrasoft, Zval =  9.0
     Generated by new atomic code, or converted to UPF format
     Using radial grid of  819 points,  5 beta functions with: 
                l(1) =   0
                l(2) =   0
                l(3) =   1
                l(4) =   1
                l(5) =   2
     Q(r) pseudized with  8 coefficients,  rinner =    1.250   1.250   1.250
                                                       1.250   1.250

     atomic species   valence    mass     pseudopotential
        Na             9.00    22.99000     Na( 1.00)

     24 Sym. Ops., with inversion, found



   Cartesian axes

     site n.     atom                  positions (alat units)
         1           Na  tau(   1) = (   0.0000000   0.0000000   0.0000000  )
         2           Na  tau(   2) = (   0.4999999   0.2886751   0.8152300  )

     number of k points=   732  Marzari-Vanderbilt smearing, width (Ry)=  0.0200

     Number of k-points >= 100: set verbosity='high' to print them.

     Dense  grid:    49261 G-vectors     FFT dimensions: (  45,  45,  72)

     Smooth grid:    17417 G-vectors     FFT dimensions: (  30,  30,  48)

     Largest allocated arrays     est. size (Mb)     dimensions
        Kohn-Sham Wavefunctions         0.06 Mb     (     291,   13)
        NL pseudopotentials             0.12 Mb     (     291,   26)
        Each V/rho on FFT grid          0.28 Mb     (   18225)
        Each G-vector array             0.05 Mb     (    6161)
        G-vector shells                 0.01 Mb     (    1840)
     Largest temporary arrays     est. size (Mb)     dimensions
        Auxiliary wavefunctions         0.23 Mb     (     291,   52)
        Each subspace H/S matrix        0.01 Mb     (      26,   26)
        Each <psi_i|beta_j> matrix      0.01 Mb     (      26,   13)

     The potential is recalculated from file :
     ./na_hcp_7.12/_ph0/na_hcp_7.12.save/charge-density.dat

     Starting wfc are   10 atomic +    3 random wfc

     Band Structure Calculation
     Davidson diagonalization with overlap

     ethr =  5.56E-11,  avg # of iterations = 24.1

     total cpu time spent up to now is       12.0 secs

     End of band structure calculation

     Number of k-points >= 100: set verbosity='high' to print the bands.

     the Fermi energy is     1.5280 ev

     Writing output data file na_hcp_7.12.save

                                                                                

     bravais-lattice index     =            4
     lattice parameter (alat)  =       7.1200  a.u.
     unit-cell volume          =     509.6602 (a.u.)^3
     number of atoms/cell      =            2
     number of atomic types    =            1
     kinetic-energy cut-off    =      40.0000  Ry
     charge density cut-off    =     320.0000  Ry
     convergence threshold     =      1.0E-15
     beta                      =       0.7000
     number of iterations used =            4
     Exchange-correlation      = SLA  PW   PBE  PBE ( 1  4  3  4 0 0)


     celldm(1)=    7.12000  celldm(2)=    0.00000  celldm(3)=    1.63046
     celldm(4)=    0.00000  celldm(5)=    0.00000  celldm(6)=    0.00000

     crystal axes: (cart. coord. in units of alat)
               a(1) = (  1.0000  0.0000  0.0000 )  
               a(2) = ( -0.5000  0.8660  0.0000 )  
               a(3) = (  0.0000  0.0000  1.6305 )  

     reciprocal axes: (cart. coord. in units 2 pi/alat)
               b(1) = (  1.0000  0.5774  0.0000 )  
               b(2) = (  0.0000  1.1547  0.0000 )  
               b(3) = (  0.0000  0.0000  0.6133 )  


     Atoms inside the unit cell: 

     Cartesian axes

     site n.  atom      mass           positions (alat units)
        1     Na  22.9900   tau(    1) = (    0.00000    0.00000    0.00000  )
        2     Na  22.9900   tau(    2) = (    0.50000    0.28868    0.81523  )

     Computing dynamical matrix for 
                    q = (   0.0000000   0.0000000  -0.3066619 )
 
     25 Sym.Ops. (with q -> -q+G )


     G cutoff =  410.9133  (   6161 G-vectors)     FFT grid: ( 45, 45, 72)
     G cutoff =  205.4567  (   2176 G-vectors)  smooth grid: ( 30, 30, 48)

     number of k points=   732  Marzari-Vanderbilt smearing, width (Ry)=  0.0200

     PseudoPot. # 1 for Na read from file:
     ./Na_pbe_v1.uspp.F.UPF
     MD5 check sum: 76a99c7e9422403d3e93cbc85ab7bccb
     Pseudo is Ultrasoft, Zval =  9.0
     Generated by new atomic code, or converted to UPF format
     Using radial grid of  819 points,  5 beta functions with: 
                l(1) =   0
                l(2) =   0
                l(3) =   1
                l(4) =   1
                l(5) =   2
     Q(r) pseudized with  8 coefficients,  rinner =    1.250   1.250   1.250
                                                       1.250   1.250


     Atomic displacements:
     There are   2 irreducible representations

     Representation     1      4 modes -  To be done

     Representation     2      2 modes -  To be done



     Alpha used in Ewald sum =   2.8000
     PHONON       :  4m28.31s CPU     4m57.57s WALL



     Representation #  1 modes #   1  2  3  4

     Self-consistent Calculation

      iter #   1 total cpu time :   301.8 secs   av.it.:   5.2
      thresh= 1.000E-02 alpha_mix =  0.700 |ddv_scf|^2 =  1.784E-07

      iter #   2 total cpu time :   308.2 secs   av.it.:   9.4
      thresh= 4.223E-05 alpha_mix =  0.700 |ddv_scf|^2 =  3.201E-09

      iter #   3 total cpu time :   314.9 secs   av.it.:   9.7
      thresh= 5.658E-06 alpha_mix =  0.700 |ddv_scf|^2 =  8.733E-11

      iter #   4 total cpu time :   322.4 secs   av.it.:   9.2
      thresh= 9.345E-07 alpha_mix =  0.700 |ddv_scf|^2 =  2.880E-13

      iter #   5 total cpu time :   338.0 secs   av.it.:   9.5
      thresh= 5.366E-08 alpha_mix =  0.700 |ddv_scf|^2 =  5.296E-16

     End of self-consistent calculation

     Convergence has been achieved 


     Representation #  2 modes #   5  6

     Self-consistent Calculation

      iter #   1 total cpu time :   342.9 secs   av.it.:   5.7
      thresh= 1.000E-02 alpha_mix =  0.700 |ddv_scf|^2 =  1.836E-04

      iter #   2 total cpu time :   346.8 secs   av.it.:   7.7
      thresh= 1.355E-03 alpha_mix =  0.700 |ddv_scf|^2 =  5.062E-03

      iter #   3 total cpu time :   350.4 secs   av.it.:   6.1
      thresh= 7.115E-03 alpha_mix =  0.700 |ddv_scf|^2 =  1.280E-07

      iter #   4 total cpu time :   362.5 secs   av.it.:   8.6
      thresh= 3.577E-05 alpha_mix =  0.700 |ddv_scf|^2 =  6.767E-10

      iter #   5 total cpu time :   368.0 secs   av.it.:   9.5
      thresh= 2.601E-06 alpha_mix =  0.700 |ddv_scf|^2 =  5.199E-11

      iter #   6 total cpu time :   374.5 secs   av.it.:   9.4
      thresh= 7.210E-07 alpha_mix =  0.700 |ddv_scf|^2 =  1.314E-12

      iter #   7 total cpu time :   380.4 secs   av.it.:   9.7
      thresh= 1.146E-07 alpha_mix =  0.700 |ddv_scf|^2 =  1.959E-13

      iter #   8 total cpu time :   391.2 secs   av.it.:   8.3
      thresh= 4.426E-08 alpha_mix =  0.700 |ddv_scf|^2 =  2.735E-16

     End of self-consistent calculation

     Convergence has been achieved 
 
     Number of q in the star =    1
     List of q in the star:
          1   0.000000000   0.000000000  -0.306661924

     Diagonalizing the dynamical matrix

     q = (    0.000000000   0.000000000  -0.306661924 ) 

 **************************************************************************
     freq (    1) =       0.975353 [THz] =      32.534282 [cm-1]
     freq (    2) =       0.975353 [THz] =      32.534282 [cm-1]
     freq (    3) =       0.975353 [THz] =      32.534282 [cm-1]
     freq (    4) =       0.975353 [THz] =      32.534282 [cm-1]
     freq (    5) =       2.742671 [THz] =      91.485649 [cm-1]
     freq (    6) =       2.742671 [THz] =      91.485649 [cm-1]
 **************************************************************************

     Calculation of q =    0.0000000   0.2886751   0.0000000
 
     Parallelization info
     --------------------
     sticks:   dense  smooth     PW     G-vecs:    dense   smooth      PW
     Min         140      69     23                 6156     2172     397
     Max         141      70     24                 6161     2184     400
     Sum        1123     559    187                49261    17417    3189
 


     bravais-lattice index     =            4
     lattice parameter (alat)  =       7.1200  a.u.
     unit-cell volume          =     509.6602 (a.u.)^3
     number of atoms/cell      =            2
     number of atomic types    =            1
     number of electrons       =        18.00
     number of Kohn-Sham states=           13
     kinetic-energy cutoff     =      40.0000  Ry
     charge density cutoff     =     320.0000  Ry
     Exchange-correlation      = SLA  PW   PBE  PBE ( 1  4  3  4 0 0)

     celldm(1)=   7.120000  celldm(2)=   0.000000  celldm(3)=   1.630460
     celldm(4)=   0.000000  celldm(5)=   0.000000  celldm(6)=   0.000000

     crystal axes: (cart. coord. in units of alat)
               a(1) = (   1.000000   0.000000   0.000000 )  
               a(2) = (  -0.500000   0.866025   0.000000 )  
               a(3) = (   0.000000   0.000000   1.630460 )  

     reciprocal axes: (cart. coord. in units 2 pi/alat)
               b(1) = (  1.000000  0.577350  0.000000 )  
               b(2) = (  0.000000  1.154701  0.000000 )  
               b(3) = (  0.000000  0.000000  0.613324 )  


     PseudoPot. # 1 for Na read from file:
     ./Na_pbe_v1.uspp.F.UPF
     MD5 check sum: 76a99c7e9422403d3e93cbc85ab7bccb
     Pseudo is Ultrasoft, Zval =  9.0
     Generated by new atomic code, or converted to UPF format
     Using radial grid of  819 points,  5 beta functions with: 
                l(1) =   0
                l(2) =   0
                l(3) =   1
                l(4) =   1
                l(5) =   2
     Q(r) pseudized with  8 coefficients,  rinner =    1.250   1.250   1.250
                                                       1.250   1.250

     atomic species   valence    mass     pseudopotential
        Na             9.00    22.99000     Na( 1.00)

     24 Sym. Ops., with inversion, found



   Cartesian axes

     site n.     atom                  positions (alat units)
         1           Na  tau(   1) = (   0.0000000   0.0000000   0.0000000  )
         2           Na  tau(   2) = (   0.4999999   0.2886751   0.8152300  )

     number of k points=  3600  Marzari-Vanderbilt smearing, width (Ry)=  0.0200

     Number of k-points >= 100: set verbosity='high' to print them.

     Dense  grid:    49261 G-vectors     FFT dimensions: (  45,  45,  72)

     Smooth grid:    17417 G-vectors     FFT dimensions: (  30,  30,  48)

     Largest allocated arrays     est. size (Mb)     dimensions
        Kohn-Sham Wavefunctions         0.06 Mb     (     284,   13)
        NL pseudopotentials             0.11 Mb     (     284,   26)
        Each V/rho on FFT grid          0.28 Mb     (   18225)
        Each G-vector array             0.05 Mb     (    6161)
        G-vector shells                 0.01 Mb     (    1776)
     Largest temporary arrays     est. size (Mb)     dimensions
        Auxiliary wavefunctions         0.23 Mb     (     284,   52)
        Each subspace H/S matrix        0.01 Mb     (      26,   26)
        Each <psi_i|beta_j> matrix      0.01 Mb     (      26,   13)

     The potential is recalculated from file :
     ./na_hcp_7.12/_ph0/na_hcp_7.12.save/charge-density.dat

     Starting wfc are   10 atomic +    3 random wfc

     Band Structure Calculation
     Davidson diagonalization with overlap

     ethr =  5.56E-11,  avg # of iterations = 23.1

     total cpu time spent up to now is       25.9 secs

     End of band structure calculation

     Number of k-points >= 100: set verbosity='high' to print the bands.

     the Fermi energy is     1.5280 ev

     Writing output data file na_hcp_7.12.save

                                                                                

     bravais-lattice index     =            4
     lattice parameter (alat)  =       7.1200  a.u.
     unit-cell volume          =     509.6602 (a.u.)^3
     number of atoms/cell      =            2
     number of atomic types    =            1
     kinetic-energy cut-off    =      40.0000  Ry
     charge density cut-off    =     320.0000  Ry
     convergence threshold     =      1.0E-15
     beta                      =       0.7000
     number of iterations used =            4
     Exchange-correlation      = SLA  PW   PBE  PBE ( 1  4  3  4 0 0)


     celldm(1)=    7.12000  celldm(2)=    0.00000  celldm(3)=    1.63046
     celldm(4)=    0.00000  celldm(5)=    0.00000  celldm(6)=    0.00000

     crystal axes: (cart. coord. in units of alat)
               a(1) = (  1.0000  0.0000  0.0000 )  
               a(2) = ( -0.5000  0.8660  0.0000 )  
               a(3) = (  0.0000  0.0000  1.6305 )  

     reciprocal axes: (cart. coord. in units 2 pi/alat)
               b(1) = (  1.0000  0.5774  0.0000 )  
               b(2) = (  0.0000  1.1547  0.0000 )  
               b(3) = (  0.0000  0.0000  0.6133 )  


     Atoms inside the unit cell: 

     Cartesian axes

     site n.  atom      mass           positions (alat units)
        1     Na  22.9900   tau(    1) = (    0.00000    0.00000    0.00000  )
        2     Na  22.9900   tau(    2) = (    0.50000    0.28868    0.81523  )

     Computing dynamical matrix for 
                    q = (   0.0000000   0.2886751   0.0000000 )
 
      4 Sym.Ops. (no q -> -q+G )


     G cutoff =  410.9133  (   6161 G-vectors)     FFT grid: ( 45, 45, 72)
     G cutoff =  205.4567  (   2172 G-vectors)  smooth grid: ( 30, 30, 48)

     number of k points=  3600  Marzari-Vanderbilt smearing, width (Ry)=  0.0200

     PseudoPot. # 1 for Na read from file:
     ./Na_pbe_v1.uspp.F.UPF
     MD5 check sum: 76a99c7e9422403d3e93cbc85ab7bccb
     Pseudo is Ultrasoft, Zval =  9.0
     Generated by new atomic code, or converted to UPF format
     Using radial grid of  819 points,  5 beta functions with: 
                l(1) =   0
                l(2) =   0
                l(3) =   1
                l(4) =   1
                l(5) =   2
     Q(r) pseudized with  8 coefficients,  rinner =    1.250   1.250   1.250
                                                       1.250   1.250

     Mode symmetry, C_2v (mm2)  point group:


     Atomic displacements:
     There are   6 irreducible representations

     Representation     1      1 modes -A_1  D_1  S_1  To be done

     Representation     2      1 modes -A_1  D_1  S_1  To be done

     Representation     3      1 modes -B_1  D_3  S_3  To be done

     Representation     4      1 modes -B_1  D_3  S_3  To be done

     Representation     5      1 modes -B_2  D_4  S_4  To be done

     Representation     6      1 modes -B_2  D_4  S_4  To be done



     Alpha used in Ewald sum =   2.8000
     PHONON       :  6m13.39s CPU     6m51.71s WALL



     Representation #  1 mode #   1

     Self-consistent Calculation

      iter #   1 total cpu time :   414.2 secs   av.it.:   5.7
      thresh= 1.000E-02 alpha_mix =  0.700 |ddv_scf|^2 =  5.300E-04

      iter #   2 total cpu time :   431.3 secs   av.it.:   7.3
      thresh= 2.302E-03 alpha_mix =  0.700 |ddv_scf|^2 =  1.925E-02

      iter #   3 total cpu time :   454.0 secs   av.it.:   5.3
      thresh= 1.000E-02 alpha_mix =  0.700 |ddv_scf|^2 =  4.530E-07

      iter #   4 total cpu time :   461.3 secs   av.it.:   8.2
      thresh= 6.731E-05 alpha_mix =  0.700 |ddv_scf|^2 =  2.670E-08

      iter #   5 total cpu time :   468.4 secs   av.it.:   8.3
      thresh= 1.634E-05 alpha_mix =  0.700 |ddv_scf|^2 =  6.533E-10

      iter #   6 total cpu time :   475.5 secs   av.it.:   8.7
      thresh= 2.556E-06 alpha_mix =  0.700 |ddv_scf|^2 =  1.135E-10

      iter #   7 total cpu time :   480.8 secs   av.it.:   8.0
      thresh= 1.065E-06 alpha_mix =  0.700 |ddv_scf|^2 =  1.480E-09

      iter #   8 total cpu time :   486.9 secs   av.it.:   6.5
      thresh= 3.847E-06 alpha_mix =  0.700 |ddv_scf|^2 =  2.760E-12

      iter #   9 total cpu time :   491.7 secs   av.it.:   8.7
      thresh= 1.661E-07 alpha_mix =  0.700 |ddv_scf|^2 =  4.845E-13

      iter #  10 total cpu time :   496.1 secs   av.it.:   7.7
      thresh= 6.961E-08 alpha_mix =  0.700 |ddv_scf|^2 =  1.917E-12

      iter #  11 total cpu time :   510.0 secs   av.it.:   6.9
      thresh= 1.385E-07 alpha_mix =  0.700 |ddv_scf|^2 =  1.541E-15

      iter #  12 total cpu time :   523.2 secs   av.it.:   8.9
      thresh= 3.926E-09 alpha_mix =  0.700 |ddv_scf|^2 =  9.038E-17

     End of self-consistent calculation

     Convergence has been achieved 


     Representation #  2 mode #   2

     Self-consistent Calculation

      iter #   1 total cpu time :   532.8 secs   av.it.:   5.7
      thresh= 1.000E-02 alpha_mix =  0.700 |ddv_scf|^2 =  5.300E-04

      iter #   2 total cpu time :   539.3 secs   av.it.:   7.3
      thresh= 2.302E-03 alpha_mix =  0.700 |ddv_scf|^2 =  1.925E-02

      iter #   3 total cpu time :   548.0 secs   av.it.:   5.3
      thresh= 1.000E-02 alpha_mix =  0.700 |ddv_scf|^2 =  4.530E-07

      iter #   4 total cpu time :   552.6 secs   av.it.:   8.2
      thresh= 6.730E-05 alpha_mix =  0.700 |ddv_scf|^2 =  2.670E-08

      iter #   5 total cpu time :   562.8 secs   av.it.:   8.3
      thresh= 1.634E-05 alpha_mix =  0.700 |ddv_scf|^2 =  6.532E-10

      iter #   6 total cpu time :   568.5 secs   av.it.:   8.7
      thresh= 2.556E-06 alpha_mix =  0.700 |ddv_scf|^2 =  1.054E-10

      iter #   7 total cpu time :   581.4 secs   av.it.:   8.1
      thresh= 1.027E-06 alpha_mix =  0.700 |ddv_scf|^2 =  1.446E-09

      iter #   8 total cpu time :   587.7 secs   av.it.:   6.5
      thresh= 3.803E-06 alpha_mix =  0.700 |ddv_scf|^2 =  2.866E-12

      iter #   9 total cpu time :   594.2 secs   av.it.:   8.7
      thresh= 1.693E-07 alpha_mix =  0.700 |ddv_scf|^2 =  4.824E-13

      iter #  10 total cpu time :   600.2 secs   av.it.:   7.7
      thresh= 6.946E-08 alpha_mix =  0.700 |ddv_scf|^2 =  1.922E-12

      iter #  11 total cpu time :   606.3 secs   av.it.:   6.9
      thresh= 1.386E-07 alpha_mix =  0.700 |ddv_scf|^2 =  1.540E-15

      iter #  12 total cpu time :   615.0 secs   av.it.:   8.9
      thresh= 3.925E-09 alpha_mix =  0.700 |ddv_scf|^2 =  9.064E-17

     End of self-consistent calculation

     Convergence has been achieved 


     Representation #  3 mode #   3

     Self-consistent Calculation

      iter #   1 total cpu time :   620.2 secs   av.it.:   5.3
      thresh= 1.000E-02 alpha_mix =  0.700 |ddv_scf|^2 =  3.093E-06

      iter #   2 total cpu time :   626.3 secs   av.it.:   8.3
      thresh= 1.759E-04 alpha_mix =  0.700 |ddv_scf|^2 =  4.964E-08

      iter #   3 total cpu time :   633.0 secs   av.it.:   8.6
      thresh= 2.228E-05 alpha_mix =  0.700 |ddv_scf|^2 =  2.313E-09

      iter #   4 total cpu time :   643.3 secs   av.it.:   8.2
      thresh= 4.810E-06 alpha_mix =  0.700 |ddv_scf|^2 =  1.369E-11

      iter #   5 total cpu time :   651.1 secs   av.it.:   8.3
      thresh= 3.700E-07 alpha_mix =  0.700 |ddv_scf|^2 =  1.027E-13

      iter #   6 total cpu time :   657.4 secs   av.it.:   8.7
      thresh= 3.205E-08 alpha_mix =  0.700 |ddv_scf|^2 =  3.672E-16

     End of self-consistent calculation

     Convergence has been achieved 


     Representation #  4 mode #   4

     Self-consistent Calculation

      iter #   1 total cpu time :   664.7 secs   av.it.:   5.3
      thresh= 1.000E-02 alpha_mix =  0.700 |ddv_scf|^2 =  3.093E-06

      iter #   2 total cpu time :   676.7 secs   av.it.:   8.3
      thresh= 1.759E-04 alpha_mix =  0.700 |ddv_scf|^2 =  4.964E-08

      iter #   3 total cpu time :   694.2 secs   av.it.:   8.6
      thresh= 2.228E-05 alpha_mix =  0.700 |ddv_scf|^2 =  2.313E-09

      iter #   4 total cpu time :   699.8 secs   av.it.:   8.2
      thresh= 4.810E-06 alpha_mix =  0.700 |ddv_scf|^2 =  1.369E-11

      iter #   5 total cpu time :   712.7 secs   av.it.:   8.3
      thresh= 3.700E-07 alpha_mix =  0.700 |ddv_scf|^2 =  1.027E-13

      iter #   6 total cpu time :   726.7 secs   av.it.:   8.7
      thresh= 3.205E-08 alpha_mix =  0.700 |ddv_scf|^2 =  3.672E-16

     End of self-consistent calculation

     Convergence has been achieved 


     Representation #  5 mode #   5

     Self-consistent Calculation

      iter #   1 total cpu time :   738.5 secs   av.it.:   5.5
      thresh= 1.000E-02 alpha_mix =  0.700 |ddv_scf|^2 =  8.455E-06

      iter #   2 total cpu time :   752.2 secs   av.it.:   8.4
      thresh= 2.908E-04 alpha_mix =  0.700 |ddv_scf|^2 =  1.796E-06

      iter #   3 total cpu time :   760.5 secs   av.it.:   7.7
      thresh= 1.340E-04 alpha_mix =  0.700 |ddv_scf|^2 =  1.053E-08

      iter #   4 total cpu time :   766.7 secs   av.it.:   8.8
      thresh= 1.026E-05 alpha_mix =  0.700 |ddv_scf|^2 =  3.685E-10

      iter #   5 total cpu time :   775.4 secs   av.it.:   8.2
      thresh= 1.920E-06 alpha_mix =  0.700 |ddv_scf|^2 =  2.141E-12

      iter #   6 total cpu time :   788.3 secs   av.it.:   8.6
      thresh= 1.463E-07 alpha_mix =  0.700 |ddv_scf|^2 =  1.133E-14

      iter #   7 total cpu time :   795.4 secs   av.it.:   8.3
      thresh= 1.064E-08 alpha_mix =  0.700 |ddv_scf|^2 =  5.293E-16

     End of self-consistent calculation

     Convergence has been achieved 


     Representation #  6 mode #   6

     Self-consistent Calculation

      iter #   1 total cpu time :   808.9 secs   av.it.:   5.5
      thresh= 1.000E-02 alpha_mix =  0.700 |ddv_scf|^2 =  8.455E-06

      iter #   2 total cpu time :   815.0 secs   av.it.:   8.4
      thresh= 2.908E-04 alpha_mix =  0.700 |ddv_scf|^2 =  1.796E-06

      iter #   3 total cpu time :   819.6 secs   av.it.:   7.7
      thresh= 1.340E-04 alpha_mix =  0.700 |ddv_scf|^2 =  1.053E-08

      iter #   4 total cpu time :   830.1 secs   av.it.:   8.8
      thresh= 1.026E-05 alpha_mix =  0.700 |ddv_scf|^2 =  3.685E-10

      iter #   5 total cpu time :   846.2 secs   av.it.:   8.2
      thresh= 1.920E-06 alpha_mix =  0.700 |ddv_scf|^2 =  2.141E-12

      iter #   6 total cpu time :   852.6 secs   av.it.:   8.6
      thresh= 1.463E-07 alpha_mix =  0.700 |ddv_scf|^2 =  1.133E-14

      iter #   7 total cpu time :   857.4 secs   av.it.:   8.4
      thresh= 1.064E-08 alpha_mix =  0.700 |ddv_scf|^2 =  5.293E-16

     End of self-consistent calculation

     Convergence has been achieved 
 
     Number of q in the star =    6
     List of q in the star:
          1   0.000000000   0.288675135   0.000000000
          2  -0.250000000   0.144337567   0.000000000
          3   0.250000000  -0.144337567   0.000000000
          4  -0.250000000  -0.144337567   0.000000000
          5   0.250000000   0.144337567   0.000000000
          6   0.000000000  -0.288675135   0.000000000

     Diagonalizing the dynamical matrix

     q = (    0.000000000   0.288675135   0.000000000 ) 

 **************************************************************************
     freq (    1) =       1.139948 [THz] =      38.024583 [cm-1]
     freq (    2) =       1.366550 [THz] =      45.583197 [cm-1]
     freq (    3) =       2.317239 [THz] =      77.294778 [cm-1]
     freq (    4) =       2.428859 [THz] =      81.018024 [cm-1]
     freq (    5) =       2.960565 [THz] =      98.753803 [cm-1]
     freq (    6) =       3.499231 [THz] =     116.721778 [cm-1]
 **************************************************************************

     Mode symmetry, C_2v (mm2)  point group:

     freq (  1 -  1) =         38.0  [cm-1]   --> B_1  D_3  S_3      
     freq (  2 -  2) =         45.6  [cm-1]   --> B_2  D_4  S_4      
     freq (  3 -  3) =         77.3  [cm-1]   --> B_1  D_3  S_3      
     freq (  4 -  4) =         81.0  [cm-1]   --> A_1  D_1  S_1      
     freq (  5 -  5) =         98.8  [cm-1]   --> A_1  D_1  S_1      
     freq (  6 -  6) =        116.7  [cm-1]   --> B_2  D_4  S_4      

     Calculation of q =    0.0000000   0.2886751   0.1533310
 
     Parallelization info
     --------------------
     sticks:   dense  smooth     PW     G-vecs:    dense   smooth      PW
     Min         140      69     22                 6156     2171     407
     Max         141      70     24                 6161     2186     412
     Sum        1123     559    187                49261    17417    3285
 


     bravais-lattice index     =            4
     lattice parameter (alat)  =       7.1200  a.u.
     unit-cell volume          =     509.6602 (a.u.)^3
     number of atoms/cell      =            2
     number of atomic types    =            1
     number of electrons       =        18.00
     number of Kohn-Sham states=           13
     kinetic-energy cutoff     =      40.0000  Ry
     charge density cutoff     =     320.0000  Ry
     Exchange-correlation      = SLA  PW   PBE  PBE ( 1  4  3  4 0 0)

     celldm(1)=   7.120000  celldm(2)=   0.000000  celldm(3)=   1.630460
     celldm(4)=   0.000000  celldm(5)=   0.000000  celldm(6)=   0.000000

     crystal axes: (cart. coord. in units of alat)
               a(1) = (   1.000000   0.000000   0.000000 )  
               a(2) = (  -0.500000   0.866025   0.000000 )  
               a(3) = (   0.000000   0.000000   1.630460 )  

     reciprocal axes: (cart. coord. in units 2 pi/alat)
               b(1) = (  1.000000  0.577350  0.000000 )  
               b(2) = (  0.000000  1.154701  0.000000 )  
               b(3) = (  0.000000  0.000000  0.613324 )  


     PseudoPot. # 1 for Na read from file:
     ./Na_pbe_v1.uspp.F.UPF
     MD5 check sum: 76a99c7e9422403d3e93cbc85ab7bccb
     Pseudo is Ultrasoft, Zval =  9.0
     Generated by new atomic code, or converted to UPF format
     Using radial grid of  819 points,  5 beta functions with: 
                l(1) =   0
                l(2) =   0
                l(3) =   1
                l(4) =   1
                l(5) =   2
     Q(r) pseudized with  8 coefficients,  rinner =    1.250   1.250   1.250
                                                       1.250   1.250

     atomic species   valence    mass     pseudopotential
        Na             9.00    22.99000     Na( 1.00)

     24 Sym. Ops., with inversion, found



   Cartesian axes

     site n.     atom                  positions (alat units)
         1           Na  tau(   1) = (   0.0000000   0.0000000   0.0000000  )
         2           Na  tau(   2) = (   0.4999999   0.2886751   0.8152300  )

     number of k points=  7200  Marzari-Vanderbilt smearing, width (Ry)=  0.0200

     Number of k-points >= 100: set verbosity='high' to print them.

     Dense  grid:    49261 G-vectors     FFT dimensions: (  45,  45,  72)

     Smooth grid:    17417 G-vectors     FFT dimensions: (  30,  30,  48)

     Largest allocated arrays     est. size (Mb)     dimensions
        Kohn-Sham Wavefunctions         0.06 Mb     (     292,   13)
        NL pseudopotentials             0.12 Mb     (     292,   26)
        Each V/rho on FFT grid          0.28 Mb     (   18225)
        Each G-vector array             0.05 Mb     (    6161)
        G-vector shells                 0.01 Mb     (    1842)
     Largest temporary arrays     est. size (Mb)     dimensions
        Auxiliary wavefunctions         0.23 Mb     (     292,   52)
        Each subspace H/S matrix        0.01 Mb     (      26,   26)
        Each <psi_i|beta_j> matrix      0.01 Mb     (      26,   13)

     The potential is recalculated from file :
     ./na_hcp_7.12/_ph0/na_hcp_7.12.save/charge-density.dat

     Starting wfc are   10 atomic +    3 random wfc

     Band Structure Calculation
     Davidson diagonalization with overlap

     ethr =  5.56E-11,  avg # of iterations = 23.2

     total cpu time spent up to now is       69.4 secs

     End of band structure calculation

     Number of k-points >= 100: set verbosity='high' to print the bands.

     the Fermi energy is     1.5280 ev

     Writing output data file na_hcp_7.12.save

                                                                                

     bravais-lattice index     =            4
     lattice parameter (alat)  =       7.1200  a.u.
     unit-cell volume          =     509.6602 (a.u.)^3
     number of atoms/cell      =            2
     number of atomic types    =            1
     kinetic-energy cut-off    =      40.0000  Ry
     charge density cut-off    =     320.0000  Ry
     convergence threshold     =      1.0E-15
     beta                      =       0.7000
     number of iterations used =            4
     Exchange-correlation      = SLA  PW   PBE  PBE ( 1  4  3  4 0 0)


     celldm(1)=    7.12000  celldm(2)=    0.00000  celldm(3)=    1.63046
     celldm(4)=    0.00000  celldm(5)=    0.00000  celldm(6)=    0.00000

     crystal axes: (cart. coord. in units of alat)
               a(1) = (  1.0000  0.0000  0.0000 )  
               a(2) = ( -0.5000  0.8660  0.0000 )  
               a(3) = (  0.0000  0.0000  1.6305 )  

     reciprocal axes: (cart. coord. in units 2 pi/alat)
               b(1) = (  1.0000  0.5774  0.0000 )  
               b(2) = (  0.0000  1.1547  0.0000 )  
               b(3) = (  0.0000  0.0000  0.6133 )  


     Atoms inside the unit cell: 

     Cartesian axes

     site n.  atom      mass           positions (alat units)
        1     Na  22.9900   tau(    1) = (    0.00000    0.00000    0.00000  )
        2     Na  22.9900   tau(    2) = (    0.50000    0.28868    0.81523  )

     Computing dynamical matrix for 
                    q = (   0.0000000   0.2886751   0.1533310 )
 
      2 Sym.Ops. (no q -> -q+G )


     G cutoff =  410.9133  (   6161 G-vectors)     FFT grid: ( 45, 45, 72)
     G cutoff =  205.4567  (   2172 G-vectors)  smooth grid: ( 30, 30, 48)

     number of k points=  7200  Marzari-Vanderbilt smearing, width (Ry)=  0.0200

     PseudoPot. # 1 for Na read from file:
     ./Na_pbe_v1.uspp.F.UPF
     MD5 check sum: 76a99c7e9422403d3e93cbc85ab7bccb
     Pseudo is Ultrasoft, Zval =  9.0
     Generated by new atomic code, or converted to UPF format
     Using radial grid of  819 points,  5 beta functions with: 
                l(1) =   0
                l(2) =   0
                l(3) =   1
                l(4) =   1
                l(5) =   2
     Q(r) pseudized with  8 coefficients,  rinner =    1.250   1.250   1.250
                                                       1.250   1.250

     Mode symmetry, C_s (m)     point group:


     Atomic displacements:
     There are   6 irreducible representations

     Representation     1      1 modes -A'  To be done

     Representation     2      1 modes -A'  To be done

     Representation     3      1 modes -A'  To be done

     Representation     4      1 modes -A'  To be done

     Representation     5      1 modes -A''  To be done

     Representation     6      1 modes -A''  To be done



     Alpha used in Ewald sum =   2.8000
     PHONON       : 14m 6.03s CPU    15m10.15s WALL



     Representation #  1 mode #   1

     Self-consistent Calculation

      iter #   1 total cpu time :   914.1 secs   av.it.:   5.7
      thresh= 1.000E-02 alpha_mix =  0.700 |ddv_scf|^2 =  2.074E-04

      iter #   2 total cpu time :   929.4 secs   av.it.:   7.6
      thresh= 1.440E-03 alpha_mix =  0.700 |ddv_scf|^2 =  4.173E-03

      iter #   3 total cpu time :   941.9 secs   av.it.:   5.5
      thresh= 6.460E-03 alpha_mix =  0.700 |ddv_scf|^2 =  1.912E-06

      iter #   4 total cpu time :   953.3 secs   av.it.:   7.8
      thresh= 1.383E-04 alpha_mix =  0.700 |ddv_scf|^2 =  2.751E-07

      iter #   5 total cpu time :   966.3 secs   av.it.:   7.8
      thresh= 5.245E-05 alpha_mix =  0.700 |ddv_scf|^2 =  1.222E-09

      iter #   6 total cpu time :   982.0 secs   av.it.:   8.7
      thresh= 3.496E-06 alpha_mix =  0.700 |ddv_scf|^2 =  5.828E-11

      iter #   7 total cpu time :   997.3 secs   av.it.:   8.7
      thresh= 7.634E-07 alpha_mix =  0.700 |ddv_scf|^2 =  1.896E-11

      iter #   8 total cpu time :  1008.0 secs   av.it.:   7.9
      thresh= 4.354E-07 alpha_mix =  0.700 |ddv_scf|^2 =  5.173E-11

      iter #   9 total cpu time :  1018.6 secs   av.it.:   7.4
      thresh= 7.192E-07 alpha_mix =  0.700 |ddv_scf|^2 =  2.302E-13

      iter #  10 total cpu time :  1038.6 secs   av.it.:   8.8
      thresh= 4.798E-08 alpha_mix =  0.700 |ddv_scf|^2 =  2.460E-13

      iter #  11 total cpu time :  1048.8 secs   av.it.:   7.5
      thresh= 4.960E-08 alpha_mix =  0.700 |ddv_scf|^2 =  4.231E-14

      iter #  12 total cpu time :  1071.0 secs   av.it.:   7.8
      thresh= 2.057E-08 alpha_mix =  0.700 |ddv_scf|^2 =  1.488E-14

      iter #  13 total cpu time :  1089.7 secs   av.it.:   7.7
      thresh= 1.220E-08 alpha_mix =  0.700 |ddv_scf|^2 =  7.218E-16

     End of self-consistent calculation

     Convergence has been achieved 


     Representation #  2 mode #   2

     Self-consistent Calculation

      iter #   1 total cpu time :  1126.6 secs   av.it.:   5.7
      thresh= 1.000E-02 alpha_mix =  0.700 |ddv_scf|^2 =  3.551E-05

      iter #   2 total cpu time :  1149.1 secs   av.it.:   8.0
      thresh= 5.959E-04 alpha_mix =  0.700 |ddv_scf|^2 =  4.360E-04

      iter #   3 total cpu time :  1159.0 secs   av.it.:   5.9
      thresh= 2.088E-03 alpha_mix =  0.700 |ddv_scf|^2 =  1.403E-05

      iter #   4 total cpu time :  1172.1 secs   av.it.:   7.2
      thresh= 3.746E-04 alpha_mix =  0.700 |ddv_scf|^2 =  6.808E-08

      iter #   5 total cpu time :  1183.7 secs   av.it.:   8.6
      thresh= 2.609E-05 alpha_mix =  0.700 |ddv_scf|^2 =  7.814E-10

      iter #   6 total cpu time :  1194.0 secs   av.it.:   8.9
      thresh= 2.795E-06 alpha_mix =  0.700 |ddv_scf|^2 =  6.394E-11

      iter #   7 total cpu time :  1206.9 secs   av.it.:   8.8
      thresh= 7.997E-07 alpha_mix =  0.700 |ddv_scf|^2 =  5.148E-11

      iter #   8 total cpu time :  1221.4 secs   av.it.:   7.7
      thresh= 7.175E-07 alpha_mix =  0.700 |ddv_scf|^2 =  1.397E-10

      iter #   9 total cpu time :  1232.5 secs   av.it.:   7.0
      thresh= 1.182E-06 alpha_mix =  0.700 |ddv_scf|^2 =  4.586E-12

      iter #  10 total cpu time :  1243.3 secs   av.it.:   7.6
      thresh= 2.141E-07 alpha_mix =  0.700 |ddv_scf|^2 =  2.420E-12

      iter #  11 total cpu time :  1254.8 secs   av.it.:   7.6
      thresh= 1.556E-07 alpha_mix =  0.700 |ddv_scf|^2 =  2.484E-14

      iter #  12 total cpu time :  1286.0 secs   av.it.:   7.9
      thresh= 1.576E-08 alpha_mix =  0.700 |ddv_scf|^2 =  2.774E-15

      iter #  13 total cpu time :  1295.7 secs   av.it.:   8.7
      thresh= 5.267E-09 alpha_mix =  0.700 |ddv_scf|^2 =  7.402E-17

     End of self-consistent calculation

     Convergence has been achieved 


     Representation #  3 mode #   3

     Self-consistent Calculation

      iter #   1 total cpu time :  1307.3 secs   av.it.:   5.8
      thresh= 1.000E-02 alpha_mix =  0.700 |ddv_scf|^2 =  2.376E-04

      iter #   2 total cpu time :  1318.7 secs   av.it.:   7.6
      thresh= 1.541E-03 alpha_mix =  0.700 |ddv_scf|^2 =  4.845E-03

      iter #   3 total cpu time :  1328.5 secs   av.it.:   5.5
      thresh= 6.960E-03 alpha_mix =  0.700 |ddv_scf|^2 =  6.185E-07

      iter #   4 total cpu time :  1340.2 secs   av.it.:   8.0
      thresh= 7.864E-05 alpha_mix =  0.700 |ddv_scf|^2 =  2.878E-07

      iter #   5 total cpu time :  1363.2 secs   av.it.:   7.7
      thresh= 5.365E-05 alpha_mix =  0.700 |ddv_scf|^2 =  1.518E-09

      iter #   6 total cpu time :  1384.1 secs   av.it.:   8.7
      thresh= 3.896E-06 alpha_mix =  0.700 |ddv_scf|^2 =  7.358E-11

      iter #   7 total cpu time :  1395.7 secs   av.it.:   8.6
      thresh= 8.578E-07 alpha_mix =  0.700 |ddv_scf|^2 =  2.525E-12

      iter #   8 total cpu time :  1407.5 secs   av.it.:   9.0
      thresh= 1.589E-07 alpha_mix =  0.700 |ddv_scf|^2 =  1.263E-11

      iter #   9 total cpu time :  1419.5 secs   av.it.:   7.1
      thresh= 3.554E-07 alpha_mix =  0.700 |ddv_scf|^2 =  1.606E-12

      iter #  10 total cpu time :  1430.7 secs   av.it.:   7.9
      thresh= 1.267E-07 alpha_mix =  0.700 |ddv_scf|^2 =  4.889E-13

      iter #  11 total cpu time :  1462.8 secs   av.it.:   7.3
      thresh= 6.992E-08 alpha_mix =  0.700 |ddv_scf|^2 =  1.580E-14

      iter #  12 total cpu time :  1483.6 secs   av.it.:   8.1
      thresh= 1.257E-08 alpha_mix =  0.700 |ddv_scf|^2 =  1.805E-15

      iter #  13 total cpu time :  1504.4 secs   av.it.:   8.1
      thresh= 4.249E-09 alpha_mix =  0.700 |ddv_scf|^2 =  1.736E-16

     End of self-consistent calculation

     Convergence has been achieved 


     Representation #  4 mode #   4

     Self-consistent Calculation

      iter #   1 total cpu time :  1519.0 secs   av.it.:   5.7
      thresh= 1.000E-02 alpha_mix =  0.700 |ddv_scf|^2 =  6.563E-05

      iter #   2 total cpu time :  1533.0 secs   av.it.:   7.8
      thresh= 8.101E-04 alpha_mix =  0.700 |ddv_scf|^2 =  1.107E-03

      iter #   3 total cpu time :  1543.3 secs   av.it.:   5.7
      thresh= 3.327E-03 alpha_mix =  0.700 |ddv_scf|^2 =  6.991E-06

      iter #   4 total cpu time :  1555.0 secs   av.it.:   7.5
      thresh= 2.644E-04 alpha_mix =  0.700 |ddv_scf|^2 =  1.072E-07

      iter #   5 total cpu time :  1567.1 secs   av.it.:   8.2
      thresh= 3.275E-05 alpha_mix =  0.700 |ddv_scf|^2 =  8.855E-10

      iter #   6 total cpu time :  1576.8 secs   av.it.:   8.9
      thresh= 2.976E-06 alpha_mix =  0.700 |ddv_scf|^2 =  7.456E-11

      iter #   7 total cpu time :  1596.5 secs   av.it.:   8.7
      thresh= 8.635E-07 alpha_mix =  0.700 |ddv_scf|^2 =  1.455E-11

      iter #   8 total cpu time :  1623.2 secs   av.it.:   8.5
      thresh= 3.815E-07 alpha_mix =  0.700 |ddv_scf|^2 =  1.631E-10

      iter #   9 total cpu time :  1635.2 secs   av.it.:   6.5
      thresh= 1.277E-06 alpha_mix =  0.700 |ddv_scf|^2 =  7.215E-13

      iter #  10 total cpu time :  1652.0 secs   av.it.:   8.0
      thresh= 8.494E-08 alpha_mix =  0.700 |ddv_scf|^2 =  2.849E-12

      iter #  11 total cpu time :  1662.4 secs   av.it.:   7.1
      thresh= 1.688E-07 alpha_mix =  0.700 |ddv_scf|^2 =  2.469E-14

      iter #  12 total cpu time :  1673.0 secs   av.it.:   8.1
      thresh= 1.571E-08 alpha_mix =  0.700 |ddv_scf|^2 =  6.769E-15

      iter #  13 total cpu time :  1683.9 secs   av.it.:   8.2
      thresh= 8.227E-09 alpha_mix =  0.700 |ddv_scf|^2 =  1.549E-16

     End of self-consistent calculation

     Convergence has been achieved 


     Representation #  5 mode #   5

     Self-consistent Calculation

      iter #   1 total cpu time :  1696.3 secs   av.it.:   5.3
      thresh= 1.000E-02 alpha_mix =  0.700 |ddv_scf|^2 =  3.086E-06

      iter #   2 total cpu time :  1706.8 secs   av.it.:   8.4
      thresh= 1.757E-04 alpha_mix =  0.700 |ddv_scf|^2 =  4.946E-08

      iter #   3 total cpu time :  1717.8 secs   av.it.:   8.7
      thresh= 2.224E-05 alpha_mix =  0.700 |ddv_scf|^2 =  2.326E-09

      iter #   4 total cpu time :  1739.5 secs   av.it.:   8.1
      thresh= 4.823E-06 alpha_mix =  0.700 |ddv_scf|^2 =  1.067E-11

      iter #   5 total cpu time :  1752.2 secs   av.it.:   8.4
      thresh= 3.267E-07 alpha_mix =  0.700 |ddv_scf|^2 =  7.579E-14

      iter #   6 total cpu time :  1762.9 secs   av.it.:   8.7
      thresh= 2.753E-08 alpha_mix =  0.700 |ddv_scf|^2 =  3.485E-16

     End of self-consistent calculation

     Convergence has been achieved 


     Representation #  6 mode #   6

     Self-consistent Calculation

      iter #   1 total cpu time :  1786.9 secs   av.it.:   5.3
      thresh= 1.000E-02 alpha_mix =  0.700 |ddv_scf|^2 =  3.086E-06

      iter #   2 total cpu time :  1797.7 secs   av.it.:   8.4
      thresh= 1.757E-04 alpha_mix =  0.700 |ddv_scf|^2 =  4.946E-08

      iter #   3 total cpu time :  1810.2 secs   av.it.:   8.7
      thresh= 2.224E-05 alpha_mix =  0.700 |ddv_scf|^2 =  2.326E-09

      iter #   4 total cpu time :  1820.8 secs   av.it.:   8.1
      thresh= 4.823E-06 alpha_mix =  0.700 |ddv_scf|^2 =  1.067E-11

      iter #   5 total cpu time :  1831.7 secs   av.it.:   8.4
      thresh= 3.267E-07 alpha_mix =  0.700 |ddv_scf|^2 =  7.579E-14

      iter #   6 total cpu time :  1872.5 secs   av.it.:   8.7
      thresh= 2.753E-08 alpha_mix =  0.700 |ddv_scf|^2 =  3.485E-16

     End of self-consistent calculation

     Convergence has been achieved 
 
     Number of q in the star =   12
     List of q in the star:
          1   0.000000000   0.288675135   0.153330962
          2   0.000000000   0.288675135  -0.153330962
          3  -0.250000000   0.144337567   0.153330962
          4   0.250000000  -0.144337567   0.153330962
          5  -0.250000000  -0.144337567   0.153330962
          6   0.250000000   0.144337567   0.153330962
          7   0.000000000  -0.288675135   0.153330962
          8   0.000000000  -0.288675135  -0.153330962
          9   0.250000000   0.144337567  -0.153330962
         10   0.250000000  -0.144337567  -0.153330962
         11  -0.250000000  -0.144337567  -0.153330962
         12  -0.250000000   0.144337567  -0.153330962

     Diagonalizing the dynamical matrix

     q = (    0.000000000   0.288675135   0.153330962 ) 

 **************************************************************************
     freq (    1) =       1.371228 [THz] =      45.739251 [cm-1]
     freq (    2) =       1.573671 [THz] =      52.492002 [cm-1]
     freq (    3) =       2.194951 [THz] =      73.215696 [cm-1]
     freq (    4) =       2.650150 [THz] =      88.399493 [cm-1]
     freq (    5) =       2.781007 [THz] =      92.764420 [cm-1]
     freq (    6) =       3.418061 [THz] =     114.014242 [cm-1]
 **************************************************************************

     Mode symmetry, C_s (m)     point group:

     freq (  1 -  1) =         45.7  [cm-1]   --> A''                
     freq (  2 -  2) =         52.5  [cm-1]   --> A'                 
     freq (  3 -  3) =         73.2  [cm-1]   --> A''                
     freq (  4 -  4) =         88.4  [cm-1]   --> A'                 
     freq (  5 -  5) =         92.8  [cm-1]   --> A'                 
     freq (  6 -  6) =        114.0  [cm-1]   --> A'                 

     Calculation of q =    0.0000000   0.2886751  -0.3066619
 
     Parallelization info
     --------------------
     sticks:   dense  smooth     PW     G-vecs:    dense   smooth      PW
     Min         140      69     23                 6156     2172     397
     Max         141      70     24                 6161     2184     400
     Sum        1123     559    187                49261    17417    3189
 


     bravais-lattice index     =            4
     lattice parameter (alat)  =       7.1200  a.u.
     unit-cell volume          =     509.6602 (a.u.)^3
     number of atoms/cell      =            2
     number of atomic types    =            1
     number of electrons       =        18.00
     number of Kohn-Sham states=           13
     kinetic-energy cutoff     =      40.0000  Ry
     charge density cutoff     =     320.0000  Ry
     Exchange-correlation      = SLA  PW   PBE  PBE ( 1  4  3  4 0 0)

     celldm(1)=   7.120000  celldm(2)=   0.000000  celldm(3)=   1.630460
     celldm(4)=   0.000000  celldm(5)=   0.000000  celldm(6)=   0.000000

     crystal axes: (cart. coord. in units of alat)
               a(1) = (   1.000000   0.000000   0.000000 )  
               a(2) = (  -0.500000   0.866025   0.000000 )  
               a(3) = (   0.000000   0.000000   1.630460 )  

     reciprocal axes: (cart. coord. in units 2 pi/alat)
               b(1) = (  1.000000  0.577350  0.000000 )  
               b(2) = (  0.000000  1.154701  0.000000 )  
               b(3) = (  0.000000  0.000000  0.613324 )  


     PseudoPot. # 1 for Na read from file:
     ./Na_pbe_v1.uspp.F.UPF
     MD5 check sum: 76a99c7e9422403d3e93cbc85ab7bccb
     Pseudo is Ultrasoft, Zval =  9.0
     Generated by new atomic code, or converted to UPF format
     Using radial grid of  819 points,  5 beta functions with: 
                l(1) =   0
                l(2) =   0
                l(3) =   1
                l(4) =   1
                l(5) =   2
     Q(r) pseudized with  8 coefficients,  rinner =    1.250   1.250   1.250
                                                       1.250   1.250

     atomic species   valence    mass     pseudopotential
        Na             9.00    22.99000     Na( 1.00)

     24 Sym. Ops., with inversion, found



   Cartesian axes

     site n.     atom                  positions (alat units)
         1           Na  tau(   1) = (   0.0000000   0.0000000   0.0000000  )
         2           Na  tau(   2) = (   0.4999999   0.2886751   0.8152300  )

     number of k points=  3600  Marzari-Vanderbilt smearing, width (Ry)=  0.0200

     Number of k-points >= 100: set verbosity='high' to print them.

     Dense  grid:    49261 G-vectors     FFT dimensions: (  45,  45,  72)

     Smooth grid:    17417 G-vectors     FFT dimensions: (  30,  30,  48)

     Largest allocated arrays     est. size (Mb)     dimensions
        Kohn-Sham Wavefunctions         0.06 Mb     (     284,   13)
        NL pseudopotentials             0.11 Mb     (     284,   26)
        Each V/rho on FFT grid          0.28 Mb     (   18225)
        Each G-vector array             0.05 Mb     (    6161)
        G-vector shells                 0.01 Mb     (    1776)
     Largest temporary arrays     est. size (Mb)     dimensions
        Auxiliary wavefunctions         0.23 Mb     (     284,   52)
        Each subspace H/S matrix        0.01 Mb     (      26,   26)
        Each <psi_i|beta_j> matrix      0.01 Mb     (      26,   13)

     The potential is recalculated from file :
     ./na_hcp_7.12/_ph0/na_hcp_7.12.save/charge-density.dat

     Starting wfc are   10 atomic +    3 random wfc

     Band Structure Calculation
     Davidson diagonalization with overlap

     ethr =  5.56E-11,  avg # of iterations = 23.1

     total cpu time spent up to now is       91.6 secs

     End of band structure calculation

     Number of k-points >= 100: set verbosity='high' to print the bands.

     the Fermi energy is     1.5280 ev

     Writing output data file na_hcp_7.12.save

                                                                                

     bravais-lattice index     =            4
     lattice parameter (alat)  =       7.1200  a.u.
     unit-cell volume          =     509.6602 (a.u.)^3
     number of atoms/cell      =            2
     number of atomic types    =            1
     kinetic-energy cut-off    =      40.0000  Ry
     charge density cut-off    =     320.0000  Ry
     convergence threshold     =      1.0E-15
     beta                      =       0.7000
     number of iterations used =            4
     Exchange-correlation      = SLA  PW   PBE  PBE ( 1  4  3  4 0 0)


     celldm(1)=    7.12000  celldm(2)=    0.00000  celldm(3)=    1.63046
     celldm(4)=    0.00000  celldm(5)=    0.00000  celldm(6)=    0.00000

     crystal axes: (cart. coord. in units of alat)
               a(1) = (  1.0000  0.0000  0.0000 )  
               a(2) = ( -0.5000  0.8660  0.0000 )  
               a(3) = (  0.0000  0.0000  1.6305 )  

     reciprocal axes: (cart. coord. in units 2 pi/alat)
               b(1) = (  1.0000  0.5774  0.0000 )  
               b(2) = (  0.0000  1.1547  0.0000 )  
               b(3) = (  0.0000  0.0000  0.6133 )  


     Atoms inside the unit cell: 

     Cartesian axes

     site n.  atom      mass           positions (alat units)
        1     Na  22.9900   tau(    1) = (    0.00000    0.00000    0.00000  )
        2     Na  22.9900   tau(    2) = (    0.50000    0.28868    0.81523  )

     Computing dynamical matrix for 
                    q = (   0.0000000   0.2886751  -0.3066619 )
 
      4 Sym.Ops. (no q -> -q+G )


     G cutoff =  410.9133  (   6161 G-vectors)     FFT grid: ( 45, 45, 72)
     G cutoff =  205.4567  (   2172 G-vectors)  smooth grid: ( 30, 30, 48)

     number of k points=  3600  Marzari-Vanderbilt smearing, width (Ry)=  0.0200

     PseudoPot. # 1 for Na read from file:
     ./Na_pbe_v1.uspp.F.UPF
     MD5 check sum: 76a99c7e9422403d3e93cbc85ab7bccb
     Pseudo is Ultrasoft, Zval =  9.0
     Generated by new atomic code, or converted to UPF format
     Using radial grid of  819 points,  5 beta functions with: 
                l(1) =   0
                l(2) =   0
                l(3) =   1
                l(4) =   1
                l(5) =   2
     Q(r) pseudized with  8 coefficients,  rinner =    1.250   1.250   1.250
                                                       1.250   1.250

     Mode symmetry, C_2v (mm2)  point group:


     Atomic displacements:
     There are   6 irreducible representations

     Representation     1      1 modes -A_1  D_1  S_1  To be done

     Representation     2      1 modes -A_1  D_1  S_1  To be done

     Representation     3      1 modes -A_2  D_2  S_2  To be done

     Representation     4      1 modes -B_1  D_3  S_3  To be done

     Representation     5      1 modes -B_2  D_4  S_4  To be done

     Representation     6      1 modes -B_2  D_4  S_4  To be done



     Alpha used in Ewald sum =   2.8000
     PHONON       : 30m 2.11s CPU    31m33.00s WALL



     Representation #  1 mode #   1

     Self-consistent Calculation

      iter #   1 total cpu time :  1894.8 secs   av.it.:   5.6
      thresh= 1.000E-02 alpha_mix =  0.700 |ddv_scf|^2 =  5.677E-05

      iter #   2 total cpu time :  1900.6 secs   av.it.:   7.9
      thresh= 7.535E-04 alpha_mix =  0.700 |ddv_scf|^2 =  3.167E-04

      iter #   3 total cpu time :  1909.2 secs   av.it.:   6.7
      thresh= 1.780E-03 alpha_mix =  0.700 |ddv_scf|^2 =  3.841E-08

      iter #   4 total cpu time :  1915.9 secs   av.it.:   8.9
      thresh= 1.960E-05 alpha_mix =  0.700 |ddv_scf|^2 =  1.968E-09

      iter #   5 total cpu time :  1920.3 secs   av.it.:   8.9
      thresh= 4.437E-06 alpha_mix =  0.700 |ddv_scf|^2 =  7.245E-11

      iter #   6 total cpu time :  1925.2 secs   av.it.:   9.1
      thresh= 8.512E-07 alpha_mix =  0.700 |ddv_scf|^2 =  3.628E-12

      iter #   7 total cpu time :  1929.8 secs   av.it.:   8.8
      thresh= 1.905E-07 alpha_mix =  0.700 |ddv_scf|^2 =  3.022E-12

      iter #   8 total cpu time :  1953.3 secs   av.it.:   7.6
      thresh= 1.738E-07 alpha_mix =  0.700 |ddv_scf|^2 =  1.914E-12

      iter #   9 total cpu time :  1962.1 secs   av.it.:   7.6
      thresh= 1.383E-07 alpha_mix =  0.700 |ddv_scf|^2 =  6.102E-13

      iter #  10 total cpu time :  1968.2 secs   av.it.:   7.4
      thresh= 7.811E-08 alpha_mix =  0.700 |ddv_scf|^2 =  4.700E-16

     End of self-consistent calculation

     Convergence has been achieved 


     Representation #  2 mode #   2

     Self-consistent Calculation

      iter #   1 total cpu time :  1975.0 secs   av.it.:   5.7
      thresh= 1.000E-02 alpha_mix =  0.700 |ddv_scf|^2 =  6.368E-05

      iter #   2 total cpu time :  1983.5 secs   av.it.:   7.9
      thresh= 7.980E-04 alpha_mix =  0.700 |ddv_scf|^2 =  3.595E-04

      iter #   3 total cpu time :  1988.7 secs   av.it.:   6.7
      thresh= 1.896E-03 alpha_mix =  0.700 |ddv_scf|^2 =  4.999E-08

      iter #   4 total cpu time :  1995.5 secs   av.it.:   8.8
      thresh= 2.236E-05 alpha_mix =  0.700 |ddv_scf|^2 =  1.816E-09

      iter #   5 total cpu time :  2001.1 secs   av.it.:   8.9
      thresh= 4.261E-06 alpha_mix =  0.700 |ddv_scf|^2 =  9.354E-11

      iter #   6 total cpu time :  2007.6 secs   av.it.:   9.2
      thresh= 9.672E-07 alpha_mix =  0.700 |ddv_scf|^2 =  3.596E-12

      iter #   7 total cpu time :  2016.5 secs   av.it.:   8.8
      thresh= 1.896E-07 alpha_mix =  0.700 |ddv_scf|^2 =  3.333E-12

      iter #   8 total cpu time :  2032.3 secs   av.it.:   7.6
      thresh= 1.826E-07 alpha_mix =  0.700 |ddv_scf|^2 =  1.102E-12

      iter #   9 total cpu time :  2045.2 secs   av.it.:   7.7
      thresh= 1.050E-07 alpha_mix =  0.700 |ddv_scf|^2 =  3.760E-13

      iter #  10 total cpu time :  2052.6 secs   av.it.:   7.5
      thresh= 6.132E-08 alpha_mix =  0.700 |ddv_scf|^2 =  8.242E-16

     End of self-consistent calculation

     Convergence has been achieved 


     Representation #  3 mode #   3

     Self-consistent Calculation

      iter #   1 total cpu time :  2057.6 secs   av.it.:   5.3
      thresh= 1.000E-02 alpha_mix =  0.700 |ddv_scf|^2 =  3.081E-06

      iter #   2 total cpu time :  2070.6 secs   av.it.:   8.4
      thresh= 1.755E-04 alpha_mix =  0.700 |ddv_scf|^2 =  4.921E-08

[...]
      iter #   4 total cpu time :  4239.0 secs   av.it.:   8.5
      thresh= 1.184E-05 alpha_mix =  0.700 |ddv_scf|^2 =  1.162E-09

      iter #   5 total cpu time :  4252.7 secs   av.it.:   8.6
      thresh= 3.409E-06 alpha_mix =  0.700 |ddv_scf|^2 =  1.437E-11

      iter #   6 total cpu time :  4272.1 secs   av.it.:   8.5
      thresh= 3.790E-07 alpha_mix =  0.700 |ddv_scf|^2 =  8.080E-13

      iter #   7 total cpu time :  4280.7 secs   av.it.:   8.8
      thresh= 8.989E-08 alpha_mix =  0.700 |ddv_scf|^2 =  1.913E-14

      iter #   8 total cpu time :  4299.3 secs   av.it.:   8.9
      thresh= 1.383E-08 alpha_mix =  0.700 |ddv_scf|^2 =  4.118E-16

     End of self-consistent calculation

     Convergence has been achieved 
 
     Number of q in the star =   12
     List of q in the star:
          1   0.250000000   0.433012702   0.153330962
          2   0.250000000   0.433012702  -0.153330962
          3  -0.250000000   0.433012702   0.153330962
          4   0.250000000  -0.433012702  -0.153330962
          5  -0.250000000   0.433012702  -0.153330962
          6  -0.250000000  -0.433012702  -0.153330962
          7   0.500000000  -0.000000000   0.153330962
          8   0.250000000  -0.433012702   0.153330962
          9  -0.500000000   0.000000000   0.153330962
         10  -0.250000000  -0.433012702   0.153330962
         11  -0.500000000   0.000000000  -0.153330962
         12   0.500000000  -0.000000000  -0.153330962

     Diagonalizing the dynamical matrix

     q = (    0.250000000   0.433012702   0.153330962 ) 

 **************************************************************************
     freq (    1) =       1.889551 [THz] =      63.028645 [cm-1]
     freq (    2) =       2.342941 [THz] =      78.152109 [cm-1]
     freq (    3) =       2.896501 [THz] =      96.616886 [cm-1]
     freq (    4) =       2.915020 [THz] =      97.234610 [cm-1]
     freq (    5) =       3.405696 [THz] =     113.601798 [cm-1]
     freq (    6) =       3.557301 [THz] =     118.658792 [cm-1]
 **************************************************************************

     Mode symmetry, C_s (m)     point group:

     freq (  1 -  1) =         63.0  [cm-1]   --> A'                 
     freq (  2 -  2) =         78.2  [cm-1]   --> A''                
     freq (  3 -  3) =         96.6  [cm-1]   --> A''                
     freq (  4 -  4) =         97.2  [cm-1]   --> A'                 
     freq (  5 -  5) =        113.6  [cm-1]   --> A'                 
     freq (  6 -  6) =        118.7  [cm-1]   --> A''                

     Calculation of q =    0.2500000   0.4330127  -0.3066619
 
     Parallelization info
     --------------------
     sticks:   dense  smooth     PW     G-vecs:    dense   smooth      PW
     Min         140      69     24                 6156     2170     428
     Max         141      70     25                 6161     2186     431
     Sum        1123     559    199                49261    17417    3441
 


     bravais-lattice index     =            4
     lattice parameter (alat)  =       7.1200  a.u.
     unit-cell volume          =     509.6602 (a.u.)^3
     number of atoms/cell      =            2
     number of atomic types    =            1
     number of electrons       =        18.00
     number of Kohn-Sham states=           13
     kinetic-energy cutoff     =      40.0000  Ry
     charge density cutoff     =     320.0000  Ry
     Exchange-correlation      = SLA  PW   PBE  PBE ( 1  4  3  4 0 0)

     celldm(1)=   7.120000  celldm(2)=   0.000000  celldm(3)=   1.630460
     celldm(4)=   0.000000  celldm(5)=   0.000000  celldm(6)=   0.000000

     crystal axes: (cart. coord. in units of alat)
               a(1) = (   1.000000   0.000000   0.000000 )  
               a(2) = (  -0.500000   0.866025   0.000000 )  
               a(3) = (   0.000000   0.000000   1.630460 )  

     reciprocal axes: (cart. coord. in units 2 pi/alat)
               b(1) = (  1.000000  0.577350  0.000000 )  
               b(2) = (  0.000000  1.154701  0.000000 )  
               b(3) = (  0.000000  0.000000  0.613324 )  


     PseudoPot. # 1 for Na read from file:
     ./Na_pbe_v1.uspp.F.UPF
     MD5 check sum: 76a99c7e9422403d3e93cbc85ab7bccb
     Pseudo is Ultrasoft, Zval =  9.0
     Generated by new atomic code, or converted to UPF format
     Using radial grid of  819 points,  5 beta functions with: 
                l(1) =   0
                l(2) =   0
                l(3) =   1
                l(4) =   1
                l(5) =   2
     Q(r) pseudized with  8 coefficients,  rinner =    1.250   1.250   1.250
                                                       1.250   1.250

     atomic species   valence    mass     pseudopotential
        Na             9.00    22.99000     Na( 1.00)

     24 Sym. Ops., with inversion, found



   Cartesian axes

     site n.     atom                  positions (alat units)
         1           Na  tau(   1) = (   0.0000000   0.0000000   0.0000000  )
         2           Na  tau(   2) = (   0.4999999   0.2886751   0.8152300  )

     number of k points=  3600  Marzari-Vanderbilt smearing, width (Ry)=  0.0200

     Number of k-points >= 100: set verbosity='high' to print them.

     Dense  grid:    49261 G-vectors     FFT dimensions: (  45,  45,  72)

     Smooth grid:    17417 G-vectors     FFT dimensions: (  30,  30,  48)

     Largest allocated arrays     est. size (Mb)     dimensions
        Kohn-Sham Wavefunctions         0.06 Mb     (     287,   13)
        NL pseudopotentials             0.11 Mb     (     287,   26)
        Each V/rho on FFT grid          0.28 Mb     (   18225)
        Each G-vector array             0.05 Mb     (    6161)
        G-vector shells                 0.01 Mb     (    1836)
     Largest temporary arrays     est. size (Mb)     dimensions
        Auxiliary wavefunctions         0.23 Mb     (     287,   52)
        Each subspace H/S matrix        0.01 Mb     (      26,   26)
        Each <psi_i|beta_j> matrix      0.01 Mb     (      26,   13)

     The potential is recalculated from file :
     ./na_hcp_7.12/_ph0/na_hcp_7.12.save/charge-density.dat

     Starting wfc are   10 atomic +    3 random wfc

     Band Structure Calculation
     Davidson diagonalization with overlap

     ethr =  5.56E-11,  avg # of iterations = 22.9

     total cpu time spent up to now is      204.4 secs

     End of band structure calculation

     Number of k-points >= 100: set verbosity='high' to print the bands.

     the Fermi energy is     1.5280 ev

     Writing output data file na_hcp_7.12.save

                                                                                

     bravais-lattice index     =            4
     lattice parameter (alat)  =       7.1200  a.u.
     unit-cell volume          =     509.6602 (a.u.)^3
     number of atoms/cell      =            2
     number of atomic types    =            1
     kinetic-energy cut-off    =      40.0000  Ry
     charge density cut-off    =     320.0000  Ry
     convergence threshold     =      1.0E-15
     beta                      =       0.7000
     number of iterations used =            4
     Exchange-correlation      = SLA  PW   PBE  PBE ( 1  4  3  4 0 0)


     celldm(1)=    7.12000  celldm(2)=    0.00000  celldm(3)=    1.63046
     celldm(4)=    0.00000  celldm(5)=    0.00000  celldm(6)=    0.00000

     crystal axes: (cart. coord. in units of alat)
               a(1) = (  1.0000  0.0000  0.0000 )  
               a(2) = ( -0.5000  0.8660  0.0000 )  
               a(3) = (  0.0000  0.0000  1.6305 )  

     reciprocal axes: (cart. coord. in units 2 pi/alat)
               b(1) = (  1.0000  0.5774  0.0000 )  
               b(2) = (  0.0000  1.1547  0.0000 )  
               b(3) = (  0.0000  0.0000  0.6133 )  


     Atoms inside the unit cell: 

     Cartesian axes

     site n.  atom      mass           positions (alat units)
        1     Na  22.9900   tau(    1) = (    0.00000    0.00000    0.00000  )
        2     Na  22.9900   tau(    2) = (    0.50000    0.28868    0.81523  )

     Computing dynamical matrix for 
                    q = (   0.2500000   0.4330127  -0.3066619 )
 
      4 Sym.Ops. (no q -> -q+G )


     G cutoff =  410.9133  (   6161 G-vectors)     FFT grid: ( 45, 45, 72)
     G cutoff =  205.4567  (   2170 G-vectors)  smooth grid: ( 30, 30, 48)

     number of k points=  3600  Marzari-Vanderbilt smearing, width (Ry)=  0.0200

     PseudoPot. # 1 for Na read from file:
     ./Na_pbe_v1.uspp.F.UPF
     MD5 check sum: 76a99c7e9422403d3e93cbc85ab7bccb
     Pseudo is Ultrasoft, Zval =  9.0
     Generated by new atomic code, or converted to UPF format
     Using radial grid of  819 points,  5 beta functions with: 
                l(1) =   0
                l(2) =   0
                l(3) =   1
                l(4) =   1
                l(5) =   2
     Q(r) pseudized with  8 coefficients,  rinner =    1.250   1.250   1.250
                                                       1.250   1.250


     Atomic displacements:
     There are   3 irreducible representations

     Representation     1      2 modes -  To be done

     Representation     2      2 modes -  To be done

     Representation     3      2 modes -  To be done



     Alpha used in Ewald sum =   2.8000
     PHONON       :     1h 8m CPU        1h12m WALL



     Representation #  1 modes #   1  2

     Self-consistent Calculation

      iter #   1 total cpu time :  4360.6 secs   av.it.:   5.7
      thresh= 1.000E-02 alpha_mix =  0.700 |ddv_scf|^2 =  2.887E-06

      iter #   2 total cpu time :  4375.9 secs   av.it.:   9.0
      thresh= 1.699E-04 alpha_mix =  0.700 |ddv_scf|^2 =  1.634E-06

      iter #   3 total cpu time :  4392.3 secs   av.it.:   8.1
      thresh= 1.278E-04 alpha_mix =  0.700 |ddv_scf|^2 =  1.100E-08

      iter #   4 total cpu time :  4407.5 secs   av.it.:   9.3
      thresh= 1.049E-05 alpha_mix =  0.700 |ddv_scf|^2 =  2.987E-10

      iter #   5 total cpu time :  4423.3 secs   av.it.:   9.6
      thresh= 1.728E-06 alpha_mix =  0.700 |ddv_scf|^2 =  1.637E-11

      iter #   6 total cpu time :  4446.3 secs   av.it.:   9.7
      thresh= 4.046E-07 alpha_mix =  0.700 |ddv_scf|^2 =  1.103E-12

      iter #   7 total cpu time :  4463.3 secs   av.it.:   9.8
      thresh= 1.050E-07 alpha_mix =  0.700 |ddv_scf|^2 =  1.231E-14

      iter #   8 total cpu time :  4476.1 secs   av.it.:   9.6
      thresh= 1.109E-08 alpha_mix =  0.700 |ddv_scf|^2 =  3.125E-16

     End of self-consistent calculation

     Convergence has been achieved 


     Representation #  2 modes #   3  4

     Self-consistent Calculation

      iter #   1 total cpu time :  4497.4 secs   av.it.:   5.7
      thresh= 1.000E-02 alpha_mix =  0.700 |ddv_scf|^2 =  2.235E-06

      iter #   2 total cpu time :  4511.3 secs   av.it.:   9.0
      thresh= 1.495E-04 alpha_mix =  0.700 |ddv_scf|^2 =  1.132E-06

      iter #   3 total cpu time :  4542.6 secs   av.it.:   8.2
      thresh= 1.064E-04 alpha_mix =  0.700 |ddv_scf|^2 =  1.325E-08

      iter #   4 total cpu time :  4560.7 secs   av.it.:   9.2
      thresh= 1.151E-05 alpha_mix =  0.700 |ddv_scf|^2 =  2.861E-10

      iter #   5 total cpu time :  4584.9 secs   av.it.:   9.4
      thresh= 1.692E-06 alpha_mix =  0.700 |ddv_scf|^2 =  2.111E-11

      iter #   6 total cpu time :  4595.4 secs   av.it.:   9.5
      thresh= 4.595E-07 alpha_mix =  0.700 |ddv_scf|^2 =  7.737E-13

      iter #   7 total cpu time :  4610.4 secs   av.it.:  10.0
      thresh= 8.796E-08 alpha_mix =  0.700 |ddv_scf|^2 =  1.470E-14

      iter #   8 total cpu time :  4622.4 secs   av.it.:   9.8
      thresh= 1.212E-08 alpha_mix =  0.700 |ddv_scf|^2 =  8.822E-16

     End of self-consistent calculation

     Convergence has been achieved 


     Representation #  3 modes #   5  6

     Self-consistent Calculation

      iter #   1 total cpu time :  4646.9 secs   av.it.:   5.7
      thresh= 1.000E-02 alpha_mix =  0.700 |ddv_scf|^2 =  2.128E-06

      iter #   2 total cpu time :  4656.2 secs   av.it.:   9.0
      thresh= 1.459E-04 alpha_mix =  0.700 |ddv_scf|^2 =  8.607E-07

      iter #   3 total cpu time :  4667.4 secs   av.it.:   8.3
      thresh= 9.277E-05 alpha_mix =  0.700 |ddv_scf|^2 =  2.403E-08

      iter #   4 total cpu time :  4690.5 secs   av.it.:   8.9
      thresh= 1.550E-05 alpha_mix =  0.700 |ddv_scf|^2 =  3.943E-10

      iter #   5 total cpu time :  4716.3 secs   av.it.:   9.5
      thresh= 1.986E-06 alpha_mix =  0.700 |ddv_scf|^2 =  1.042E-11

      iter #   6 total cpu time :  4727.3 secs   av.it.:   9.7
      thresh= 3.229E-07 alpha_mix =  0.700 |ddv_scf|^2 =  8.053E-13

      iter #   7 total cpu time :  4755.4 secs   av.it.:   9.9
      thresh= 8.974E-08 alpha_mix =  0.700 |ddv_scf|^2 =  1.925E-14

      iter #   8 total cpu time :  4774.5 secs   av.it.:   9.9
      thresh= 1.388E-08 alpha_mix =  0.700 |ddv_scf|^2 =  2.122E-16

     End of self-consistent calculation

     Convergence has been achieved 
 
     Number of q in the star =    6
     List of q in the star:
          1   0.250000000   0.433012702  -0.306661924
          2  -0.250000000   0.433012702  -0.306661924
          3   0.250000000  -0.433012702   0.306661924
          4  -0.250000000  -0.433012702   0.306661924
          5   0.500000000  -0.000000000  -0.306661924
          6  -0.500000000   0.000000000  -0.306661924

     Diagonalizing the dynamical matrix

     q = (    0.250000000   0.433012702  -0.306661924 ) 

 **************************************************************************
     freq (    1) =       1.984513 [THz] =      66.196214 [cm-1]
     freq (    2) =       1.984513 [THz] =      66.196214 [cm-1]
     freq (    3) =       2.935695 [THz] =      97.924258 [cm-1]
     freq (    4) =       2.935695 [THz] =      97.924258 [cm-1]
     freq (    5) =       3.611301 [THz] =     120.460024 [cm-1]
     freq (    6) =       3.611301 [THz] =     120.460024 [cm-1]
 **************************************************************************
 
     init_run     :      1.54s CPU      1.72s WALL (      11 calls)
     electrons    :    151.87s CPU    155.22s WALL (      11 calls)

     Called by init_run:
     wfcinit      :      0.00s CPU      0.12s WALL (      11 calls)
     potinit      :      0.25s CPU      0.30s WALL (      11 calls)

     Called by electrons:
     c_bands      :    151.83s CPU    155.18s WALL (      11 calls)
     v_of_rho     :      0.11s CPU      0.12s WALL (      12 calls)
     newd         :      0.14s CPU      0.14s WALL (      12 calls)

     Called by c_bands:
     init_us_2    :      3.34s CPU      3.52s WALL (   48220 calls)
     cegterg      :     74.73s CPU     76.11s WALL (    3050 calls)

     Called by sum_band:

     Called by *egterg:
     h_psi        :     43.27s CPU     44.47s WALL (   49453 calls)
     s_psi        :     46.41s CPU     47.92s WALL ( 1183976 calls)
     g_psi        :      0.49s CPU      0.46s WALL (   44791 calls)
     cdiaghg      :     21.66s CPU     21.57s WALL (   46403 calls)

     Called by h_psi:
     add_vuspsi   :     28.57s CPU     29.47s WALL (  595487 calls)

     General routines
     calbec       :     68.03s CPU     71.77s WALL ( 1262599 calls)
     fft          :      3.06s CPU      2.99s WALL (    8976 calls)
     ffts         :      1.79s CPU      1.77s WALL (    7229 calls)
     fftw         :   1754.69s CPU   1783.08s WALL ( 9228842 calls)
     interpolate  :      0.95s CPU      0.95s WALL (    1237 calls)
     davcio       :     10.08s CPU    141.01s WALL (  216212 calls)
 
     Parallel routines
     fft_scatter  :   1379.16s CPU   1391.77s WALL ( 9245047 calls)
 
     PHONON       :     1h15m CPU        1h19m WALL

     INITIALIZATION: 
     phq_setup    :      0.38s CPU      0.83s WALL (      12 calls)
     phq_init     :     26.75s CPU     27.43s WALL (      12 calls)
 
     phq_init     :     26.75s CPU     27.43s WALL (      12 calls)
     init_vloc    :      0.12s CPU      0.13s WALL (      12 calls)
     init_us_1    :      0.45s CPU      0.45s WALL (      12 calls)
     newd         :      0.14s CPU      0.14s WALL (      12 calls)
     dvanqq       :      1.47s CPU      1.48s WALL (      12 calls)
     drho         :     16.09s CPU     16.37s WALL (      12 calls)
 
     DYNAMICAL MATRIX:
     dynmat0      :      6.79s CPU      7.07s WALL (      12 calls)
     phqscf       :   4320.71s CPU   4525.12s WALL (      12 calls)
     dynmatrix    :      1.15s CPU      1.32s WALL (      12 calls)
 
     phqscf       :   4320.71s CPU   4525.12s WALL (      12 calls)
     solve_linter :   4317.92s CPU   4519.55s WALL (      58 calls)
     drhodv       :      2.68s CPU      2.89s WALL (      58 calls)
 
     dynmat0      :      6.79s CPU      7.07s WALL (      12 calls)
     dynmat_us    :      6.74s CPU      6.82s WALL (      12 calls)
     d2ionq       :      0.04s CPU      0.03s WALL (      12 calls)
 
     dynmat_us    :      6.74s CPU      6.82s WALL (      12 calls)
     addusdynmat  :      0.00s CPU      0.00s WALL (      12 calls)
 
     phqscf       :   4320.71s CPU   4525.12s WALL (      12 calls)
     solve_linter :   4317.92s CPU   4519.55s WALL (      58 calls)
 
     solve_linter :   4317.92s CPU   4519.55s WALL (      58 calls)
     dvqpsi_us    :     13.00s CPU     13.74s WALL (    4932 calls)
     ortho        :     45.21s CPU     45.99s WALL (   42455 calls)
     cgsolve      :    685.54s CPU    711.76s WALL (   42455 calls)
     incdrhoscf   :   1278.37s CPU   1286.72s WALL (   42455 calls)
     addusddens   :      7.96s CPU      8.00s WALL (     534 calls)
     vpsifft      :     45.25s CPU     49.24s WALL (   37523 calls)
     dv_of_drho   :      3.67s CPU      3.66s WALL (     569 calls)
     mix_pot      :      3.96s CPU     13.16s WALL (     476 calls)
     ef_shift     :      0.06s CPU      1.39s WALL (      29 calls)
     localdos     :      0.35s CPU      0.36s WALL (       4 calls)
     psymdvscf    :     28.51s CPU     28.66s WALL (     476 calls)
     newdq        :      7.56s CPU      7.56s WALL (     476 calls)
     adddvscf     :      3.58s CPU      3.72s WALL (   37523 calls)
     drhodvus     :      0.07s CPU      0.07s WALL (      58 calls)
 
     dvqpsi_us    :     13.00s CPU     13.74s WALL (    4932 calls)
     dvqpsi_us_on :      3.84s CPU      3.83s WALL (    4932 calls)
 
     cgsolve      :    685.54s CPU    711.76s WALL (   42455 calls)
     ch_psi       :    660.71s CPU    686.08s WALL (  546034 calls)
 
     ch_psi       :    660.71s CPU    686.08s WALL (  546034 calls)
     h_psiq       :    573.99s CPU    595.68s WALL (  546034 calls)
     last         :     83.02s CPU     86.76s WALL (  546034 calls)
 
     h_psiq       :    573.99s CPU    595.68s WALL (  546034 calls)
     firstfft     :    268.91s CPU    280.44s WALL ( 3473333 calls)
     secondfft    :    200.40s CPU    206.75s WALL ( 3473333 calls)
     add_vuspsi   :     28.57s CPU     29.47s WALL (  595487 calls)
 
     incdrhoscf   :   1278.37s CPU   1286.72s WALL (   42455 calls)
     addusdbec    :      4.27s CPU      4.54s WALL (   47387 calls)
 
     drhodvus     :      0.07s CPU      0.07s WALL (      58 calls)
 
      General routines
     calbec       :     68.03s CPU     71.77s WALL ( 1262599 calls)
     fft          :      3.06s CPU      2.99s WALL (    8976 calls)
     ffts         :      1.79s CPU      1.77s WALL (    7229 calls)
     fftw         :   1754.69s CPU   1783.08s WALL ( 9228842 calls)
     davcio       :     10.08s CPU    141.01s WALL (  216212 calls)
     write_rec    :      0.95s CPU     19.85s WALL (     534 calls)
 
 
     PHONON       :     1h15m CPU        1h19m WALL

 
   This run was terminated on:  23:49:50  28Mar2018            

=------------------------------------------------------------------------------=
   JOB DONE.
=------------------------------------------------------------------------------=
Application 30384810 resources: utime ~859366s, stime ~8560s, Rss ~59032, inblocks ~4076660816, outblocks ~1405836723
