
     Program PWSCF v.5.4.0 starts on 29Mar2018 at 12:23:35 

     This program is part of the open-source Quantum ESPRESSO suite
     for quantum simulation of materials; please cite
         "P. Giannozzi et al., J. Phys.:Condens. Matter 21 395502 (2009);
          URL http://www.quantum-espresso.org", 
     in publications or presentations arising from this work. More details at
     http://www.quantum-espresso.org/quote

     Parallel version (MPI & OpenMP), running on      24 processor cores
     Number of MPI processes:                24
     Threads/MPI process:                     1
     R & G space division:  proc/nbgrp/npool/nimage =      24
     Waiting for input...
     Reading input from standard input

     Current dimensions of program PWSCF are:
     Max number of different atomic species (ntypx) = 10
     Max number of k-points (npk) =  40000
     Max angular momentum in pseudopotentials (lmaxx) =  3

     Subspace diagonalization in iterative solution of the eigenvalue problem:
     one sub-group per band group will be used
     scalapack distributed-memory algorithm (size of sub-group:  3*  3 procs)

 
     Parallelization info
     --------------------
     sticks:   dense  smooth     PW     G-vecs:    dense   smooth      PW
     Min          47      24      6                 2113      738     116
     Max          48      25      7                 2122      766     127
     Sum        1147     583    163                50833    17969    2971
 


     bravais-lattice index     =            4
     lattice parameter (alat)  =       7.1900  a.u.
     unit-cell volume          =     524.8406 (a.u.)^3
     number of atoms/cell      =            2
     number of atomic types    =            1
     number of electrons       =        18.00
     number of Kohn-Sham states=           13
     kinetic-energy cutoff     =      40.0000  Ry
     charge density cutoff     =     320.0000  Ry
     convergence threshold     =      1.0E-10
     mixing beta               =       0.7000
     number of iterations used =            8  plain     mixing
     Exchange-correlation      = SLA  PW   PBE  PBE ( 1  4  3  4 0 0)

     celldm(1)=   7.190000  celldm(2)=   0.000000  celldm(3)=   1.630460
     celldm(4)=   0.000000  celldm(5)=   0.000000  celldm(6)=   0.000000

     crystal axes: (cart. coord. in units of alat)
               a(1) = (   1.000000   0.000000   0.000000 )  
               a(2) = (  -0.500000   0.866025   0.000000 )  
               a(3) = (   0.000000   0.000000   1.630460 )  

     reciprocal axes: (cart. coord. in units 2 pi/alat)
               b(1) = (  1.000000  0.577350  0.000000 )  
               b(2) = (  0.000000  1.154701  0.000000 )  
               b(3) = (  0.000000  0.000000  0.613324 )  


     PseudoPot. # 1 for Na read from file:
     ./Na_pbe_v1.uspp.F.UPF
     MD5 check sum: 76a99c7e9422403d3e93cbc85ab7bccb
     Pseudo is Ultrasoft, Zval =  9.0
     Generated by new atomic code, or converted to UPF format
     Using radial grid of  819 points,  5 beta functions with: 
                l(1) =   0
                l(2) =   0
                l(3) =   1
                l(4) =   1
                l(5) =   2
     Q(r) pseudized with  8 coefficients,  rinner =    1.250   1.250   1.250
                                                       1.250   1.250

     atomic species   valence    mass     pseudopotential
        Na             9.00    22.99000     Na( 1.00)

     24 Sym. Ops., with inversion, found (12 have fractional translation)



   Cartesian axes

     site n.     atom                  positions (alat units)
         1           Na  tau(   1) = (   0.0000000   0.0000000   0.0000000  )
         2           Na  tau(   2) = (   0.4999999   0.2886751   0.8152300  )

     number of k points=   366  Marzari-Vanderbilt smearing, width (Ry)=  0.0200

     Number of k-points >= 100: set verbosity='high' to print them.

     Dense  grid:    50833 G-vectors     FFT dimensions: (  45,  45,  72)

     Smooth grid:    17969 G-vectors     FFT dimensions: (  30,  30,  48)

     Largest allocated arrays     est. size (Mb)     dimensions
        Kohn-Sham Wavefunctions         0.02 Mb     (     110,   13)
        NL pseudopotentials             0.04 Mb     (     110,   26)
        Each V/rho on FFT grid          0.09 Mb     (    6075)
        Each G-vector array             0.02 Mb     (    2122)
        G-vector shells                 0.01 Mb     (     890)
     Largest temporary arrays     est. size (Mb)     dimensions
        Auxiliary wavefunctions         0.09 Mb     (     110,   52)
        Each subspace H/S matrix        0.00 Mb     (      17,   17)
        Each <psi_i|beta_j> matrix      0.01 Mb     (      26,   13)
        Arrays for rho mixing           0.74 Mb     (    6075,    8)

     Initial potential from superposition of free atoms

     starting charge   17.98742, renormalised to   18.00000
     Starting wfc are   10 randomized atomic wfcs +    3 random wfc

     total cpu time spent up to now is        1.2 secs

     per-process dynamical memory:    13.1 Mb

     Self-consistent Calculation

     iteration #  1     ecut=    40.00 Ry     beta=0.70
     Davidson diagonalization with overlap
     ethr =  1.00E-02,  avg # of iterations =  6.0

     Threshold (ethr) on eigenvalues was too large:
     Diagonalizing with lowered threshold

     Davidson diagonalization with overlap
     c_bands:  1 eigenvalues not converged
     ethr =  9.20E-06,  avg # of iterations =  7.0

     total cpu time spent up to now is       15.4 secs

     total energy              =    -190.21269805 Ry
     Harris-Foulkes estimate   =    -190.21303798 Ry
     estimated scf accuracy    <       0.00171066 Ry

     iteration #  2     ecut=    40.00 Ry     beta=0.70
     Davidson diagonalization with overlap
     ethr =  9.50E-06,  avg # of iterations =  2.0

     total cpu time spent up to now is       18.7 secs

     total energy              =    -190.21287975 Ry
     Harris-Foulkes estimate   =    -190.21291399 Ry
     estimated scf accuracy    <       0.00018230 Ry

     iteration #  3     ecut=    40.00 Ry     beta=0.70
     Davidson diagonalization with overlap
     ethr =  1.01E-06,  avg # of iterations =  2.1

     total cpu time spent up to now is       22.2 secs

     total energy              =    -190.21289792 Ry
     Harris-Foulkes estimate   =    -190.21290016 Ry
     estimated scf accuracy    <       0.00001144 Ry

     iteration #  4     ecut=    40.00 Ry     beta=0.70
     Davidson diagonalization with overlap
     ethr =  6.35E-08,  avg # of iterations =  2.0

     total cpu time spent up to now is       25.4 secs

     total energy              =    -190.21289916 Ry
     Harris-Foulkes estimate   =    -190.21289906 Ry
     estimated scf accuracy    <       0.00000002 Ry

     iteration #  5     ecut=    40.00 Ry     beta=0.70
     Davidson diagonalization with overlap
     ethr =  1.37E-10,  avg # of iterations =  3.2

     total cpu time spent up to now is       30.0 secs

     total energy              =    -190.21289922 Ry
     Harris-Foulkes estimate   =    -190.21289921 Ry
     estimated scf accuracy    <          2.6E-09 Ry

     iteration #  6     ecut=    40.00 Ry     beta=0.70
     Davidson diagonalization with overlap
     ethr =  1.42E-11,  avg # of iterations =  1.8

     total cpu time spent up to now is       33.0 secs

     total energy              =    -190.21289922 Ry
     Harris-Foulkes estimate   =    -190.21289922 Ry
     estimated scf accuracy    <          1.2E-10 Ry

     iteration #  7     ecut=    40.00 Ry     beta=0.70
     Davidson diagonalization with overlap
     ethr =  6.77E-13,  avg # of iterations =  2.0

     total cpu time spent up to now is       36.3 secs

     End of self-consistent calculation

     Number of k-points >= 100: set verbosity='high' to print the bands.

     the Fermi energy is     1.4102 ev

!    total energy              =    -190.21289922 Ry
     Harris-Foulkes estimate   =    -190.21289922 Ry
     estimated scf accuracy    <          4.0E-12 Ry

     The total energy is the sum of the following terms:

     one-electron contribution =    -178.36234931 Ry
     hartree contribution      =      89.75557380 Ry
     xc contribution           =     -28.52499692 Ry
     ewald contribution        =     -73.08099975 Ry
     smearing contrib. (-TS)   =      -0.00012703 Ry

     convergence has been achieved in   7 iterations


     entering subroutine stress ...

          total   stress  (Ry/bohr**3)                   (kbar)     P=   -6.00
  -0.00004093   0.00000000   0.00000000         -6.02      0.00      0.00
   0.00000000  -0.00004093   0.00000000          0.00     -6.02      0.00
   0.00000000   0.00000000  -0.00004050          0.00      0.00     -5.96


     Writing output data file na_hcp_7.19.save
 
     init_run     :      0.97s CPU      1.03s WALL (       1 calls)
     electrons    :     34.13s CPU     35.12s WALL (       1 calls)
     stress       :      0.29s CPU      0.29s WALL (       1 calls)

     Called by init_run:
     wfcinit      :      0.91s CPU      0.96s WALL (       1 calls)
     potinit      :      0.01s CPU      0.01s WALL (       1 calls)

     Called by electrons:
     c_bands      :     31.83s CPU     32.74s WALL (       8 calls)
     sum_band     :      2.23s CPU      2.28s WALL (       8 calls)
     v_of_rho     :      0.03s CPU      0.03s WALL (       8 calls)
     newd         :      0.03s CPU      0.03s WALL (       8 calls)
     mix_rho      :      0.00s CPU      0.00s WALL (       8 calls)

     Called by c_bands:
     init_us_2    :      0.16s CPU      0.19s WALL (    6588 calls)
     cegterg      :     31.39s CPU     32.10s WALL (    2928 calls)

     Called by sum_band:
     sum_band:bec :      0.04s CPU      0.03s WALL (    2928 calls)
     addusdens    :      0.04s CPU      0.05s WALL (       8 calls)

     Called by *egterg:
     h_psi        :      9.96s CPU     10.35s WALL (   12834 calls)
     s_psi        :      0.27s CPU      0.27s WALL (   12834 calls)
     g_psi        :      0.03s CPU      0.05s WALL (    9540 calls)
     cdiaghg      :     18.76s CPU     19.05s WALL (   12102 calls)

     Called by h_psi:
     add_vuspsi   :      0.28s CPU      0.30s WALL (   12834 calls)

     General routines
     calbec       :      0.79s CPU      0.80s WALL (   16128 calls)
     fft          :      0.01s CPU      0.02s WALL (     133 calls)
     ffts         :      0.00s CPU      0.00s WALL (      16 calls)
     fftw         :      9.52s CPU      9.83s WALL (  243642 calls)
     interpolate  :      0.00s CPU      0.00s WALL (      16 calls)
 
     Parallel routines
     fft_scatter  :      5.23s CPU      5.59s WALL (  243791 calls)
 
     PWSCF        :    37.15s CPU        51.59s WALL

 
   This run was terminated on:  12:24:27  29Mar2018            

=------------------------------------------------------------------------------=
   JOB DONE.
=------------------------------------------------------------------------------=
Application 30386921 resources: utime ~1206s, stime ~19s, Rss ~42416, inblocks ~180122, outblocks ~543625
