
     Program PWSCF v.5.4.0 starts on 26Mar2018 at 23: 2:22 

     This program is part of the open-source Quantum ESPRESSO suite
     for quantum simulation of materials; please cite
         "P. Giannozzi et al., J. Phys.:Condens. Matter 21 395502 (2009);
          URL http://www.quantum-espresso.org", 
     in publications or presentations arising from this work. More details at
     http://www.quantum-espresso.org/quote

     Parallel version (MPI & OpenMP), running on      24 processor cores
     Number of MPI processes:                24
     Threads/MPI process:                     1
     R & G space division:  proc/nbgrp/npool/nimage =      24
     Waiting for input...
     Reading input from standard input

     Current dimensions of program PWSCF are:
     Max number of different atomic species (ntypx) = 10
     Max number of k-points (npk) =  40000
     Max angular momentum in pseudopotentials (lmaxx) =  3

     Subspace diagonalization in iterative solution of the eigenvalue problem:
     one sub-group per band group will be used
     scalapack distributed-memory algorithm (size of sub-group:  3*  3 procs)

 
     Parallelization info
     --------------------
     sticks:   dense  smooth     PW     G-vecs:    dense   smooth      PW
     Min          44      22      6                 1942      680     112
     Max          45      23      7                 1951      695     119
     Sum        1069     547    163                46733    16515    2779
 


     bravais-lattice index     =            4
     lattice parameter (alat)  =       6.9982  a.u.
     unit-cell volume          =     484.2222 (a.u.)^3
     number of atoms/cell      =            2
     number of atomic types    =            1
     number of electrons       =        18.00
     number of Kohn-Sham states=           13
     kinetic-energy cutoff     =      40.0000  Ry
     charge density cutoff     =     320.0000  Ry
     convergence threshold     =      1.0E-10
     mixing beta               =       0.7000
     number of iterations used =            8  plain     mixing
     Exchange-correlation      = SLA  PW   PBE  PBE ( 1  4  3  4 0 0)

     celldm(1)=   6.998233  celldm(2)=   0.000000  celldm(3)=   1.631356
     celldm(4)=   0.000000  celldm(5)=   0.000000  celldm(6)=   0.000000

     crystal axes: (cart. coord. in units of alat)
               a(1) = (   1.000000   0.000000   0.000000 )  
               a(2) = (  -0.500000   0.866025   0.000000 )  
               a(3) = (   0.000000   0.000000   1.631356 )  

     reciprocal axes: (cart. coord. in units 2 pi/alat)
               b(1) = (  1.000000  0.577350  0.000000 )  
               b(2) = (  0.000000  1.154701  0.000000 )  
               b(3) = (  0.000000  0.000000  0.612987 )  


     PseudoPot. # 1 for Na read from file:
     ./Na_pbe_v1.uspp.F.UPF
     MD5 check sum: 76a99c7e9422403d3e93cbc85ab7bccb
     Pseudo is Ultrasoft, Zval =  9.0
     Generated by new atomic code, or converted to UPF format
     Using radial grid of  819 points,  5 beta functions with: 
                l(1) =   0
                l(2) =   0
                l(3) =   1
                l(4) =   1
                l(5) =   2
     Q(r) pseudized with  8 coefficients,  rinner =    1.250   1.250   1.250
                                                       1.250   1.250

     atomic species   valence    mass     pseudopotential
        Na             9.00    22.99000     Na( 1.00)

     12 Sym. Ops. (no inversion) found
          (note: 12 additional sym.ops. were found but ignored
           their fractional translations are incommensurate with FFT grid)


   Cartesian axes

     site n.     atom                  positions (alat units)
         1           Na  tau(   1) = (   0.0000000   0.0000000   0.0000000  )
         2           Na  tau(   2) = (   0.4999999   0.2886751   0.8156781  )

     number of k points=   366  Marzari-Vanderbilt smearing, width (Ry)=  0.0200

     Number of k-points >= 100: set verbosity='high' to print them.

     Dense  grid:    46733 G-vectors     FFT dimensions: (  40,  40,  72)

     Smooth grid:    16515 G-vectors     FFT dimensions: (  30,  30,  45)

     Largest allocated arrays     est. size (Mb)     dimensions
        Kohn-Sham Wavefunctions         0.02 Mb     (     101,   13)
        NL pseudopotentials             0.04 Mb     (     101,   26)
        Each V/rho on FFT grid          0.07 Mb     (    4800)
        Each G-vector array             0.01 Mb     (    1951)
        G-vector shells                 0.01 Mb     (     832)
     Largest temporary arrays     est. size (Mb)     dimensions
        Auxiliary wavefunctions         0.08 Mb     (     101,   52)
        Each subspace H/S matrix        0.00 Mb     (      17,   17)
        Each <psi_i|beta_j> matrix      0.01 Mb     (      26,   13)
        Arrays for rho mixing           0.59 Mb     (    4800,    8)

     Initial potential from superposition of free atoms

     starting charge   17.98742, renormalised to   18.00000
     Starting wfc are   10 randomized atomic wfcs +    3 random wfc

     total cpu time spent up to now is        1.1 secs

     per-process dynamical memory:    12.4 Mb

     Self-consistent Calculation

     iteration #  1     ecut=    40.00 Ry     beta=0.70
     Davidson diagonalization with overlap
     ethr =  1.00E-02,  avg # of iterations =  5.8

     Threshold (ethr) on eigenvalues was too large:
     Diagonalizing with lowered threshold

     Davidson diagonalization with overlap
     ethr =  9.45E-06,  avg # of iterations =  6.7

     total cpu time spent up to now is       14.7 secs

     total energy              =    -190.21282062 Ry
     Harris-Foulkes estimate   =    -190.21325565 Ry
     estimated scf accuracy    <       0.00175208 Ry

     iteration #  2     ecut=    40.00 Ry     beta=0.70
     Davidson diagonalization with overlap
     ethr =  9.73E-06,  avg # of iterations =  2.0

     total cpu time spent up to now is       18.1 secs

     total energy              =    -190.21301367 Ry
     Harris-Foulkes estimate   =    -190.21305271 Ry
     estimated scf accuracy    <       0.00018708 Ry

     iteration #  3     ecut=    40.00 Ry     beta=0.70
     Davidson diagonalization with overlap
     ethr =  1.04E-06,  avg # of iterations =  2.1

     total cpu time spent up to now is       21.6 secs

     total energy              =    -190.21303203 Ry
     Harris-Foulkes estimate   =    -190.21303453 Ry
     estimated scf accuracy    <       0.00001176 Ry

     iteration #  4     ecut=    40.00 Ry     beta=0.70
     Davidson diagonalization with overlap
     ethr =  6.53E-08,  avg # of iterations =  2.0

     total cpu time spent up to now is       24.7 secs

     total energy              =    -190.21303327 Ry
     Harris-Foulkes estimate   =    -190.21303317 Ry
     estimated scf accuracy    <       0.00000002 Ry

     iteration #  5     ecut=    40.00 Ry     beta=0.70
     Davidson diagonalization with overlap
     ethr =  1.21E-10,  avg # of iterations =  3.2

     total cpu time spent up to now is       29.2 secs

     total energy              =    -190.21303333 Ry
     Harris-Foulkes estimate   =    -190.21303332 Ry
     estimated scf accuracy    <          2.5E-09 Ry

     iteration #  6     ecut=    40.00 Ry     beta=0.70
     Davidson diagonalization with overlap
     ethr =  1.41E-11,  avg # of iterations =  1.8

     total cpu time spent up to now is       32.2 secs

     End of self-consistent calculation

     Number of k-points >= 100: set verbosity='high' to print the bands.

     the Fermi energy is     1.7424 ev

!    total energy              =    -190.21303333 Ry
     Harris-Foulkes estimate   =    -190.21303333 Ry
     estimated scf accuracy    <          7.8E-11 Ry

     The total energy is the sum of the following terms:

     one-electron contribution =    -174.86794733 Ry
     hartree contribution      =      88.27045580 Ry
     xc contribution           =     -28.54555758 Ry
     ewald contribution        =     -75.06985668 Ry
     smearing contrib. (-TS)   =      -0.00012755 Ry

     convergence has been achieved in   6 iterations


     entering subroutine stress ...

          total   stress  (Ry/bohr**3)                   (kbar)     P=   -0.18
  -0.00000139   0.00000000   0.00000000         -0.20      0.00      0.00
   0.00000000  -0.00000139  -0.00000000          0.00     -0.20     -0.00
   0.00000000  -0.00000000  -0.00000088          0.00     -0.00     -0.13


     Writing output data file na_hcp_6.998233353524401.save
 
     init_run     :      0.97s CPU      1.01s WALL (       1 calls)
     electrons    :     30.09s CPU     31.09s WALL (       1 calls)
     stress       :      0.28s CPU      0.28s WALL (       1 calls)

     Called by init_run:
     wfcinit      :      0.92s CPU      0.94s WALL (       1 calls)
     potinit      :      0.01s CPU      0.01s WALL (       1 calls)

     Called by electrons:
     c_bands      :     28.17s CPU     29.07s WALL (       7 calls)
     sum_band     :      1.87s CPU      1.93s WALL (       7 calls)
     v_of_rho     :      0.02s CPU      0.02s WALL (       7 calls)
     newd         :      0.03s CPU      0.03s WALL (       7 calls)
     mix_rho      :      0.00s CPU      0.00s WALL (       7 calls)

     Called by c_bands:
     init_us_2    :      0.19s CPU      0.18s WALL (    5856 calls)
     cegterg      :     27.71s CPU     28.45s WALL (    2562 calls)

     Called by sum_band:
     sum_band:bec :      0.02s CPU      0.03s WALL (    2562 calls)
     addusdens    :      0.04s CPU      0.04s WALL (       7 calls)

     Called by *egterg:
     h_psi        :      8.89s CPU      9.05s WALL (   11540 calls)
     s_psi        :      0.22s CPU      0.25s WALL (   11540 calls)
     g_psi        :      0.02s CPU      0.04s WALL (    8612 calls)
     cdiaghg      :     16.87s CPU     17.17s WALL (   10808 calls)

     Called by h_psi:
     add_vuspsi   :      0.25s CPU      0.28s WALL (   11540 calls)

     General routines
     calbec       :      0.72s CPU      0.67s WALL (   14468 calls)
     fft          :      0.02s CPU      0.02s WALL (     117 calls)
     ffts         :      0.00s CPU      0.00s WALL (      14 calls)
     fftw         :      8.45s CPU      8.64s WALL (  217062 calls)
     interpolate  :      0.00s CPU      0.00s WALL (      14 calls)
 
     Parallel routines
     fft_scatter  :      4.69s CPU      4.83s WALL (  217193 calls)
 
     PWSCF        :    33.05s CPU        47.54s WALL

 
   This run was terminated on:  23: 3:10  26Mar2018            

=------------------------------------------------------------------------------=
   JOB DONE.
=------------------------------------------------------------------------------=
Application 30369729 resources: utime ~1112s, stime ~17s, Rss ~40160, inblocks ~180123, outblocks ~514588
