
     Program PHONON v.5.4.0 starts on 28Mar2018 at  0:41:26 

     This program is part of the open-source Quantum ESPRESSO suite
     for quantum simulation of materials; please cite
         "P. Giannozzi et al., J. Phys.:Condens. Matter 21 395502 (2009);
          URL http://www.quantum-espresso.org", 
     in publications or presentations arising from this work. More details at
     http://www.quantum-espresso.org/quote

     Parallel version (MPI & OpenMP), running on     192 processor cores
     Number of MPI processes:               192
     Threads/MPI process:                     1
     K-points division:     npool     =      24
     R & G space division:  proc/nbgrp/npool/nimage =       8

     Reading data from directory:
     ./na_hcp_6.96/na_hcp_6.96.save

   Info: using nr1, nr2, nr3 values from input

   Info: using nr1, nr2, nr3 values from input

     IMPORTANT: XC functional enforced from input :
     Exchange-correlation      = SLA  PW   PBE  PBE ( 1  4  3  4 0 0)
     Any further DFT definition will be discarded
     Please, verify this is what you really want

 
     Parallelization info
     --------------------
     sticks:   dense  smooth     PW     G-vecs:    dense   smooth      PW
     Min         133      66     20                 5749     2019     342
     Max         134      67     21                 5754     2035     345
     Sum        1069     535    163                46013    16227    2743
 


     Dynamical matrices for ( 4, 4, 4)  uniform grid of q-points
     (  12q-points):
       N         xq(1)         xq(2)         xq(3) 
       1   0.000000000   0.000000000   0.000000000
       2   0.000000000   0.000000000   0.153330962
       3   0.000000000   0.000000000  -0.306661924
       4   0.000000000   0.288675135   0.000000000
       5   0.000000000   0.288675135   0.153330962
       6   0.000000000   0.288675135  -0.306661924
       7   0.000000000  -0.577350269   0.000000000
       8   0.000000000  -0.577350269   0.153330962
       9   0.000000000  -0.577350269  -0.306661924
      10   0.250000000   0.433012702   0.000000000
      11   0.250000000   0.433012702   0.153330962
      12   0.250000000   0.433012702  -0.306661924

     Calculation of q =    0.0000000   0.0000000   0.0000000

                                                                                

     bravais-lattice index     =            4
     lattice parameter (alat)  =       6.9600  a.u.
     unit-cell volume          =     476.0675 (a.u.)^3
     number of atoms/cell      =            2
     number of atomic types    =            1
     kinetic-energy cut-off    =      40.0000  Ry
     charge density cut-off    =     320.0000  Ry
     convergence threshold     =      1.0E-15
     beta                      =       0.7000
     number of iterations used =            4
     Exchange-correlation      = SLA  PW   PBE  PBE ( 1  4  3  4 0 0)


     celldm(1)=    6.96000  celldm(2)=    0.00000  celldm(3)=    1.63046
     celldm(4)=    0.00000  celldm(5)=    0.00000  celldm(6)=    0.00000

     crystal axes: (cart. coord. in units of alat)
               a(1) = (  1.0000  0.0000  0.0000 )  
               a(2) = ( -0.5000  0.8660  0.0000 )  
               a(3) = (  0.0000  0.0000  1.6305 )  

     reciprocal axes: (cart. coord. in units 2 pi/alat)
               b(1) = (  1.0000  0.5774  0.0000 )  
               b(2) = (  0.0000  1.1547  0.0000 )  
               b(3) = (  0.0000  0.0000  0.6133 )  


     Atoms inside the unit cell: 

     Cartesian axes

     site n.  atom      mass           positions (alat units)
        1     Na  22.9900   tau(    1) = (    0.00000    0.00000    0.00000  )
        2     Na  22.9900   tau(    2) = (    0.50000    0.28868    0.81523  )

     Computing dynamical matrix for 
                    q = (   0.0000000   0.0000000   0.0000000 )
 
     13 Sym.Ops. (with q -> -q+G )


     G cutoff =  392.6528  (   5754 G-vectors)     FFT grid: ( 40, 40, 72)
     G cutoff =  196.3264  (   2023 G-vectors)  smooth grid: ( 30, 30, 45)

     number of k points=   366  Marzari-Vanderbilt smearing, width (Ry)=  0.0200

     PseudoPot. # 1 for Na read from file:
     ./Na_pbe_v1.uspp.F.UPF
     MD5 check sum: 76a99c7e9422403d3e93cbc85ab7bccb
     Pseudo is Ultrasoft, Zval =  9.0
     Generated by new atomic code, or converted to UPF format
     Using radial grid of  819 points,  5 beta functions with: 
                l(1) =   0
                l(2) =   0
                l(3) =   1
                l(4) =   1
                l(5) =   2
     Q(r) pseudized with  8 coefficients,  rinner =    1.250   1.250   1.250
                                                       1.250   1.250

     Mode symmetry, D_3h (-62m) point group:


     Atomic displacements:
     There are   4 irreducible representations

     Representation     1      2 modes -E'  To be done

     Representation     2      2 modes -E'  To be done

     Representation     3      1 modes -A''2  To be done

     Representation     4      1 modes -A''2  To be done



     Alpha used in Ewald sum =   2.8000
     PHONON       :     5.56s CPU         8.58s WALL



     Representation #  1 modes #   1  2

     Self-consistent Calculation
 
     Pert. #  1: Fermi energy shift (Ry) =     0.0000E+00     0.0000E+00
     Pert. #  2: Fermi energy shift (Ry) =    -3.2526E-19     0.0000E+00

      iter #   1 total cpu time :    10.0 secs   av.it.:   5.2
      thresh= 1.000E-02 alpha_mix =  0.700 |ddv_scf|^2 =  9.507E-07
 
     Pert. #  1: Fermi energy shift (Ry) =     0.0000E+00     0.0000E+00
     Pert. #  2: Fermi energy shift (Ry) =    -4.5175E-21     0.0000E+00

      iter #   2 total cpu time :    12.1 secs   av.it.:   8.7
      thresh= 9.750E-05 alpha_mix =  0.700 |ddv_scf|^2 =  1.704E-08
 
     Pert. #  1: Fermi energy shift (Ry) =     0.0000E+00     0.0000E+00
     Pert. #  2: Fermi energy shift (Ry) =    -4.5175E-21     0.0000E+00

      iter #   3 total cpu time :    14.4 secs   av.it.:   8.9
      thresh= 1.305E-05 alpha_mix =  0.700 |ddv_scf|^2 =  4.396E-10
 
     Pert. #  1: Fermi energy shift (Ry) =     1.1294E-21     0.0000E+00
     Pert. #  2: Fermi energy shift (Ry) =     0.0000E+00     0.0000E+00

      iter #   4 total cpu time :    16.6 secs   av.it.:   8.5
      thresh= 2.097E-06 alpha_mix =  0.700 |ddv_scf|^2 =  1.554E-12
 
     Pert. #  1: Fermi energy shift (Ry) =     0.0000E+00     0.0000E+00
     Pert. #  2: Fermi energy shift (Ry) =    -1.9764E-21     0.0000E+00

      iter #   5 total cpu time :    18.4 secs   av.it.:   8.8
      thresh= 1.247E-07 alpha_mix =  0.700 |ddv_scf|^2 =  5.904E-15
 
     Pert. #  1: Fermi energy shift (Ry) =     1.1294E-21     0.0000E+00
     Pert. #  2: Fermi energy shift (Ry) =    -3.3881E-21     0.0000E+00

      iter #   6 total cpu time :    20.6 secs   av.it.:   8.7
      thresh= 7.684E-09 alpha_mix =  0.700 |ddv_scf|^2 =  1.051E-16

     End of self-consistent calculation

     Convergence has been achieved 


     Representation #  2 modes #   3  4

     Self-consistent Calculation
 
     Pert. #  1: Fermi energy shift (Ry) =    -2.1684E-19     0.0000E+00
     Pert. #  2: Fermi energy shift (Ry) =    -1.0842E-19     0.0000E+00

      iter #   1 total cpu time :    22.9 secs   av.it.:   5.2
      thresh= 1.000E-02 alpha_mix =  0.700 |ddv_scf|^2 =  9.506E-07
 
     Pert. #  1: Fermi energy shift (Ry) =    -3.6140E-20     0.0000E+00
     Pert. #  2: Fermi energy shift (Ry) =    -2.2588E-20     0.0000E+00

      iter #   2 total cpu time :    24.8 secs   av.it.:   8.7
      thresh= 9.750E-05 alpha_mix =  0.700 |ddv_scf|^2 =  1.705E-08
 
     Pert. #  1: Fermi energy shift (Ry) =    -4.5175E-21    -1.1479E-41
     Pert. #  2: Fermi energy shift (Ry) =    -5.6469E-21    -1.1479E-41

      iter #   3 total cpu time :    26.5 secs   av.it.:   8.9
      thresh= 1.306E-05 alpha_mix =  0.700 |ddv_scf|^2 =  4.408E-10
 
     Pert. #  1: Fermi energy shift (Ry) =    -3.3881E-21     7.6530E-41
     Pert. #  2: Fermi energy shift (Ry) =    -6.7763E-21     0.0000E+00

      iter #   4 total cpu time :    28.0 secs   av.it.:   8.5
      thresh= 2.100E-06 alpha_mix =  0.700 |ddv_scf|^2 =  1.547E-12
 
     Pert. #  1: Fermi energy shift (Ry) =    -2.2588E-21    -2.3915E-42
     Pert. #  2: Fermi energy shift (Ry) =    -6.2116E-21     0.0000E+00

      iter #   5 total cpu time :    29.6 secs   av.it.:   8.9
      thresh= 1.244E-07 alpha_mix =  0.700 |ddv_scf|^2 =  5.911E-15
 
     Pert. #  1: Fermi energy shift (Ry) =    -3.9528E-21    -4.7831E-42
     Pert. #  2: Fermi energy shift (Ry) =    -5.3645E-21     0.0000E+00

      iter #   6 total cpu time :    43.0 secs   av.it.:   8.7
      thresh= 7.688E-09 alpha_mix =  0.700 |ddv_scf|^2 =  1.053E-16

     End of self-consistent calculation

     Convergence has been achieved 


     Representation #  3 mode #   5

     Self-consistent Calculation
 
     Pert. #  1: Fermi energy shift (Ry) =     9.0350E-21     0.0000E+00

      iter #   1 total cpu time :    44.4 secs   av.it.:   5.5
      thresh= 1.000E-02 alpha_mix =  0.700 |ddv_scf|^2 =  2.061E-05
 
     Pert. #  1: Fermi energy shift (Ry) =    -1.1294E-21     0.0000E+00

      iter #   2 total cpu time :    45.5 secs   av.it.:   8.0
      thresh= 4.539E-04 alpha_mix =  0.700 |ddv_scf|^2 =  1.149E-05
 
     Pert. #  1: Fermi energy shift (Ry) =    -5.6469E-22     0.0000E+00

      iter #   3 total cpu time :    46.6 secs   av.it.:   7.0
      thresh= 3.390E-04 alpha_mix =  0.700 |ddv_scf|^2 =  1.927E-08
 
     Pert. #  1: Fermi energy shift (Ry) =    -1.4117E-22     0.0000E+00

      iter #   4 total cpu time :    47.6 secs   av.it.:   8.4
      thresh= 1.388E-05 alpha_mix =  0.700 |ddv_scf|^2 =  3.963E-10
 
     Pert. #  1: Fermi energy shift (Ry) =    -2.8234E-22     0.0000E+00

      iter #   5 total cpu time :    48.9 secs   av.it.:   7.9
      thresh= 1.991E-06 alpha_mix =  0.700 |ddv_scf|^2 =  3.081E-12
 
     Pert. #  1: Fermi energy shift (Ry) =     2.8234E-22     0.0000E+00

      iter #   6 total cpu time :    49.8 secs   av.it.:   7.9
      thresh= 1.755E-07 alpha_mix =  0.700 |ddv_scf|^2 =  3.146E-14
 
     Pert. #  1: Fermi energy shift (Ry) =     0.0000E+00     0.0000E+00

      iter #   7 total cpu time :    51.1 secs   av.it.:   8.2
      thresh= 1.774E-08 alpha_mix =  0.700 |ddv_scf|^2 =  5.986E-16

     End of self-consistent calculation

     Convergence has been achieved 


     Representation #  4 mode #   6

     Self-consistent Calculation
 
     Pert. #  1: Fermi energy shift (Ry) =     9.0350E-21     0.0000E+00

      iter #   1 total cpu time :    52.3 secs   av.it.:   5.5
      thresh= 1.000E-02 alpha_mix =  0.700 |ddv_scf|^2 =  2.061E-05
 
     Pert. #  1: Fermi energy shift (Ry) =    -1.1294E-21     0.0000E+00

      iter #   2 total cpu time :    53.2 secs   av.it.:   8.0
      thresh= 4.539E-04 alpha_mix =  0.700 |ddv_scf|^2 =  1.149E-05
 
     Pert. #  1: Fermi energy shift (Ry) =    -5.6469E-22     0.0000E+00

      iter #   3 total cpu time :    54.0 secs   av.it.:   7.0
      thresh= 3.390E-04 alpha_mix =  0.700 |ddv_scf|^2 =  1.927E-08
 
     Pert. #  1: Fermi energy shift (Ry) =     0.0000E+00     0.0000E+00

      iter #   4 total cpu time :    56.2 secs   av.it.:   8.4
      thresh= 1.388E-05 alpha_mix =  0.700 |ddv_scf|^2 =  3.964E-10
 
     Pert. #  1: Fermi energy shift (Ry) =    -2.8234E-22     0.0000E+00

      iter #   5 total cpu time :    57.1 secs   av.it.:   7.9
      thresh= 1.991E-06 alpha_mix =  0.700 |ddv_scf|^2 =  3.081E-12
 
     Pert. #  1: Fermi energy shift (Ry) =    -2.8234E-22     0.0000E+00

      iter #   6 total cpu time :    58.0 secs   av.it.:   7.9
      thresh= 1.755E-07 alpha_mix =  0.700 |ddv_scf|^2 =  3.145E-14
 
     Pert. #  1: Fermi energy shift (Ry) =     2.8234E-22     0.0000E+00

      iter #   7 total cpu time :    59.3 secs   av.it.:   8.2
      thresh= 1.773E-08 alpha_mix =  0.700 |ddv_scf|^2 =  5.985E-16

     End of self-consistent calculation

     Convergence has been achieved 
 
     Number of q in the star =    1
     List of q in the star:
          1   0.000000000   0.000000000   0.000000000

     Diagonalizing the dynamical matrix

     q = (    0.000000000   0.000000000   0.000000000 ) 

 **************************************************************************
     freq (    1) =      -0.545356 [THz] =     -18.191124 [cm-1]
     freq (    2) =      -0.545356 [THz] =     -18.191124 [cm-1]
     freq (    3) =       0.575511 [THz] =      19.196986 [cm-1]
     freq (    4) =       1.707381 [THz] =      56.952104 [cm-1]
     freq (    5) =       1.707381 [THz] =      56.952104 [cm-1]
     freq (    6) =       4.142463 [THz] =     138.177685 [cm-1]
 **************************************************************************

     Mode symmetry, D_3h (-62m) point group:

     freq (  1 -  2) =        -18.2  [cm-1]   --> E'              I+R
     freq (  3 -  3) =         19.2  [cm-1]   --> A''2            I  
     freq (  4 -  5) =         57.0  [cm-1]   --> E'              I+R
     freq (  6 -  6) =        138.2  [cm-1]   --> A''2            I  

     Calculation of q =    0.0000000   0.0000000   0.1533310
 
     Parallelization info
     --------------------
     sticks:   dense  smooth     PW     G-vecs:    dense   smooth      PW
     Min         133      66     20                 5749     2015     348
     Max         134      67     21                 5754     2035     355
     Sum        1069     535    163                46013    16227    2803
 


     bravais-lattice index     =            4
     lattice parameter (alat)  =       6.9600  a.u.
     unit-cell volume          =     476.0675 (a.u.)^3
     number of atoms/cell      =            2
     number of atomic types    =            1
     number of electrons       =        18.00
     number of Kohn-Sham states=           13
     kinetic-energy cutoff     =      40.0000  Ry
     charge density cutoff     =     320.0000  Ry
     Exchange-correlation      = SLA  PW   PBE  PBE ( 1  4  3  4 0 0)

     celldm(1)=   6.960000  celldm(2)=   0.000000  celldm(3)=   1.630460
     celldm(4)=   0.000000  celldm(5)=   0.000000  celldm(6)=   0.000000

     crystal axes: (cart. coord. in units of alat)
               a(1) = (   1.000000   0.000000   0.000000 )  
               a(2) = (  -0.500000   0.866025   0.000000 )  
               a(3) = (   0.000000   0.000000   1.630460 )  

     reciprocal axes: (cart. coord. in units 2 pi/alat)
               b(1) = (  1.000000  0.577350  0.000000 )  
               b(2) = (  0.000000  1.154701  0.000000 )  
               b(3) = (  0.000000  0.000000  0.613324 )  


     PseudoPot. # 1 for Na read from file:
     ./Na_pbe_v1.uspp.F.UPF
     MD5 check sum: 76a99c7e9422403d3e93cbc85ab7bccb
     Pseudo is Ultrasoft, Zval =  9.0
     Generated by new atomic code, or converted to UPF format
     Using radial grid of  819 points,  5 beta functions with: 
                l(1) =   0
                l(2) =   0
                l(3) =   1
                l(4) =   1
                l(5) =   2
     Q(r) pseudized with  8 coefficients,  rinner =    1.250   1.250   1.250
                                                       1.250   1.250

     atomic species   valence    mass     pseudopotential
        Na             9.00    22.99000     Na( 1.00)

     12 Sym. Ops. (no inversion) found



   Cartesian axes

     site n.     atom                  positions (alat units)
         1           Na  tau(   1) = (   0.0000000   0.0000000   0.0000000  )
         2           Na  tau(   2) = (   0.5000000   0.2886751   0.8152300  )

     number of k points=  2616  Marzari-Vanderbilt smearing, width (Ry)=  0.0200

     Number of k-points >= 100: set verbosity='high' to print them.

     Dense  grid:    46013 G-vectors     FFT dimensions: (  40,  40,  72)

     Smooth grid:    16227 G-vectors     FFT dimensions: (  30,  30,  45)

     Largest allocated arrays     est. size (Mb)     dimensions
        Kohn-Sham Wavefunctions         0.05 Mb     (     270,   13)
        NL pseudopotentials             0.11 Mb     (     270,   26)
        Each V/rho on FFT grid          0.22 Mb     (   14400)
        Each G-vector array             0.04 Mb     (    5754)
        G-vector shells                 0.01 Mb     (    1682)
     Largest temporary arrays     est. size (Mb)     dimensions
        Auxiliary wavefunctions         0.21 Mb     (     270,   52)
        Each subspace H/S matrix        0.01 Mb     (      26,   26)
        Each <psi_i|beta_j> matrix      0.01 Mb     (      26,   13)

     The potential is recalculated from file :
     ./na_hcp_6.96/_ph0/na_hcp_6.96.save/charge-density.dat

     Starting wfc are   10 atomic +    3 random wfc

     Band Structure Calculation
     Davidson diagonalization with overlap

     ethr =  5.56E-11,  avg # of iterations = 23.1

     total cpu time spent up to now is        7.9 secs

     End of band structure calculation

     Number of k-points >= 100: set verbosity='high' to print the bands.

     the Fermi energy is     1.8162 ev

     Writing output data file na_hcp_6.96.save

                                                                                

     bravais-lattice index     =            4
     lattice parameter (alat)  =       6.9600  a.u.
     unit-cell volume          =     476.0675 (a.u.)^3
     number of atoms/cell      =            2
     number of atomic types    =            1
     kinetic-energy cut-off    =      40.0000  Ry
     charge density cut-off    =     320.0000  Ry
     convergence threshold     =      1.0E-15
     beta                      =       0.7000
     number of iterations used =            4
     Exchange-correlation      = SLA  PW   PBE  PBE ( 1  4  3  4 0 0)


     celldm(1)=    6.96000  celldm(2)=    0.00000  celldm(3)=    1.63046
     celldm(4)=    0.00000  celldm(5)=    0.00000  celldm(6)=    0.00000

     crystal axes: (cart. coord. in units of alat)
               a(1) = (  1.0000  0.0000  0.0000 )  
               a(2) = ( -0.5000  0.8660  0.0000 )  
               a(3) = (  0.0000  0.0000  1.6305 )  

     reciprocal axes: (cart. coord. in units 2 pi/alat)
               b(1) = (  1.0000  0.5774  0.0000 )  
               b(2) = (  0.0000  1.1547  0.0000 )  
               b(3) = (  0.0000  0.0000  0.6133 )  


     Atoms inside the unit cell: 

     Cartesian axes

     site n.  atom      mass           positions (alat units)
        1     Na  22.9900   tau(    1) = (    0.00000    0.00000    0.00000  )
        2     Na  22.9900   tau(    2) = (    0.50000    0.28868    0.81523  )

     Computing dynamical matrix for 
                    q = (   0.0000000   0.0000000   0.1533310 )
 
      6 Sym.Ops. (no q -> -q+G )


     G cutoff =  392.6528  (   5754 G-vectors)     FFT grid: ( 40, 40, 72)
     G cutoff =  196.3264  (   2025 G-vectors)  smooth grid: ( 30, 30, 45)

     number of k points=  2616  Marzari-Vanderbilt smearing, width (Ry)=  0.0200

     PseudoPot. # 1 for Na read from file:
     ./Na_pbe_v1.uspp.F.UPF
     MD5 check sum: 76a99c7e9422403d3e93cbc85ab7bccb
     Pseudo is Ultrasoft, Zval =  9.0
     Generated by new atomic code, or converted to UPF format
     Using radial grid of  819 points,  5 beta functions with: 
                l(1) =   0
                l(2) =   0
                l(3) =   1
                l(4) =   1
                l(5) =   2
     Q(r) pseudized with  8 coefficients,  rinner =    1.250   1.250   1.250
                                                       1.250   1.250

     Mode symmetry, C_3v (3m)   point group:


     Atomic displacements:
     There are   4 irreducible representations

     Representation     1      1 modes -A_1  L_1  To be done

     Representation     2      1 modes -A_1  L_1  To be done

     Representation     3      2 modes -E    L_3  To be done

     Representation     4      2 modes -E    L_3  To be done



     Alpha used in Ewald sum =   2.8000
     PHONON       :  1m 1.68s CPU     1m11.75s WALL



     Representation #  1 mode #   1

     Self-consistent Calculation

      iter #   1 total cpu time :    73.2 secs   av.it.:   5.8
      thresh= 1.000E-02 alpha_mix =  0.700 |ddv_scf|^2 =  3.105E-02

      iter #   2 total cpu time :    76.8 secs   av.it.:   6.8
      thresh= 1.000E-02 alpha_mix =  0.700 |ddv_scf|^2 =  1.691E+01

      iter #   3 total cpu time :    80.6 secs   av.it.:   6.7
      thresh= 1.000E-02 alpha_mix =  0.700 |ddv_scf|^2 =  2.000E-04

      iter #   4 total cpu time :    84.7 secs   av.it.:   7.3
      thresh= 1.414E-03 alpha_mix =  0.700 |ddv_scf|^2 =  3.582E-04

      iter #   5 total cpu time :    89.6 secs   av.it.:   6.4
      thresh= 1.893E-03 alpha_mix =  0.700 |ddv_scf|^2 =  1.283E-08

      iter #   6 total cpu time :    93.6 secs   av.it.:   8.3
      thresh= 1.133E-05 alpha_mix =  0.700 |ddv_scf|^2 =  1.368E-09

      iter #   7 total cpu time :    97.3 secs   av.it.:   7.8
      thresh= 3.699E-06 alpha_mix =  0.700 |ddv_scf|^2 =  2.423E-07

      iter #   8 total cpu time :   101.1 secs   av.it.:   4.8
      thresh= 4.922E-05 alpha_mix =  0.700 |ddv_scf|^2 =  4.403E-10

      iter #   9 total cpu time :   104.9 secs   av.it.:   7.4
      thresh= 2.098E-06 alpha_mix =  0.700 |ddv_scf|^2 =  6.108E-09

      iter #  10 total cpu time :   108.3 secs   av.it.:   6.0
      thresh= 7.815E-06 alpha_mix =  0.700 |ddv_scf|^2 =  2.316E-12

      iter #  11 total cpu time :   112.1 secs   av.it.:   8.0
      thresh= 1.522E-07 alpha_mix =  0.700 |ddv_scf|^2 =  1.283E-12

      iter #  12 total cpu time :   116.4 secs   av.it.:   7.1
      thresh= 1.133E-07 alpha_mix =  0.700 |ddv_scf|^2 =  4.228E-14

      iter #  13 total cpu time :   120.8 secs   av.it.:   8.4
      thresh= 2.056E-08 alpha_mix =  0.700 |ddv_scf|^2 =  2.904E-13

      iter #  14 total cpu time :   124.9 secs   av.it.:   4.5
      thresh= 5.389E-08 alpha_mix =  0.700 |ddv_scf|^2 =  8.751E-14

      iter #  15 total cpu time :   128.9 secs   av.it.:   6.9
      thresh= 2.958E-08 alpha_mix =  0.700 |ddv_scf|^2 =  8.741E-15

      iter #  16 total cpu time :   132.5 secs   av.it.:   6.1
      thresh= 9.349E-09 alpha_mix =  0.700 |ddv_scf|^2 =  6.242E-15

      iter #  17 total cpu time :   136.0 secs   av.it.:   6.7
      thresh= 7.900E-09 alpha_mix =  0.700 |ddv_scf|^2 =  3.110E-17

     End of self-consistent calculation

     Convergence has been achieved 


     Representation #  2 mode #   2

     Self-consistent Calculation

      iter #   1 total cpu time :   139.7 secs   av.it.:   5.8
      thresh= 1.000E-02 alpha_mix =  0.700 |ddv_scf|^2 =  3.105E-02

      iter #   2 total cpu time :   142.8 secs   av.it.:   6.8
      thresh= 1.000E-02 alpha_mix =  0.700 |ddv_scf|^2 =  1.691E+01

      iter #   3 total cpu time :   146.0 secs   av.it.:   6.7
      thresh= 1.000E-02 alpha_mix =  0.700 |ddv_scf|^2 =  2.000E-04

      iter #   4 total cpu time :   149.4 secs   av.it.:   7.3
      thresh= 1.414E-03 alpha_mix =  0.700 |ddv_scf|^2 =  3.582E-04

      iter #   5 total cpu time :   152.8 secs   av.it.:   6.4
      thresh= 1.893E-03 alpha_mix =  0.700 |ddv_scf|^2 =  1.283E-08

      iter #   6 total cpu time :   156.4 secs   av.it.:   8.3
      thresh= 1.133E-05 alpha_mix =  0.700 |ddv_scf|^2 =  6.005E-09

      iter #   7 total cpu time :   169.0 secs   av.it.:   6.6
      thresh= 7.749E-06 alpha_mix =  0.700 |ddv_scf|^2 =  1.871E-07

      iter #   8 total cpu time :   176.2 secs   av.it.:   5.8
      thresh= 4.326E-05 alpha_mix =  0.700 |ddv_scf|^2 =  3.890E-10

      iter #   9 total cpu time :   180.4 secs   av.it.:   7.5
      thresh= 1.972E-06 alpha_mix =  0.700 |ddv_scf|^2 =  6.064E-09

      iter #  10 total cpu time :   183.6 secs   av.it.:   6.0
      thresh= 7.787E-06 alpha_mix =  0.700 |ddv_scf|^2 =  2.418E-12

      iter #  11 total cpu time :   188.1 secs   av.it.:   8.0
      thresh= 1.555E-07 alpha_mix =  0.700 |ddv_scf|^2 =  1.212E-12

      iter #  12 total cpu time :   193.7 secs   av.it.:   7.1
      thresh= 1.101E-07 alpha_mix =  0.700 |ddv_scf|^2 =  4.920E-14

      iter #  13 total cpu time :   210.1 secs   av.it.:   8.4
      thresh= 2.218E-08 alpha_mix =  0.700 |ddv_scf|^2 =  1.786E-12

      iter #  14 total cpu time :   212.7 secs   av.it.:   4.1
      thresh= 1.336E-07 alpha_mix =  0.700 |ddv_scf|^2 =  1.938E-14

      iter #  15 total cpu time :   221.3 secs   av.it.:   7.7
      thresh= 1.392E-08 alpha_mix =  0.700 |ddv_scf|^2 =  9.452E-15

      iter #  16 total cpu time :   227.8 secs   av.it.:   6.1
      thresh= 9.722E-09 alpha_mix =  0.700 |ddv_scf|^2 =  6.383E-15

      iter #  17 total cpu time :   235.9 secs   av.it.:   6.7
      thresh= 7.989E-09 alpha_mix =  0.700 |ddv_scf|^2 =  3.253E-17

     End of self-consistent calculation

     Convergence has been achieved 


     Representation #  3 modes #   3  4

     Self-consistent Calculation

      iter #   1 total cpu time :   246.3 secs   av.it.:   5.3
      thresh= 1.000E-02 alpha_mix =  0.700 |ddv_scf|^2 =  9.496E-07

      iter #   2 total cpu time :   260.8 secs   av.it.:   8.7
      thresh= 9.745E-05 alpha_mix =  0.700 |ddv_scf|^2 =  1.706E-08

      iter #   3 total cpu time :   268.7 secs   av.it.:   9.0
      thresh= 1.306E-05 alpha_mix =  0.700 |ddv_scf|^2 =  4.325E-10

      iter #   4 total cpu time :   277.3 secs   av.it.:   8.6
      thresh= 2.080E-06 alpha_mix =  0.700 |ddv_scf|^2 =  1.485E-12

      iter #   5 total cpu time :   283.4 secs   av.it.:   9.0
      thresh= 1.219E-07 alpha_mix =  0.700 |ddv_scf|^2 =  4.369E-15

      iter #   6 total cpu time :   291.2 secs   av.it.:   8.6
      thresh= 6.610E-09 alpha_mix =  0.700 |ddv_scf|^2 =  1.001E-16

     End of self-consistent calculation

     Convergence has been achieved 


     Representation #  4 modes #   5  6

     Self-consistent Calculation

      iter #   1 total cpu time :   299.6 secs   av.it.:   5.3
      thresh= 1.000E-02 alpha_mix =  0.700 |ddv_scf|^2 =  9.496E-07

      iter #   2 total cpu time :   306.7 secs   av.it.:   8.7
      thresh= 9.745E-05 alpha_mix =  0.700 |ddv_scf|^2 =  1.706E-08

      iter #   3 total cpu time :   314.4 secs   av.it.:   9.0
      thresh= 1.306E-05 alpha_mix =  0.700 |ddv_scf|^2 =  4.337E-10

      iter #   4 total cpu time :   320.8 secs   av.it.:   8.5
      thresh= 2.083E-06 alpha_mix =  0.700 |ddv_scf|^2 =  1.478E-12

      iter #   5 total cpu time :   328.3 secs   av.it.:   8.9
      thresh= 1.216E-07 alpha_mix =  0.700 |ddv_scf|^2 =  4.377E-15

      iter #   6 total cpu time :   335.5 secs   av.it.:   8.6
      thresh= 6.616E-09 alpha_mix =  0.700 |ddv_scf|^2 =  1.003E-16

     End of self-consistent calculation

     Convergence has been achieved 
 
     Number of q in the star =    2
     List of q in the star:
          1   0.000000000   0.000000000   0.153330962
          2   0.000000000   0.000000000  -0.153330962

     Diagonalizing the dynamical matrix

     q = (    0.000000000   0.000000000   0.153330962 ) 

 **************************************************************************
     freq (    1) =       0.422700 [THz] =      14.099761 [cm-1]
     freq (    2) =       0.422700 [THz] =      14.099761 [cm-1]
     freq (    3) =       1.579982 [THz] =      52.702533 [cm-1]
     freq (    4) =       1.579982 [THz] =      52.702533 [cm-1]
     freq (    5) =       1.676054 [THz] =      55.907135 [cm-1]
     freq (    6) =       3.888786 [THz] =     129.715934 [cm-1]
 **************************************************************************

     Mode symmetry, C_3v (3m)   point group:

     freq (  1 -  2) =         14.1  [cm-1]   --> E    L_3           
     freq (  3 -  4) =         52.7  [cm-1]   --> E    L_3           
     freq (  5 -  5) =         55.9  [cm-1]   --> A_1  L_1           
     freq (  6 -  6) =        129.7  [cm-1]   --> A_1  L_1           

     Calculation of q =    0.0000000   0.0000000  -0.3066619
 
     Parallelization info
     --------------------
     sticks:   dense  smooth     PW     G-vecs:    dense   smooth      PW
     Min         133      66     20                 5749     2019     342
     Max         134      67     21                 5754     2035     345
     Sum        1069     535    163                46013    16227    2743
 


     bravais-lattice index     =            4
     lattice parameter (alat)  =       6.9600  a.u.
     unit-cell volume          =     476.0675 (a.u.)^3
     number of atoms/cell      =            2
     number of atomic types    =            1
     number of electrons       =        18.00
     number of Kohn-Sham states=           13
     kinetic-energy cutoff     =      40.0000  Ry
     charge density cutoff     =     320.0000  Ry
     Exchange-correlation      = SLA  PW   PBE  PBE ( 1  4  3  4 0 0)

     celldm(1)=   6.960000  celldm(2)=   0.000000  celldm(3)=   1.630460
     celldm(4)=   0.000000  celldm(5)=   0.000000  celldm(6)=   0.000000

     crystal axes: (cart. coord. in units of alat)
               a(1) = (   1.000000   0.000000   0.000000 )  
               a(2) = (  -0.500000   0.866025   0.000000 )  
               a(3) = (   0.000000   0.000000   1.630460 )  

     reciprocal axes: (cart. coord. in units 2 pi/alat)
               b(1) = (  1.000000  0.577350  0.000000 )  
               b(2) = (  0.000000  1.154701  0.000000 )  
               b(3) = (  0.000000  0.000000  0.613324 )  


     PseudoPot. # 1 for Na read from file:
     ./Na_pbe_v1.uspp.F.UPF
     MD5 check sum: 76a99c7e9422403d3e93cbc85ab7bccb
     Pseudo is Ultrasoft, Zval =  9.0
     Generated by new atomic code, or converted to UPF format
     Using radial grid of  819 points,  5 beta functions with: 
                l(1) =   0
                l(2) =   0
                l(3) =   1
                l(4) =   1
                l(5) =   2
     Q(r) pseudized with  8 coefficients,  rinner =    1.250   1.250   1.250
                                                       1.250   1.250

     atomic species   valence    mass     pseudopotential
        Na             9.00    22.99000     Na( 1.00)

     12 Sym. Ops. (no inversion) found



   Cartesian axes

     site n.     atom                  positions (alat units)
         1           Na  tau(   1) = (   0.0000000   0.0000000   0.0000000  )
         2           Na  tau(   2) = (   0.5000000   0.2886751   0.8152300  )

     number of k points=   732  Marzari-Vanderbilt smearing, width (Ry)=  0.0200

     Number of k-points >= 100: set verbosity='high' to print them.

     Dense  grid:    46013 G-vectors     FFT dimensions: (  40,  40,  72)

     Smooth grid:    16227 G-vectors     FFT dimensions: (  30,  30,  45)

     Largest allocated arrays     est. size (Mb)     dimensions
        Kohn-Sham Wavefunctions         0.05 Mb     (     267,   13)
        NL pseudopotentials             0.11 Mb     (     267,   26)
        Each V/rho on FFT grid          0.22 Mb     (   14400)
        Each G-vector array             0.04 Mb     (    5754)
        G-vector shells                 0.01 Mb     (    1684)
     Largest temporary arrays     est. size (Mb)     dimensions
        Auxiliary wavefunctions         0.21 Mb     (     267,   52)
        Each subspace H/S matrix        0.01 Mb     (      26,   26)
        Each <psi_i|beta_j> matrix      0.01 Mb     (      26,   13)

     The potential is recalculated from file :
     ./na_hcp_6.96/_ph0/na_hcp_6.96.save/charge-density.dat

     Starting wfc are   10 atomic +    3 random wfc

     Band Structure Calculation
     Davidson diagonalization with overlap

     ethr =  5.56E-11,  avg # of iterations = 23.3

     total cpu time spent up to now is       13.2 secs

     End of band structure calculation

     Number of k-points >= 100: set verbosity='high' to print the bands.

     the Fermi energy is     1.8162 ev

     Writing output data file na_hcp_6.96.save

                                                                                

     bravais-lattice index     =            4
     lattice parameter (alat)  =       6.9600  a.u.
     unit-cell volume          =     476.0675 (a.u.)^3
     number of atoms/cell      =            2
     number of atomic types    =            1
     kinetic-energy cut-off    =      40.0000  Ry
     charge density cut-off    =     320.0000  Ry
     convergence threshold     =      1.0E-15
     beta                      =       0.7000
     number of iterations used =            4
     Exchange-correlation      = SLA  PW   PBE  PBE ( 1  4  3  4 0 0)


     celldm(1)=    6.96000  celldm(2)=    0.00000  celldm(3)=    1.63046
     celldm(4)=    0.00000  celldm(5)=    0.00000  celldm(6)=    0.00000

     crystal axes: (cart. coord. in units of alat)
               a(1) = (  1.0000  0.0000  0.0000 )  
               a(2) = ( -0.5000  0.8660  0.0000 )  
               a(3) = (  0.0000  0.0000  1.6305 )  

     reciprocal axes: (cart. coord. in units 2 pi/alat)
               b(1) = (  1.0000  0.5774  0.0000 )  
               b(2) = (  0.0000  1.1547  0.0000 )  
               b(3) = (  0.0000  0.0000  0.6133 )  


     Atoms inside the unit cell: 

     Cartesian axes

     site n.  atom      mass           positions (alat units)
        1     Na  22.9900   tau(    1) = (    0.00000    0.00000    0.00000  )
        2     Na  22.9900   tau(    2) = (    0.50000    0.28868    0.81523  )

     Computing dynamical matrix for 
                    q = (   0.0000000   0.0000000  -0.3066619 )
 
     13 Sym.Ops. (with q -> -q+G )


     G cutoff =  392.6528  (   5754 G-vectors)     FFT grid: ( 40, 40, 72)
     G cutoff =  196.3264  (   2023 G-vectors)  smooth grid: ( 30, 30, 45)

     number of k points=   732  Marzari-Vanderbilt smearing, width (Ry)=  0.0200

     PseudoPot. # 1 for Na read from file:
     ./Na_pbe_v1.uspp.F.UPF
     MD5 check sum: 76a99c7e9422403d3e93cbc85ab7bccb
     Pseudo is Ultrasoft, Zval =  9.0
     Generated by new atomic code, or converted to UPF format
     Using radial grid of  819 points,  5 beta functions with: 
                l(1) =   0
                l(2) =   0
                l(3) =   1
                l(4) =   1
                l(5) =   2
     Q(r) pseudized with  8 coefficients,  rinner =    1.250   1.250   1.250
                                                       1.250   1.250

     Mode symmetry, D_3h (-62m) point group:


     Atomic displacements:
     There are   4 irreducible representations

     Representation     1      1 modes -A'_1  To be done

     Representation     2      2 modes -E'  To be done

     Representation     3      1 modes -A''2  To be done

     Representation     4      2 modes -E''  To be done



     Alpha used in Ewald sum =   2.8000
     PHONON       :  4m34.50s CPU     5m40.25s WALL



     Representation #  1 mode #   1

     Self-consistent Calculation

      iter #   1 total cpu time :   340.9 secs   av.it.:   5.7
      thresh= 1.000E-02 alpha_mix =  0.700 |ddv_scf|^2 =  9.867E-04

      iter #   2 total cpu time :   341.5 secs   av.it.:   7.0
      thresh= 3.141E-03 alpha_mix =  0.700 |ddv_scf|^2 =  2.627E-02

      iter #   3 total cpu time :   342.0 secs   av.it.:   5.9
      thresh= 1.000E-02 alpha_mix =  0.700 |ddv_scf|^2 =  7.248E-07

      iter #   4 total cpu time :   342.5 secs   av.it.:   7.9
      thresh= 8.514E-05 alpha_mix =  0.700 |ddv_scf|^2 =  3.490E-09

      iter #   5 total cpu time :   343.0 secs   av.it.:   8.7
      thresh= 5.907E-06 alpha_mix =  0.700 |ddv_scf|^2 =  2.680E-10

      iter #   6 total cpu time :   343.9 secs   av.it.:   8.5
      thresh= 1.637E-06 alpha_mix =  0.700 |ddv_scf|^2 =  6.969E-12

      iter #   7 total cpu time :   344.4 secs   av.it.:   8.9
      thresh= 2.640E-07 alpha_mix =  0.700 |ddv_scf|^2 =  9.704E-13

      iter #   8 total cpu time :   345.0 secs   av.it.:   7.6
      thresh= 9.851E-08 alpha_mix =  0.700 |ddv_scf|^2 =  4.505E-16

     End of self-consistent calculation

     Convergence has been achieved 


     Representation #  2 modes #   2  3

     Self-consistent Calculation

      iter #   1 total cpu time :   346.6 secs   av.it.:   5.2
      thresh= 1.000E-02 alpha_mix =  0.700 |ddv_scf|^2 =  9.486E-07

      iter #   2 total cpu time :   348.6 secs   av.it.:   8.7
      thresh= 9.740E-05 alpha_mix =  0.700 |ddv_scf|^2 =  1.706E-08

      iter #   3 total cpu time :   350.9 secs   av.it.:   9.0
      thresh= 1.306E-05 alpha_mix =  0.700 |ddv_scf|^2 =  4.246E-10

      iter #   4 total cpu time :   353.2 secs   av.it.:   8.5
      thresh= 2.061E-06 alpha_mix =  0.700 |ddv_scf|^2 =  1.427E-12

      iter #   5 total cpu time :   354.8 secs   av.it.:   8.9
      thresh= 1.194E-07 alpha_mix =  0.700 |ddv_scf|^2 =  2.752E-15

      iter #   6 total cpu time :   356.5 secs   av.it.:   8.2
      thresh= 5.246E-09 alpha_mix =  0.700 |ddv_scf|^2 =  9.116E-17

     End of self-consistent calculation

     Convergence has been achieved 


     Representation #  3 mode #   4

     Self-consistent Calculation

      iter #   1 total cpu time :   357.8 secs   av.it.:   5.7
      thresh= 1.000E-02 alpha_mix =  0.700 |ddv_scf|^2 =  9.867E-04

      iter #   2 total cpu time :   358.7 secs   av.it.:   7.0
      thresh= 3.141E-03 alpha_mix =  0.700 |ddv_scf|^2 =  2.627E-02

      iter #   3 total cpu time :   360.1 secs   av.it.:   5.9
      thresh= 1.000E-02 alpha_mix =  0.700 |ddv_scf|^2 =  7.250E-07

      iter #   4 total cpu time :   361.4 secs   av.it.:   7.9
      thresh= 8.515E-05 alpha_mix =  0.700 |ddv_scf|^2 =  3.493E-09

      iter #   5 total cpu time :   362.7 secs   av.it.:   8.7
      thresh= 5.910E-06 alpha_mix =  0.700 |ddv_scf|^2 =  2.677E-10

      iter #   6 total cpu time :   364.0 secs   av.it.:   8.5
      thresh= 1.636E-06 alpha_mix =  0.700 |ddv_scf|^2 =  6.975E-12

      iter #   7 total cpu time :   365.1 secs   av.it.:   8.9
      thresh= 2.641E-07 alpha_mix =  0.700 |ddv_scf|^2 =  9.708E-13

      iter #   8 total cpu time :   366.4 secs   av.it.:   7.6
      thresh= 9.853E-08 alpha_mix =  0.700 |ddv_scf|^2 =  4.395E-16

     End of self-consistent calculation

     Convergence has been achieved 


     Representation #  4 modes #   5  6

     Self-consistent Calculation

      iter #   1 total cpu time :   368.8 secs   av.it.:   5.2
      thresh= 1.000E-02 alpha_mix =  0.700 |ddv_scf|^2 =  9.485E-07

      iter #   2 total cpu time :   370.5 secs   av.it.:   8.7
      thresh= 9.739E-05 alpha_mix =  0.700 |ddv_scf|^2 =  1.707E-08

      iter #   3 total cpu time :   372.9 secs   av.it.:   9.0
      thresh= 1.306E-05 alpha_mix =  0.700 |ddv_scf|^2 =  4.258E-10

      iter #   4 total cpu time :   375.4 secs   av.it.:   8.5
      thresh= 2.064E-06 alpha_mix =  0.700 |ddv_scf|^2 =  1.419E-12

      iter #   5 total cpu time :   377.4 secs   av.it.:   9.0
      thresh= 1.191E-07 alpha_mix =  0.700 |ddv_scf|^2 =  2.760E-15

      iter #   6 total cpu time :   379.3 secs   av.it.:   8.3
      thresh= 5.254E-09 alpha_mix =  0.700 |ddv_scf|^2 =  9.130E-17

     End of self-consistent calculation

     Convergence has been achieved 
 
     Number of q in the star =    1
     List of q in the star:
          1   0.000000000   0.000000000  -0.306661924

     Diagonalizing the dynamical matrix

     q = (    0.000000000   0.000000000  -0.306661924 ) 

 **************************************************************************
     freq (    1) =       1.138720 [THz] =      37.983607 [cm-1]
     freq (    2) =       1.138720 [THz] =      37.983607 [cm-1]
     freq (    3) =       1.170700 [THz] =      39.050351 [cm-1]
     freq (    4) =       1.170700 [THz] =      39.050351 [cm-1]
     freq (    5) =       3.035468 [THz] =     101.252297 [cm-1]
     freq (    6) =       3.036215 [THz] =     101.277219 [cm-1]
 **************************************************************************

     Mode symmetry, D_3h (-62m) point group:

     freq (  1 -  2) =         38.0  [cm-1]   --> E'                 
     freq (  3 -  4) =         39.1  [cm-1]   --> E''                
     freq (  5 -  5) =        101.3  [cm-1]   --> A'_1               
     freq (  6 -  6) =        101.3  [cm-1]   --> A''2               

     Calculation of q =    0.0000000   0.2886751   0.0000000
 
     Parallelization info
     --------------------
     sticks:   dense  smooth     PW     G-vecs:    dense   smooth      PW
     Min         133      66     20                 5749     2023     372
     Max         134      67     21                 5754     2037     379
     Sum        1069     535    163                46013    16227    2997
 


     bravais-lattice index     =            4
     lattice parameter (alat)  =       6.9600  a.u.
     unit-cell volume          =     476.0675 (a.u.)^3
     number of atoms/cell      =            2
     number of atomic types    =            1
     number of electrons       =        18.00
     number of Kohn-Sham states=           13
     kinetic-energy cutoff     =      40.0000  Ry
     charge density cutoff     =     320.0000  Ry
     Exchange-correlation      = SLA  PW   PBE  PBE ( 1  4  3  4 0 0)

     celldm(1)=   6.960000  celldm(2)=   0.000000  celldm(3)=   1.630460
     celldm(4)=   0.000000  celldm(5)=   0.000000  celldm(6)=   0.000000

     crystal axes: (cart. coord. in units of alat)
               a(1) = (   1.000000   0.000000   0.000000 )  
               a(2) = (  -0.500000   0.866025   0.000000 )  
               a(3) = (   0.000000   0.000000   1.630460 )  

     reciprocal axes: (cart. coord. in units 2 pi/alat)
               b(1) = (  1.000000  0.577350  0.000000 )  
               b(2) = (  0.000000  1.154701  0.000000 )  
               b(3) = (  0.000000  0.000000  0.613324 )  


     PseudoPot. # 1 for Na read from file:
     ./Na_pbe_v1.uspp.F.UPF
     MD5 check sum: 76a99c7e9422403d3e93cbc85ab7bccb
     Pseudo is Ultrasoft, Zval =  9.0
     Generated by new atomic code, or converted to UPF format
     Using radial grid of  819 points,  5 beta functions with: 
                l(1) =   0
                l(2) =   0
                l(3) =   1
                l(4) =   1
                l(5) =   2
     Q(r) pseudized with  8 coefficients,  rinner =    1.250   1.250   1.250
                                                       1.250   1.250

     atomic species   valence    mass     pseudopotential
        Na             9.00    22.99000     Na( 1.00)

     12 Sym. Ops. (no inversion) found



   Cartesian axes

     site n.     atom                  positions (alat units)
         1           Na  tau(   1) = (   0.0000000   0.0000000   0.0000000  )
         2           Na  tau(   2) = (   0.5000000   0.2886751   0.8152300  )

     number of k points=  3600  Marzari-Vanderbilt smearing, width (Ry)=  0.0200

     Number of k-points >= 100: set verbosity='high' to print them.

     Dense  grid:    46013 G-vectors     FFT dimensions: (  40,  40,  72)

     Smooth grid:    16227 G-vectors     FFT dimensions: (  30,  30,  45)

     Largest allocated arrays     est. size (Mb)     dimensions
        Kohn-Sham Wavefunctions         0.05 Mb     (     276,   13)
        NL pseudopotentials             0.11 Mb     (     276,   26)
        Each V/rho on FFT grid          0.22 Mb     (   14400)
        Each G-vector array             0.04 Mb     (    5754)
        G-vector shells                 0.01 Mb     (    1742)
     Largest temporary arrays     est. size (Mb)     dimensions
        Auxiliary wavefunctions         0.22 Mb     (     276,   52)
        Each subspace H/S matrix        0.01 Mb     (      26,   26)
        Each <psi_i|beta_j> matrix      0.01 Mb     (      26,   13)

     The potential is recalculated from file :
     ./na_hcp_6.96/_ph0/na_hcp_6.96.save/charge-density.dat

     Starting wfc are   10 atomic +    3 random wfc

     Band Structure Calculation
     Davidson diagonalization with overlap

     ethr =  5.56E-11,  avg # of iterations = 22.6

     total cpu time spent up to now is       25.1 secs

     End of band structure calculation

     Number of k-points >= 100: set verbosity='high' to print the bands.

     the Fermi energy is     1.8162 ev

     Writing output data file na_hcp_6.96.save

                                                                                

     bravais-lattice index     =            4
     lattice parameter (alat)  =       6.9600  a.u.
     unit-cell volume          =     476.0675 (a.u.)^3
     number of atoms/cell      =            2
     number of atomic types    =            1
     kinetic-energy cut-off    =      40.0000  Ry
     charge density cut-off    =     320.0000  Ry
     convergence threshold     =      1.0E-15
     beta                      =       0.7000
     number of iterations used =            4
     Exchange-correlation      = SLA  PW   PBE  PBE ( 1  4  3  4 0 0)


     celldm(1)=    6.96000  celldm(2)=    0.00000  celldm(3)=    1.63046
     celldm(4)=    0.00000  celldm(5)=    0.00000  celldm(6)=    0.00000

     crystal axes: (cart. coord. in units of alat)
               a(1) = (  1.0000  0.0000  0.0000 )  
               a(2) = ( -0.5000  0.8660  0.0000 )  
               a(3) = (  0.0000  0.0000  1.6305 )  

     reciprocal axes: (cart. coord. in units 2 pi/alat)
               b(1) = (  1.0000  0.5774  0.0000 )  
               b(2) = (  0.0000  1.1547  0.0000 )  
               b(3) = (  0.0000  0.0000  0.6133 )  


     Atoms inside the unit cell: 

     Cartesian axes

     site n.  atom      mass           positions (alat units)
        1     Na  22.9900   tau(    1) = (    0.00000    0.00000    0.00000  )
        2     Na  22.9900   tau(    2) = (    0.50000    0.28868    0.81523  )

     Computing dynamical matrix for 
                    q = (   0.0000000   0.2886751   0.0000000 )
 
      4 Sym.Ops. (no q -> -q+G )


     G cutoff =  392.6528  (   5754 G-vectors)     FFT grid: ( 40, 40, 72)
     G cutoff =  196.3264  (   2027 G-vectors)  smooth grid: ( 30, 30, 45)

     number of k points=  3600  Marzari-Vanderbilt smearing, width (Ry)=  0.0200

     PseudoPot. # 1 for Na read from file:
     ./Na_pbe_v1.uspp.F.UPF
     MD5 check sum: 76a99c7e9422403d3e93cbc85ab7bccb
     Pseudo is Ultrasoft, Zval =  9.0
     Generated by new atomic code, or converted to UPF format
     Using radial grid of  819 points,  5 beta functions with: 
                l(1) =   0
                l(2) =   0
                l(3) =   1
                l(4) =   1
                l(5) =   2
     Q(r) pseudized with  8 coefficients,  rinner =    1.250   1.250   1.250
                                                       1.250   1.250

     Mode symmetry, C_2v (mm2)  point group:


     Atomic displacements:
     There are   6 irreducible representations

     Representation     1      1 modes -A_1  D_1  S_1  To be done

     Representation     2      1 modes -A_1  D_1  S_1  To be done

     Representation     3      1 modes -B_1  D_3  S_3  To be done

     Representation     4      1 modes -B_1  D_3  S_3  To be done

     Representation     5      1 modes -B_2  D_4  S_4  To be done

     Representation     6      1 modes -B_2  D_4  S_4  To be done



     Alpha used in Ewald sum =   2.8000
     PHONON       :  5m24.26s CPU     6m36.21s WALL



     Representation #  1 mode #   1

     Self-consistent Calculation

      iter #   1 total cpu time :   398.0 secs   av.it.:   5.7
      thresh= 1.000E-02 alpha_mix =  0.700 |ddv_scf|^2 =  7.125E-04

      iter #   2 total cpu time :   403.5 secs   av.it.:   7.2
      thresh= 2.669E-03 alpha_mix =  0.700 |ddv_scf|^2 =  2.502E-02

      iter #   3 total cpu time :   406.9 secs   av.it.:   5.4
      thresh= 1.000E-02 alpha_mix =  0.700 |ddv_scf|^2 =  6.105E-07

      iter #   4 total cpu time :   410.9 secs   av.it.:   8.1
      thresh= 7.814E-05 alpha_mix =  0.700 |ddv_scf|^2 =  3.313E-08

      iter #   5 total cpu time :   415.5 secs   av.it.:   8.2
      thresh= 1.820E-05 alpha_mix =  0.700 |ddv_scf|^2 =  8.199E-10

      iter #   6 total cpu time :   420.1 secs   av.it.:   8.7
      thresh= 2.863E-06 alpha_mix =  0.700 |ddv_scf|^2 =  1.955E-10

      iter #   7 total cpu time :   423.8 secs   av.it.:   7.7
      thresh= 1.398E-06 alpha_mix =  0.700 |ddv_scf|^2 =  1.844E-09

      iter #   8 total cpu time :   428.5 secs   av.it.:   6.6
      thresh= 4.294E-06 alpha_mix =  0.700 |ddv_scf|^2 =  3.596E-12

      iter #   9 total cpu time :   432.8 secs   av.it.:   8.6
      thresh= 1.896E-07 alpha_mix =  0.700 |ddv_scf|^2 =  7.443E-13

      iter #  10 total cpu time :   437.6 secs   av.it.:   7.6
      thresh= 8.627E-08 alpha_mix =  0.700 |ddv_scf|^2 =  2.172E-12

      iter #  11 total cpu time :   442.7 secs   av.it.:   7.0
      thresh= 1.474E-07 alpha_mix =  0.700 |ddv_scf|^2 =  2.008E-15

      iter #  12 total cpu time :   446.5 secs   av.it.:   8.8
      thresh= 4.481E-09 alpha_mix =  0.700 |ddv_scf|^2 =  1.228E-16

     End of self-consistent calculation

     Convergence has been achieved 


     Representation #  2 mode #   2

     Self-consistent Calculation

      iter #   1 total cpu time :   451.1 secs   av.it.:   5.7
      thresh= 1.000E-02 alpha_mix =  0.700 |ddv_scf|^2 =  7.125E-04

      iter #   2 total cpu time :   455.0 secs   av.it.:   7.2
      thresh= 2.669E-03 alpha_mix =  0.700 |ddv_scf|^2 =  2.502E-02

      iter #   3 total cpu time :   458.4 secs   av.it.:   5.4
      thresh= 1.000E-02 alpha_mix =  0.700 |ddv_scf|^2 =  6.105E-07

      iter #   4 total cpu time :   462.4 secs   av.it.:   8.1
      thresh= 7.813E-05 alpha_mix =  0.700 |ddv_scf|^2 =  3.315E-08

      iter #   5 total cpu time :   466.5 secs   av.it.:   8.2
      thresh= 1.821E-05 alpha_mix =  0.700 |ddv_scf|^2 =  8.206E-10

      iter #   6 total cpu time :   471.6 secs   av.it.:   8.7
      thresh= 2.865E-06 alpha_mix =  0.700 |ddv_scf|^2 =  1.463E-10

      iter #   7 total cpu time :   475.8 secs   av.it.:   8.0
      thresh= 1.209E-06 alpha_mix =  0.700 |ddv_scf|^2 =  1.787E-09

      iter #   8 total cpu time :   479.8 secs   av.it.:   6.5
      thresh= 4.228E-06 alpha_mix =  0.700 |ddv_scf|^2 =  4.057E-12

      iter #   9 total cpu time :   483.8 secs   av.it.:   8.6
      thresh= 2.014E-07 alpha_mix =  0.700 |ddv_scf|^2 =  7.399E-13

      iter #  10 total cpu time :   487.4 secs   av.it.:   7.6
      thresh= 8.602E-08 alpha_mix =  0.700 |ddv_scf|^2 =  2.198E-12

      iter #  11 total cpu time :   491.2 secs   av.it.:   7.0
      thresh= 1.482E-07 alpha_mix =  0.700 |ddv_scf|^2 =  2.006E-15

      iter #  12 total cpu time :   495.2 secs   av.it.:   8.8
      thresh= 4.479E-09 alpha_mix =  0.700 |ddv_scf|^2 =  1.234E-16

     End of self-consistent calculation

     Convergence has been achieved 


     Representation #  3 mode #   3

     Self-consistent Calculation

      iter #   1 total cpu time :   501.0 secs   av.it.:   5.4
      thresh= 1.000E-02 alpha_mix =  0.700 |ddv_scf|^2 =  4.118E-06

      iter #   2 total cpu time :   505.2 secs   av.it.:   8.3
      thresh= 2.029E-04 alpha_mix =  0.700 |ddv_scf|^2 =  6.590E-08

      iter #   3 total cpu time :   509.4 secs   av.it.:   8.5
      thresh= 2.567E-05 alpha_mix =  0.700 |ddv_scf|^2 =  2.912E-09

      iter #   4 total cpu time :   513.1 secs   av.it.:   8.1
      thresh= 5.396E-06 alpha_mix =  0.700 |ddv_scf|^2 =  1.755E-11

      iter #   5 total cpu time :   517.1 secs   av.it.:   8.1
      thresh= 4.189E-07 alpha_mix =  0.700 |ddv_scf|^2 =  1.299E-13

      iter #   6 total cpu time :   520.9 secs   av.it.:   8.5
      thresh= 3.604E-08 alpha_mix =  0.700 |ddv_scf|^2 =  4.543E-16

     End of self-consistent calculation

     Convergence has been achieved 


     Representation #  4 mode #   4

     Self-consistent Calculation

      iter #   1 total cpu time :   525.8 secs   av.it.:   5.3
      thresh= 1.000E-02 alpha_mix =  0.700 |ddv_scf|^2 =  4.118E-06

      iter #   2 total cpu time :   529.9 secs   av.it.:   8.3
      thresh= 2.029E-04 alpha_mix =  0.700 |ddv_scf|^2 =  6.593E-08

      iter #   3 total cpu time :   534.7 secs   av.it.:   8.5
      thresh= 2.568E-05 alpha_mix =  0.700 |ddv_scf|^2 =  2.919E-09

      iter #   4 total cpu time :   538.6 secs   av.it.:   8.1
      thresh= 5.403E-06 alpha_mix =  0.700 |ddv_scf|^2 =  1.750E-11

      iter #   5 total cpu time :   542.9 secs   av.it.:   8.1
      thresh= 4.183E-07 alpha_mix =  0.700 |ddv_scf|^2 =  1.296E-13

      iter #   6 total cpu time :   547.1 secs   av.it.:   8.5
      thresh= 3.600E-08 alpha_mix =  0.700 |ddv_scf|^2 =  4.548E-16

     End of self-consistent calculation

     Convergence has been achieved 


     Representation #  5 mode #   5

     Self-consistent Calculation

      iter #   1 total cpu time :   551.7 secs   av.it.:   5.5
      thresh= 1.000E-02 alpha_mix =  0.700 |ddv_scf|^2 =  1.140E-05

      iter #   2 total cpu time :   555.7 secs   av.it.:   8.4
      thresh= 3.377E-04 alpha_mix =  0.700 |ddv_scf|^2 =  2.395E-06

      iter #   3 total cpu time :   559.7 secs   av.it.:   7.6
      thresh= 1.548E-04 alpha_mix =  0.700 |ddv_scf|^2 =  1.384E-08

      iter #   4 total cpu time :   564.0 secs   av.it.:   8.6
      thresh= 1.176E-05 alpha_mix =  0.700 |ddv_scf|^2 =  4.639E-10

      iter #   5 total cpu time :   568.0 secs   av.it.:   8.1
      thresh= 2.154E-06 alpha_mix =  0.700 |ddv_scf|^2 =  2.728E-12

      iter #   6 total cpu time :   572.4 secs   av.it.:   8.4
      thresh= 1.652E-07 alpha_mix =  0.700 |ddv_scf|^2 =  1.420E-14

      iter #   7 total cpu time :   577.8 secs   av.it.:   8.2
      thresh= 1.192E-08 alpha_mix =  0.700 |ddv_scf|^2 =  6.563E-16

     End of self-consistent calculation

     Convergence has been achieved 


     Representation #  6 mode #   6

     Self-consistent Calculation

      iter #   1 total cpu time :   583.1 secs   av.it.:   5.5
      thresh= 1.000E-02 alpha_mix =  0.700 |ddv_scf|^2 =  1.140E-05

      iter #   2 total cpu time :   588.0 secs   av.it.:   8.4
      thresh= 3.377E-04 alpha_mix =  0.700 |ddv_scf|^2 =  2.395E-06

      iter #   3 total cpu time :   592.7 secs   av.it.:   7.6
      thresh= 1.548E-04 alpha_mix =  0.700 |ddv_scf|^2 =  1.384E-08

      iter #   4 total cpu time :   596.8 secs   av.it.:   8.6
      thresh= 1.176E-05 alpha_mix =  0.700 |ddv_scf|^2 =  4.641E-10

      iter #   5 total cpu time :   600.7 secs   av.it.:   8.1
      thresh= 2.154E-06 alpha_mix =  0.700 |ddv_scf|^2 =  2.728E-12

      iter #   6 total cpu time :   604.6 secs   av.it.:   8.4
      thresh= 1.652E-07 alpha_mix =  0.700 |ddv_scf|^2 =  1.420E-14

      iter #   7 total cpu time :   608.7 secs   av.it.:   8.2
      thresh= 1.192E-08 alpha_mix =  0.700 |ddv_scf|^2 =  6.562E-16

     End of self-consistent calculation

     Convergence has been achieved 
 
     Number of q in the star =    3
     List of q in the star:
          1   0.000000000   0.288675135   0.000000000
          2   0.250000000  -0.144337567   0.000000000
          3  -0.250000000  -0.144337567   0.000000000
     In addition there is the -q list: 
          1   0.000000000  -0.288675135   0.000000000
          2  -0.250000000   0.144337567   0.000000000
          3   0.250000000   0.144337567   0.000000000

     Diagonalizing the dynamical matrix

     q = (    0.000000000   0.288675135   0.000000000 ) 

 **************************************************************************
     freq (    1) =       1.172793 [THz] =      39.120168 [cm-1]
     freq (    2) =       1.459588 [THz] =      48.686607 [cm-1]
     freq (    3) =       2.467924 [THz] =      82.321076 [cm-1]
     freq (    4) =       2.648904 [THz] =      88.357912 [cm-1]
     freq (    5) =       3.235966 [THz] =     107.940209 [cm-1]
     freq (    6) =       3.888692 [THz] =     129.712806 [cm-1]
 **************************************************************************

     Mode symmetry, C_2v (mm2)  point group:

     freq (  1 -  1) =         39.1  [cm-1]   --> B_1  D_3  S_3      
     freq (  2 -  2) =         48.7  [cm-1]   --> B_2  D_4  S_4      
     freq (  3 -  3) =         82.3  [cm-1]   --> B_1  D_3  S_3      
     freq (  4 -  4) =         88.4  [cm-1]   --> A_1  D_1  S_1      
     freq (  5 -  5) =        107.9  [cm-1]   --> A_1  D_1  S_1      
     freq (  6 -  6) =        129.7  [cm-1]   --> B_2  D_4  S_4      

     Calculation of q =    0.0000000   0.2886751   0.1533310
 
     Parallelization info
     --------------------
     sticks:   dense  smooth     PW     G-vecs:    dense   smooth      PW
     Min         133      66     21                 5749     2017     375
     Max         134      67     22                 5754     2039     381
     Sum        1069     535    169                46013    16227    3027
 


     bravais-lattice index     =            4
     lattice parameter (alat)  =       6.9600  a.u.
     unit-cell volume          =     476.0675 (a.u.)^3
     number of atoms/cell      =            2
     number of atomic types    =            1
     number of electrons       =        18.00
     number of Kohn-Sham states=           13
     kinetic-energy cutoff     =      40.0000  Ry
     charge density cutoff     =     320.0000  Ry
     Exchange-correlation      = SLA  PW   PBE  PBE ( 1  4  3  4 0 0)

     celldm(1)=   6.960000  celldm(2)=   0.000000  celldm(3)=   1.630460
     celldm(4)=   0.000000  celldm(5)=   0.000000  celldm(6)=   0.000000

     crystal axes: (cart. coord. in units of alat)
               a(1) = (   1.000000   0.000000   0.000000 )  
               a(2) = (  -0.500000   0.866025   0.000000 )  
               a(3) = (   0.000000   0.000000   1.630460 )  

     reciprocal axes: (cart. coord. in units 2 pi/alat)
               b(1) = (  1.000000  0.577350  0.000000 )  
               b(2) = (  0.000000  1.154701  0.000000 )  
               b(3) = (  0.000000  0.000000  0.613324 )  


     PseudoPot. # 1 for Na read from file:
     ./Na_pbe_v1.uspp.F.UPF
     MD5 check sum: 76a99c7e9422403d3e93cbc85ab7bccb
     Pseudo is Ultrasoft, Zval =  9.0
     Generated by new atomic code, or converted to UPF format
     Using radial grid of  819 points,  5 beta functions with: 
                l(1) =   0
                l(2) =   0
                l(3) =   1
                l(4) =   1
                l(5) =   2
     Q(r) pseudized with  8 coefficients,  rinner =    1.250   1.250   1.250
                                                       1.250   1.250

     atomic species   valence    mass     pseudopotential
        Na             9.00    22.99000     Na( 1.00)

     12 Sym. Ops. (no inversion) found



   Cartesian axes

     site n.     atom                  positions (alat units)
         1           Na  tau(   1) = (   0.0000000   0.0000000   0.0000000  )
         2           Na  tau(   2) = (   0.5000000   0.2886751   0.8152300  )

     number of k points=  7200  Marzari-Vanderbilt smearing, width (Ry)=  0.0200

     Number of k-points >= 100: set verbosity='high' to print them.

     Dense  grid:    46013 G-vectors     FFT dimensions: (  40,  40,  72)

     Smooth grid:    16227 G-vectors     FFT dimensions: (  30,  30,  45)

     Largest allocated arrays     est. size (Mb)     dimensions
        Kohn-Sham Wavefunctions         0.05 Mb     (     270,   13)
        NL pseudopotentials             0.11 Mb     (     270,   26)
        Each V/rho on FFT grid          0.22 Mb     (   14400)
        Each G-vector array             0.04 Mb     (    5754)
        G-vector shells                 0.01 Mb     (    1685)
     Largest temporary arrays     est. size (Mb)     dimensions
        Auxiliary wavefunctions         0.21 Mb     (     270,   52)
        Each subspace H/S matrix        0.01 Mb     (      26,   26)
        Each <psi_i|beta_j> matrix      0.01 Mb     (      26,   13)

     The potential is recalculated from file :
     ./na_hcp_6.96/_ph0/na_hcp_6.96.save/charge-density.dat

     Starting wfc are   10 atomic +    3 random wfc

     Band Structure Calculation
     Davidson diagonalization with overlap

     ethr =  5.56E-11,  avg # of iterations = 22.6

     total cpu time spent up to now is       51.1 secs

     End of band structure calculation

     Number of k-points >= 100: set verbosity='high' to print the bands.

     the Fermi energy is     1.8162 ev

     Writing output data file na_hcp_6.96.save

                                                                                

     bravais-lattice index     =            4
     lattice parameter (alat)  =       6.9600  a.u.
     unit-cell volume          =     476.0675 (a.u.)^3
     number of atoms/cell      =            2
     number of atomic types    =            1
     kinetic-energy cut-off    =      40.0000  Ry
     charge density cut-off    =     320.0000  Ry
     convergence threshold     =      1.0E-15
     beta                      =       0.7000
     number of iterations used =            4
     Exchange-correlation      = SLA  PW   PBE  PBE ( 1  4  3  4 0 0)


     celldm(1)=    6.96000  celldm(2)=    0.00000  celldm(3)=    1.63046
     celldm(4)=    0.00000  celldm(5)=    0.00000  celldm(6)=    0.00000

     crystal axes: (cart. coord. in units of alat)
               a(1) = (  1.0000  0.0000  0.0000 )  
               a(2) = ( -0.5000  0.8660  0.0000 )  
               a(3) = (  0.0000  0.0000  1.6305 )  

     reciprocal axes: (cart. coord. in units 2 pi/alat)
               b(1) = (  1.0000  0.5774  0.0000 )  
               b(2) = (  0.0000  1.1547  0.0000 )  
               b(3) = (  0.0000  0.0000  0.6133 )  


     Atoms inside the unit cell: 

     Cartesian axes

     site n.  atom      mass           positions (alat units)
        1     Na  22.9900   tau(    1) = (    0.00000    0.00000    0.00000  )
        2     Na  22.9900   tau(    2) = (    0.50000    0.28868    0.81523  )

     Computing dynamical matrix for 
                    q = (   0.0000000   0.2886751   0.1533310 )
 
      2 Sym.Ops. (no q -> -q+G )


     G cutoff =  392.6528  (   5754 G-vectors)     FFT grid: ( 40, 40, 72)
     G cutoff =  196.3264  (   2029 G-vectors)  smooth grid: ( 30, 30, 45)

     number of k points=  7200  Marzari-Vanderbilt smearing, width (Ry)=  0.0200

     PseudoPot. # 1 for Na read from file:
     ./Na_pbe_v1.uspp.F.UPF
     MD5 check sum: 76a99c7e9422403d3e93cbc85ab7bccb
     Pseudo is Ultrasoft, Zval =  9.0
     Generated by new atomic code, or converted to UPF format
     Using radial grid of  819 points,  5 beta functions with: 
                l(1) =   0
                l(2) =   0
                l(3) =   1
                l(4) =   1
                l(5) =   2
     Q(r) pseudized with  8 coefficients,  rinner =    1.250   1.250   1.250
                                                       1.250   1.250

     Mode symmetry, C_s (m)     point group:


     Atomic displacements:
     There are   6 irreducible representations

     Representation     1      1 modes -A'  To be done

     Representation     2      1 modes -A'  To be done

     Representation     3      1 modes -A'  To be done

     Representation     4      1 modes -A'  To be done

     Representation     5      1 modes -A''  To be done

     Representation     6      1 modes -A''  To be done



     Alpha used in Ewald sum =   2.8000
     PHONON       :  9m12.26s CPU    10m42.35s WALL



     Representation #  1 mode #   1

     Self-consistent Calculation

      iter #   1 total cpu time :   645.9 secs   av.it.:   5.7
      thresh= 1.000E-02 alpha_mix =  0.700 |ddv_scf|^2 =  2.793E-04

      iter #   2 total cpu time :   656.0 secs   av.it.:   7.5
      thresh= 1.671E-03 alpha_mix =  0.700 |ddv_scf|^2 =  5.437E-03

      iter #   3 total cpu time :   661.8 secs   av.it.:   5.4
      thresh= 7.374E-03 alpha_mix =  0.700 |ddv_scf|^2 =  2.491E-06

      iter #   4 total cpu time :   669.1 secs   av.it.:   7.7
      thresh= 1.578E-04 alpha_mix =  0.700 |ddv_scf|^2 =  3.486E-07

      iter #   5 total cpu time :   675.2 secs   av.it.:   7.7
      thresh= 5.904E-05 alpha_mix =  0.700 |ddv_scf|^2 =  1.571E-09

      iter #   6 total cpu time :   683.3 secs   av.it.:   8.7
      thresh= 3.964E-06 alpha_mix =  0.700 |ddv_scf|^2 =  7.917E-11

      iter #   7 total cpu time :   690.7 secs   av.it.:   8.6
      thresh= 8.898E-07 alpha_mix =  0.700 |ddv_scf|^2 =  1.023E-10

      iter #   8 total cpu time :   696.8 secs   av.it.:   7.0
      thresh= 1.011E-06 alpha_mix =  0.700 |ddv_scf|^2 =  4.156E-11

      iter #   9 total cpu time :   703.2 secs   av.it.:   7.6
      thresh= 6.447E-07 alpha_mix =  0.700 |ddv_scf|^2 =  8.643E-13

      iter #  10 total cpu time :   709.8 secs   av.it.:   7.8
      thresh= 9.297E-08 alpha_mix =  0.700 |ddv_scf|^2 =  8.514E-13

      iter #  11 total cpu time :   716.5 secs   av.it.:   7.5
      thresh= 9.227E-08 alpha_mix =  0.700 |ddv_scf|^2 =  7.733E-15

      iter #  12 total cpu time :   723.1 secs   av.it.:   8.4
      thresh= 8.794E-09 alpha_mix =  0.700 |ddv_scf|^2 =  2.463E-15

      iter #  13 total cpu time :   729.9 secs   av.it.:   8.3
      thresh= 4.963E-09 alpha_mix =  0.700 |ddv_scf|^2 =  8.908E-16

     End of self-consistent calculation

     Convergence has been achieved 


     Representation #  2 mode #   2

     Self-consistent Calculation

      iter #   1 total cpu time :   737.0 secs   av.it.:   5.7
      thresh= 1.000E-02 alpha_mix =  0.700 |ddv_scf|^2 =  4.787E-05

      iter #   2 total cpu time :   743.1 secs   av.it.:   7.8
      thresh= 6.919E-04 alpha_mix =  0.700 |ddv_scf|^2 =  5.683E-04

      iter #   3 total cpu time :   750.6 secs   av.it.:   5.8
      thresh= 2.384E-03 alpha_mix =  0.700 |ddv_scf|^2 =  1.836E-05

      iter #   4 total cpu time :   757.8 secs   av.it.:   7.1
      thresh= 4.285E-04 alpha_mix =  0.700 |ddv_scf|^2 =  8.612E-08

      iter #   5 total cpu time :   764.2 secs   av.it.:   8.5
      thresh= 2.935E-05 alpha_mix =  0.700 |ddv_scf|^2 =  9.823E-10

      iter #   6 total cpu time :   770.9 secs   av.it.:   8.8
      thresh= 3.134E-06 alpha_mix =  0.700 |ddv_scf|^2 =  8.238E-11

      iter #   7 total cpu time :   777.3 secs   av.it.:   8.7
      thresh= 9.076E-07 alpha_mix =  0.700 |ddv_scf|^2 =  6.432E-11

      iter #   8 total cpu time :   782.8 secs   av.it.:   7.6
      thresh= 8.020E-07 alpha_mix =  0.700 |ddv_scf|^2 =  1.841E-10

      iter #   9 total cpu time :   789.7 secs   av.it.:   6.9
      thresh= 1.357E-06 alpha_mix =  0.700 |ddv_scf|^2 =  5.440E-12

      iter #  10 total cpu time :   796.5 secs   av.it.:   7.5
      thresh= 2.332E-07 alpha_mix =  0.700 |ddv_scf|^2 =  3.033E-12

      iter #  11 total cpu time :   802.7 secs   av.it.:   7.6
      thresh= 1.741E-07 alpha_mix =  0.700 |ddv_scf|^2 =  2.460E-14

      iter #  12 total cpu time :   809.4 secs   av.it.:   7.9
      thresh= 1.569E-08 alpha_mix =  0.700 |ddv_scf|^2 =  3.306E-15

      iter #  13 total cpu time :   815.9 secs   av.it.:   8.7
      thresh= 5.750E-09 alpha_mix =  0.700 |ddv_scf|^2 =  7.917E-17

     End of self-consistent calculation

     Convergence has been achieved 


     Representation #  3 mode #   3

     Self-consistent Calculation

      iter #   1 total cpu time :   823.6 secs   av.it.:   5.8
      thresh= 1.000E-02 alpha_mix =  0.700 |ddv_scf|^2 =  3.199E-04

      iter #   2 total cpu time :   830.5 secs   av.it.:   7.5
      thresh= 1.788E-03 alpha_mix =  0.700 |ddv_scf|^2 =  6.312E-03

      iter #   3 total cpu time :   837.0 secs   av.it.:   5.4
      thresh= 7.945E-03 alpha_mix =  0.700 |ddv_scf|^2 =  8.161E-07

      iter #   4 total cpu time :   843.4 secs   av.it.:   7.9
      thresh= 9.034E-05 alpha_mix =  0.700 |ddv_scf|^2 =  3.650E-07

      iter #   5 total cpu time :   850.2 secs   av.it.:   7.6
      thresh= 6.041E-05 alpha_mix =  0.700 |ddv_scf|^2 =  1.933E-09

      iter #   6 total cpu time :   856.3 secs   av.it.:   8.7
      thresh= 4.397E-06 alpha_mix =  0.700 |ddv_scf|^2 =  9.468E-11

      iter #   7 total cpu time :   863.1 secs   av.it.:   8.5
      thresh= 9.730E-07 alpha_mix =  0.700 |ddv_scf|^2 =  2.454E-12

      iter #   8 total cpu time :   869.8 secs   av.it.:   9.0
      thresh= 1.566E-07 alpha_mix =  0.700 |ddv_scf|^2 =  3.206E-12

      iter #   9 total cpu time :   876.5 secs   av.it.:   7.5
      thresh= 1.791E-07 alpha_mix =  0.700 |ddv_scf|^2 =  5.791E-12

      iter #  10 total cpu time :   882.8 secs   av.it.:   7.3
      thresh= 2.406E-07 alpha_mix =  0.700 |ddv_scf|^2 =  1.128E-13

      iter #  11 total cpu time :   888.4 secs   av.it.:   7.6
      thresh= 3.359E-08 alpha_mix =  0.700 |ddv_scf|^2 =  5.703E-14

      iter #  12 total cpu time :   895.8 secs   av.it.:   7.6
      thresh= 2.388E-08 alpha_mix =  0.700 |ddv_scf|^2 =  5.331E-16

     End of self-consistent calculation

     Convergence has been achieved 


     Representation #  4 mode #   4

     Self-consistent Calculation

      iter #   1 total cpu time :   903.8 secs   av.it.:   5.7
      thresh= 1.000E-02 alpha_mix =  0.700 |ddv_scf|^2 =  8.841E-05

      iter #   2 total cpu time :   910.2 secs   av.it.:   7.8
      thresh= 9.402E-04 alpha_mix =  0.700 |ddv_scf|^2 =  1.442E-03

      iter #   3 total cpu time :   917.2 secs   av.it.:   5.6
      thresh= 3.798E-03 alpha_mix =  0.700 |ddv_scf|^2 =  9.137E-06

      iter #   4 total cpu time :   923.0 secs   av.it.:   7.4
      thresh= 3.023E-04 alpha_mix =  0.700 |ddv_scf|^2 =  1.364E-07

      iter #   5 total cpu time :   930.0 secs   av.it.:   8.1
      thresh= 3.693E-05 alpha_mix =  0.700 |ddv_scf|^2 =  1.120E-09

      iter #   6 total cpu time :   936.9 secs   av.it.:   8.8
      thresh= 3.346E-06 alpha_mix =  0.700 |ddv_scf|^2 =  9.593E-11

      iter #   7 total cpu time :   943.9 secs   av.it.:   8.7
      thresh= 9.795E-07 alpha_mix =  0.700 |ddv_scf|^2 =  3.751E-11

      iter #   8 total cpu time :   950.3 secs   av.it.:   8.0
      thresh= 6.125E-07 alpha_mix =  0.700 |ddv_scf|^2 =  2.914E-10

      iter #   9 total cpu time :   956.9 secs   av.it.:   6.6
      thresh= 1.707E-06 alpha_mix =  0.700 |ddv_scf|^2 =  4.334E-12

      iter #  10 total cpu time :   963.9 secs   av.it.:   7.7
      thresh= 2.082E-07 alpha_mix =  0.700 |ddv_scf|^2 =  3.364E-12

      iter #  11 total cpu time :   970.8 secs   av.it.:   7.5
      thresh= 1.834E-07 alpha_mix =  0.700 |ddv_scf|^2 =  1.693E-14

      iter #  12 total cpu time :   978.6 secs   av.it.:   8.2
      thresh= 1.301E-08 alpha_mix =  0.700 |ddv_scf|^2 =  3.852E-15

      iter #  13 total cpu time :   985.6 secs   av.it.:   8.5
      thresh= 6.207E-09 alpha_mix =  0.700 |ddv_scf|^2 =  9.181E-17

     End of self-consistent calculation

     Convergence has been achieved 


     Representation #  5 mode #   5

     Self-consistent Calculation

      iter #   1 total cpu time :   992.6 secs   av.it.:   5.4
      thresh= 1.000E-02 alpha_mix =  0.700 |ddv_scf|^2 =  4.109E-06

      iter #   2 total cpu time :   999.1 secs   av.it.:   8.3
      thresh= 2.027E-04 alpha_mix =  0.700 |ddv_scf|^2 =  6.569E-08

      iter #   3 total cpu time :  1006.1 secs   av.it.:   8.5
      thresh= 2.563E-05 alpha_mix =  0.700 |ddv_scf|^2 =  2.926E-09

      iter #   4 total cpu time :  1013.3 secs   av.it.:   8.0
      thresh= 5.409E-06 alpha_mix =  0.700 |ddv_scf|^2 =  1.358E-11

      iter #   5 total cpu time :  1020.1 secs   av.it.:   8.3
      thresh= 3.685E-07 alpha_mix =  0.700 |ddv_scf|^2 =  9.712E-14

      iter #   6 total cpu time :  1029.0 secs   av.it.:   8.5
      thresh= 3.116E-08 alpha_mix =  0.700 |ddv_scf|^2 =  4.351E-16

     End of self-consistent calculation

     Convergence has been achieved 


     Representation #  6 mode #   6

     Self-consistent Calculation

      iter #   1 total cpu time :  1036.8 secs   av.it.:   5.4
      thresh= 1.000E-02 alpha_mix =  0.700 |ddv_scf|^2 =  4.109E-06

      iter #   2 total cpu time :  1043.2 secs   av.it.:   8.3
      thresh= 2.027E-04 alpha_mix =  0.700 |ddv_scf|^2 =  6.572E-08

      iter #   3 total cpu time :  1050.5 secs   av.it.:   8.5
      thresh= 2.564E-05 alpha_mix =  0.700 |ddv_scf|^2 =  2.934E-09

      iter #   4 total cpu time :  1056.4 secs   av.it.:   8.0
      thresh= 5.416E-06 alpha_mix =  0.700 |ddv_scf|^2 =  1.354E-11

      iter #   5 total cpu time :  1062.8 secs   av.it.:   8.3
      thresh= 3.679E-07 alpha_mix =  0.700 |ddv_scf|^2 =  9.698E-14

      iter #   6 total cpu time :  1070.1 secs   av.it.:   8.5
      thresh= 3.114E-08 alpha_mix =  0.700 |ddv_scf|^2 =  4.356E-16

     End of self-consistent calculation

     Convergence has been achieved 
 
     Number of q in the star =    6
     List of q in the star:
          1   0.000000000   0.288675135   0.153330962
          2   0.000000000   0.288675135  -0.153330962
          3   0.250000000  -0.144337567   0.153330962
          4  -0.250000000  -0.144337567   0.153330962
          5   0.250000000  -0.144337567  -0.153330962
          6  -0.250000000  -0.144337567  -0.153330962
     In addition there is the -q list: 
          1   0.000000000  -0.288675135  -0.153330962
          2   0.000000000  -0.288675135   0.153330962
          3  -0.250000000   0.144337567  -0.153330962
          4   0.250000000   0.144337567  -0.153330962
          5  -0.250000000   0.144337567   0.153330962
          6   0.250000000   0.144337567   0.153330962

     Diagonalizing the dynamical matrix

     q = (    0.000000000   0.288675135   0.153330962 ) 

 **************************************************************************
     freq (    1) =       1.428927 [THz] =      47.663886 [cm-1]
     freq (    2) =       1.685399 [THz] =      56.218870 [cm-1]
     freq (    3) =       2.332923 [THz] =      77.817936 [cm-1]
     freq (    4) =       2.912112 [THz] =      97.137598 [cm-1]
     freq (    5) =       3.024288 [THz] =     100.879387 [cm-1]
     freq (    6) =       3.789226 [THz] =     126.394972 [cm-1]
 **************************************************************************

     Mode symmetry, C_s (m)     point group:

     freq (  1 -  1) =         47.7  [cm-1]   --> A''                
     freq (  2 -  2) =         56.2  [cm-1]   --> A'                 
     freq (  3 -  3) =         77.8  [cm-1]   --> A''                
     freq (  4 -  4) =         97.1  [cm-1]   --> A'                 
     freq (  5 -  5) =        100.9  [cm-1]   --> A'                 
     freq (  6 -  6) =        126.4  [cm-1]   --> A'                 

     Calculation of q =    0.0000000   0.2886751  -0.3066619
 
     Parallelization info
     --------------------
     sticks:   dense  smooth     PW     G-vecs:    dense   smooth      PW
     Min         133      66     20                 5749     2023     372
     Max         134      67     21                 5754     2037     379
     Sum        1069     535    163                46013    16227    2997
 


     bravais-lattice index     =            4
     lattice parameter (alat)  =       6.9600  a.u.
     unit-cell volume          =     476.0675 (a.u.)^3
     number of atoms/cell      =            2
     number of atomic types    =            1
     number of electrons       =        18.00
     number of Kohn-Sham states=           13
     kinetic-energy cutoff     =      40.0000  Ry
     charge density cutoff     =     320.0000  Ry
     Exchange-correlation      = SLA  PW   PBE  PBE ( 1  4  3  4 0 0)

     celldm(1)=   6.960000  celldm(2)=   0.000000  celldm(3)=   1.630460
     celldm(4)=   0.000000  celldm(5)=   0.000000  celldm(6)=   0.000000

     crystal axes: (cart. coord. in units of alat)
               a(1) = (   1.000000   0.000000   0.000000 )  
               a(2) = (  -0.500000   0.866025   0.000000 )  
               a(3) = (   0.000000   0.000000   1.630460 )  

     reciprocal axes: (cart. coord. in units 2 pi/alat)
               b(1) = (  1.000000  0.577350  0.000000 )  
               b(2) = (  0.000000  1.154701  0.000000 )  
               b(3) = (  0.000000  0.000000  0.613324 )  


     PseudoPot. # 1 for Na read from file:
     ./Na_pbe_v1.uspp.F.UPF
     MD5 check sum: 76a99c7e9422403d3e93cbc85ab7bccb
     Pseudo is Ultrasoft, Zval =  9.0
     Generated by new atomic code, or converted to UPF format
     Using radial grid of  819 points,  5 beta functions with: 
                l(1) =   0
                l(2) =   0
                l(3) =   1
                l(4) =   1
                l(5) =   2
     Q(r) pseudized with  8 coefficients,  rinner =    1.250   1.250   1.250
                                                       1.250   1.250

     atomic species   valence    mass     pseudopotential
        Na             9.00    22.99000     Na( 1.00)

     12 Sym. Ops. (no inversion) found



   Cartesian axes

     site n.     atom                  positions (alat units)
         1           Na  tau(   1) = (   0.0000000   0.0000000   0.0000000  )
         2           Na  tau(   2) = (   0.5000000   0.2886751   0.8152300  )

     number of k points=  3600  Marzari-Vanderbilt smearing, width (Ry)=  0.0200

     Number of k-points >= 100: set verbosity='high' to print them.

     Dense  grid:    46013 G-vectors     FFT dimensions: (  40,  40,  72)

     Smooth grid:    16227 G-vectors     FFT dimensions: (  30,  30,  45)

     Largest allocated arrays     est. size (Mb)     dimensions
        Kohn-Sham Wavefunctions         0.05 Mb     (     276,   13)
        NL pseudopotentials             0.11 Mb     (     276,   26)
        Each V/rho on FFT grid          0.22 Mb     (   14400)
        Each G-vector array             0.04 Mb     (    5754)
        G-vector shells                 0.01 Mb     (    1742)
     Largest temporary arrays     est. size (Mb)     dimensions
        Auxiliary wavefunctions         0.22 Mb     (     276,   52)
        Each subspace H/S matrix        0.01 Mb     (      26,   26)
        Each <psi_i|beta_j> matrix      0.01 Mb     (      26,   13)

     The potential is recalculated from file :
     ./na_hcp_6.96/_ph0/na_hcp_6.96.save/charge-density.dat

     Starting wfc are   10 atomic +    3 random wfc

     Band Structure Calculation
     Davidson diagonalization with overlap

     ethr =  5.56E-11,  avg # of iterations = 22.6

     total cpu time spent up to now is       72.0 secs

     End of band structure calculation

     Number of k-points >= 100: set verbosity='high' to print the bands.

     the Fermi energy is     1.8162 ev

     Writing output data file na_hcp_6.96.save

                                                                                

     bravais-lattice index     =            4
     lattice parameter (alat)  =       6.9600  a.u.
     unit-cell volume          =     476.0675 (a.u.)^3
     number of atoms/cell      =            2
     number of atomic types    =            1
     kinetic-energy cut-off    =      40.0000  Ry
     charge density cut-off    =     320.0000  Ry
     convergence threshold     =      1.0E-15
     beta                      =       0.7000
     number of iterations used =            4
     Exchange-correlation      = SLA  PW   PBE  PBE ( 1  4  3  4 0 0)


     celldm(1)=    6.96000  celldm(2)=    0.00000  celldm(3)=    1.63046
     celldm(4)=    0.00000  celldm(5)=    0.00000  celldm(6)=    0.00000

     crystal axes: (cart. coord. in units of alat)
               a(1) = (  1.0000  0.0000  0.0000 )  
               a(2) = ( -0.5000  0.8660  0.0000 )  
               a(3) = (  0.0000  0.0000  1.6305 )  

     reciprocal axes: (cart. coord. in units 2 pi/alat)
               b(1) = (  1.0000  0.5774  0.0000 )  
               b(2) = (  0.0000  1.1547  0.0000 )  
               b(3) = (  0.0000  0.0000  0.6133 )  


     Atoms inside the unit cell: 

     Cartesian axes

     site n.  atom      mass           positions (alat units)
        1     Na  22.9900   tau(    1) = (    0.00000    0.00000    0.00000  )
        2     Na  22.9900   tau(    2) = (    0.50000    0.28868    0.81523  )

     Computing dynamical matrix for 
                    q = (   0.0000000   0.2886751  -0.3066619 )
 
      4 Sym.Ops. (no q -> -q+G )


     G cutoff =  392.6528  (   5754 G-vectors)     FFT grid: ( 40, 40, 72)
[...]
   Cartesian axes

     site n.     atom                  positions (alat units)
         1           Na  tau(   1) = (   0.0000000   0.0000000   0.0000000  )
         2           Na  tau(   2) = (   0.5000000   0.2886751   0.8152300  )

     number of k points=  6912  Marzari-Vanderbilt smearing, width (Ry)=  0.0200

     Number of k-points >= 100: set verbosity='high' to print them.

     Dense  grid:    46013 G-vectors     FFT dimensions: (  40,  40,  72)

     Smooth grid:    16227 G-vectors     FFT dimensions: (  30,  30,  45)

     Largest allocated arrays     est. size (Mb)     dimensions
        Kohn-Sham Wavefunctions         0.06 Mb     (     281,   13)
        NL pseudopotentials             0.11 Mb     (     281,   26)
        Each V/rho on FFT grid          0.22 Mb     (   14400)
        Each G-vector array             0.04 Mb     (    5754)
        G-vector shells                 0.01 Mb     (    1651)
     Largest temporary arrays     est. size (Mb)     dimensions
        Auxiliary wavefunctions         0.22 Mb     (     281,   52)
        Each subspace H/S matrix        0.01 Mb     (      26,   26)
        Each <psi_i|beta_j> matrix      0.01 Mb     (      26,   13)

     The potential is recalculated from file :
     ./na_hcp_6.96/_ph0/na_hcp_6.96.save/charge-density.dat

     Starting wfc are   10 atomic +    3 random wfc

     Band Structure Calculation
     Davidson diagonalization with overlap

     ethr =  5.56E-11,  avg # of iterations = 22.3

     total cpu time spent up to now is      236.4 secs

     End of band structure calculation

     Number of k-points >= 100: set verbosity='high' to print the bands.

     the Fermi energy is     1.8162 ev

     Writing output data file na_hcp_6.96.save

                                                                                

     bravais-lattice index     =            4
     lattice parameter (alat)  =       6.9600  a.u.
     unit-cell volume          =     476.0675 (a.u.)^3
     number of atoms/cell      =            2
     number of atomic types    =            1
     kinetic-energy cut-off    =      40.0000  Ry
     charge density cut-off    =     320.0000  Ry
     convergence threshold     =      1.0E-15
     beta                      =       0.7000
     number of iterations used =            4
     Exchange-correlation      = SLA  PW   PBE  PBE ( 1  4  3  4 0 0)


     celldm(1)=    6.96000  celldm(2)=    0.00000  celldm(3)=    1.63046
     celldm(4)=    0.00000  celldm(5)=    0.00000  celldm(6)=    0.00000

     crystal axes: (cart. coord. in units of alat)
               a(1) = (  1.0000  0.0000  0.0000 )  
               a(2) = ( -0.5000  0.8660  0.0000 )  
               a(3) = (  0.0000  0.0000  1.6305 )  

     reciprocal axes: (cart. coord. in units 2 pi/alat)
               b(1) = (  1.0000  0.5774  0.0000 )  
               b(2) = (  0.0000  1.1547  0.0000 )  
               b(3) = (  0.0000  0.0000  0.6133 )  


     Atoms inside the unit cell: 

     Cartesian axes

     site n.  atom      mass           positions (alat units)
        1     Na  22.9900   tau(    1) = (    0.00000    0.00000    0.00000  )
        2     Na  22.9900   tau(    2) = (    0.50000    0.28868    0.81523  )

     Computing dynamical matrix for 
                    q = (   0.2500000   0.4330127  -0.3066619 )
 
      2 Sym.Ops. (no q -> -q+G )


     G cutoff =  392.6528  (   5754 G-vectors)     FFT grid: ( 40, 40, 72)
     G cutoff =  196.3264  (   2025 G-vectors)  smooth grid: ( 30, 30, 45)

     number of k points=  6912  Marzari-Vanderbilt smearing, width (Ry)=  0.0200

     PseudoPot. # 1 for Na read from file:
     ./Na_pbe_v1.uspp.F.UPF
     MD5 check sum: 76a99c7e9422403d3e93cbc85ab7bccb
     Pseudo is Ultrasoft, Zval =  9.0
     Generated by new atomic code, or converted to UPF format
     Using radial grid of  819 points,  5 beta functions with: 
                l(1) =   0
                l(2) =   0
                l(3) =   1
                l(4) =   1
                l(5) =   2
     Q(r) pseudized with  8 coefficients,  rinner =    1.250   1.250   1.250
                                                       1.250   1.250

     Mode symmetry, C_s (m)     point group:


     Atomic displacements:
     There are   6 irreducible representations

     Representation     1      1 modes -A'  To be done

     Representation     2      1 modes -A'  To be done

     Representation     3      1 modes -A'  To be done

     Representation     4      1 modes -A''  To be done

     Representation     5      1 modes -A''  To be done

     Representation     6      1 modes -A''  To be done



     Alpha used in Ewald sum =   2.8000
     PHONON       : 51m46.04s CPU    57m11.87s WALL



     Representation #  1 mode #   1

     Self-consistent Calculation

      iter #   1 total cpu time :  3435.6 secs   av.it.:   5.7
      thresh= 1.000E-02 alpha_mix =  0.700 |ddv_scf|^2 =  2.026E-05

      iter #   2 total cpu time :  3444.5 secs   av.it.:   8.4
      thresh= 4.502E-04 alpha_mix =  0.700 |ddv_scf|^2 =  1.240E-05

      iter #   3 total cpu time :  3452.9 secs   av.it.:   7.7
      thresh= 3.522E-04 alpha_mix =  0.700 |ddv_scf|^2 =  4.101E-08

      iter #   4 total cpu time :  3468.3 secs   av.it.:   8.8
      thresh= 2.025E-05 alpha_mix =  0.700 |ddv_scf|^2 =  1.566E-09

      iter #   5 total cpu time :  3477.1 secs   av.it.:   8.9
      thresh= 3.958E-06 alpha_mix =  0.700 |ddv_scf|^2 =  7.678E-11

      iter #   6 total cpu time :  3486.0 secs   av.it.:   9.0
      thresh= 8.763E-07 alpha_mix =  0.700 |ddv_scf|^2 =  5.514E-12

      iter #   7 total cpu time :  3506.1 secs   av.it.:   8.8
      thresh= 2.348E-07 alpha_mix =  0.700 |ddv_scf|^2 =  3.931E-14

      iter #   8 total cpu time :  3515.6 secs   av.it.:   8.7
      thresh= 1.983E-08 alpha_mix =  0.700 |ddv_scf|^2 =  1.013E-15

      iter #   9 total cpu time :  3523.7 secs   av.it.:   8.5
      thresh= 3.183E-09 alpha_mix =  0.700 |ddv_scf|^2 =  1.005E-16

     End of self-consistent calculation

     Convergence has been achieved 


     Representation #  2 mode #   2

     Self-consistent Calculation

      iter #   1 total cpu time :  3532.1 secs   av.it.:   5.6
      thresh= 1.000E-02 alpha_mix =  0.700 |ddv_scf|^2 =  1.094E-05

      iter #   2 total cpu time :  3539.9 secs   av.it.:   8.6
      thresh= 3.307E-04 alpha_mix =  0.700 |ddv_scf|^2 =  5.306E-06

      iter #   3 total cpu time :  3548.6 secs   av.it.:   7.8
      thresh= 2.303E-04 alpha_mix =  0.700 |ddv_scf|^2 =  6.473E-08

      iter #   4 total cpu time :  3556.9 secs   av.it.:   8.6
      thresh= 2.544E-05 alpha_mix =  0.700 |ddv_scf|^2 =  1.337E-09

      iter #   5 total cpu time :  3565.3 secs   av.it.:   8.7
      thresh= 3.656E-06 alpha_mix =  0.700 |ddv_scf|^2 =  1.124E-10

      iter #   6 total cpu time :  3574.0 secs   av.it.:   8.7
      thresh= 1.060E-06 alpha_mix =  0.700 |ddv_scf|^2 =  3.458E-12

      iter #   7 total cpu time :  3581.6 secs   av.it.:   9.0
      thresh= 1.860E-07 alpha_mix =  0.700 |ddv_scf|^2 =  7.055E-14

      iter #   8 total cpu time :  3589.6 secs   av.it.:   8.9
      thresh= 2.656E-08 alpha_mix =  0.700 |ddv_scf|^2 =  4.295E-15

      iter #   9 total cpu time :  3597.1 secs   av.it.:   8.9
      thresh= 6.553E-09 alpha_mix =  0.700 |ddv_scf|^2 =  1.645E-16

     End of self-consistent calculation

     Convergence has been achieved 


     Representation #  3 mode #   3

     Self-consistent Calculation

      iter #   1 total cpu time :  3606.5 secs   av.it.:   5.7
      thresh= 1.000E-02 alpha_mix =  0.700 |ddv_scf|^2 =  7.881E-06

      iter #   2 total cpu time :  3612.6 secs   av.it.:   8.7
      thresh= 2.807E-04 alpha_mix =  0.700 |ddv_scf|^2 =  1.374E-06

      iter #   3 total cpu time :  3620.2 secs   av.it.:   7.9
      thresh= 1.172E-04 alpha_mix =  0.700 |ddv_scf|^2 =  1.893E-07

      iter #   4 total cpu time :  3628.1 secs   av.it.:   8.0
      thresh= 4.351E-05 alpha_mix =  0.700 |ddv_scf|^2 =  2.630E-09

      iter #   5 total cpu time :  3636.4 secs   av.it.:   8.7
      thresh= 5.128E-06 alpha_mix =  0.700 |ddv_scf|^2 =  4.630E-11

      iter #   6 total cpu time :  3644.1 secs   av.it.:   8.7
      thresh= 6.805E-07 alpha_mix =  0.700 |ddv_scf|^2 =  2.010E-12

      iter #   7 total cpu time :  3651.6 secs   av.it.:   9.2
      thresh= 1.418E-07 alpha_mix =  0.700 |ddv_scf|^2 =  9.260E-14

      iter #   8 total cpu time :  3659.2 secs   av.it.:   9.2
      thresh= 3.043E-08 alpha_mix =  0.700 |ddv_scf|^2 =  9.172E-16

     End of self-consistent calculation

     Convergence has been achieved 


     Representation #  4 mode #   4

     Self-consistent Calculation

      iter #   1 total cpu time :  3668.1 secs   av.it.:   5.6
      thresh= 1.000E-02 alpha_mix =  0.700 |ddv_scf|^2 =  8.048E-06

      iter #   2 total cpu time :  3676.3 secs   av.it.:   8.7
      thresh= 2.837E-04 alpha_mix =  0.700 |ddv_scf|^2 =  1.535E-06

      iter #   3 total cpu time :  3684.1 secs   av.it.:   7.9
      thresh= 1.239E-04 alpha_mix =  0.700 |ddv_scf|^2 =  1.902E-07

      iter #   4 total cpu time :  3692.8 secs   av.it.:   8.0
      thresh= 4.362E-05 alpha_mix =  0.700 |ddv_scf|^2 =  2.540E-09

      iter #   5 total cpu time :  3703.5 secs   av.it.:   8.7
      thresh= 5.040E-06 alpha_mix =  0.700 |ddv_scf|^2 =  4.699E-11

      iter #   6 total cpu time :  3712.6 secs   av.it.:   8.7
      thresh= 6.855E-07 alpha_mix =  0.700 |ddv_scf|^2 =  2.181E-12

      iter #   7 total cpu time :  3721.5 secs   av.it.:   9.2
      thresh= 1.477E-07 alpha_mix =  0.700 |ddv_scf|^2 =  9.794E-14

      iter #   8 total cpu time :  3730.8 secs   av.it.:   9.2
      thresh= 3.130E-08 alpha_mix =  0.700 |ddv_scf|^2 =  9.396E-16

     End of self-consistent calculation

     Convergence has been achieved 


     Representation #  5 mode #   5

     Self-consistent Calculation

      iter #   1 total cpu time :  3739.1 secs   av.it.:   5.6
      thresh= 1.000E-02 alpha_mix =  0.700 |ddv_scf|^2 =  1.094E-05

      iter #   2 total cpu time :  3748.0 secs   av.it.:   8.6
      thresh= 3.307E-04 alpha_mix =  0.700 |ddv_scf|^2 =  5.306E-06

      iter #   3 total cpu time :  3755.7 secs   av.it.:   7.8
      thresh= 2.304E-04 alpha_mix =  0.700 |ddv_scf|^2 =  6.471E-08

      iter #   4 total cpu time :  3763.5 secs   av.it.:   8.6
      thresh= 2.544E-05 alpha_mix =  0.700 |ddv_scf|^2 =  1.338E-09

      iter #   5 total cpu time :  3771.5 secs   av.it.:   8.7
      thresh= 3.658E-06 alpha_mix =  0.700 |ddv_scf|^2 =  1.126E-10

      iter #   6 total cpu time :  3779.8 secs   av.it.:   8.7
      thresh= 1.061E-06 alpha_mix =  0.700 |ddv_scf|^2 =  3.460E-12

      iter #   7 total cpu time :  3787.9 secs   av.it.:   9.0
      thresh= 1.860E-07 alpha_mix =  0.700 |ddv_scf|^2 =  7.057E-14

      iter #   8 total cpu time :  3796.4 secs   av.it.:   8.9
      thresh= 2.657E-08 alpha_mix =  0.700 |ddv_scf|^2 =  4.295E-15

      iter #   9 total cpu time :  3804.4 secs   av.it.:   8.9
      thresh= 6.554E-09 alpha_mix =  0.700 |ddv_scf|^2 =  1.643E-16

     End of self-consistent calculation

     Convergence has been achieved 


     Representation #  6 mode #   6

     Self-consistent Calculation

      iter #   1 total cpu time :  3813.5 secs   av.it.:   5.7
      thresh= 1.000E-02 alpha_mix =  0.700 |ddv_scf|^2 =  2.010E-05

      iter #   2 total cpu time :  3820.7 secs   av.it.:   8.4
      thresh= 4.483E-04 alpha_mix =  0.700 |ddv_scf|^2 =  1.224E-05

      iter #   3 total cpu time :  3828.7 secs   av.it.:   7.7
      thresh= 3.499E-04 alpha_mix =  0.700 |ddv_scf|^2 =  4.170E-08

      iter #   4 total cpu time :  3837.1 secs   av.it.:   8.8
      thresh= 2.042E-05 alpha_mix =  0.700 |ddv_scf|^2 =  1.584E-09

      iter #   5 total cpu time :  3845.9 secs   av.it.:   8.9
      thresh= 3.980E-06 alpha_mix =  0.700 |ddv_scf|^2 =  7.605E-11

      iter #   6 total cpu time :  3853.4 secs   av.it.:   9.0
      thresh= 8.720E-07 alpha_mix =  0.700 |ddv_scf|^2 =  5.524E-12

      iter #   7 total cpu time :  3860.7 secs   av.it.:   8.8
      thresh= 2.350E-07 alpha_mix =  0.700 |ddv_scf|^2 =  3.961E-14

      iter #   8 total cpu time :  3868.3 secs   av.it.:   8.7
      thresh= 1.990E-08 alpha_mix =  0.700 |ddv_scf|^2 =  1.053E-15

      iter #   9 total cpu time :  3876.4 secs   av.it.:   8.5
      thresh= 3.245E-09 alpha_mix =  0.700 |ddv_scf|^2 =  9.711E-17

     End of self-consistent calculation

     Convergence has been achieved 
 
     Number of q in the star =    6
     List of q in the star:
          1   0.250000000   0.433012702  -0.306661924
          2  -0.250000000   0.433012702  -0.306661924
          3   0.250000000  -0.433012702  -0.306661924
          4  -0.500000000   0.000000000  -0.306661924
          5   0.500000000   0.000000000  -0.306661924
          6  -0.250000000  -0.433012702  -0.306661924

     Diagonalizing the dynamical matrix

     q = (    0.250000000   0.433012702  -0.306661924 ) 

 **************************************************************************
     freq (    1) =       2.095875 [THz] =      69.910879 [cm-1]
     freq (    2) =       2.102910 [THz] =      70.145528 [cm-1]
     freq (    3) =       3.160222 [THz] =     105.413658 [cm-1]
     freq (    4) =       3.167380 [THz] =     105.652435 [cm-1]
     freq (    5) =       3.932562 [THz] =     131.176135 [cm-1]
     freq (    6) =       3.939761 [THz] =     131.416280 [cm-1]
 **************************************************************************

     Mode symmetry, C_s (m)     point group:

     freq (  1 -  1) =         69.9  [cm-1]   --> A'                 
     freq (  2 -  2) =         70.1  [cm-1]   --> A''                
     freq (  3 -  3) =        105.4  [cm-1]   --> A'                 
     freq (  4 -  4) =        105.7  [cm-1]   --> A''                
     freq (  5 -  5) =        131.2  [cm-1]   --> A'                 
     freq (  6 -  6) =        131.4  [cm-1]   --> A''                
 
     init_run     :      1.53s CPU      1.71s WALL (      11 calls)
     electrons    :    169.18s CPU    173.50s WALL (      11 calls)

     Called by init_run:
     wfcinit      :      0.01s CPU      0.11s WALL (      11 calls)
     potinit      :      0.33s CPU      0.36s WALL (      11 calls)

     Called by electrons:
     c_bands      :    169.07s CPU    173.37s WALL (      11 calls)
     v_of_rho     :      0.10s CPU      0.09s WALL (      12 calls)
     newd         :      0.11s CPU      0.14s WALL (      12 calls)

     Called by c_bands:
     init_us_2    :      5.13s CPU      5.53s WALL (   80070 calls)
     cegterg      :    105.30s CPU    107.80s WALL (    4187 calls)

     Called by sum_band:

     Called by *egterg:
     h_psi        :     62.22s CPU     63.60s WALL (   67424 calls)
     s_psi        :     67.35s CPU     71.53s WALL ( 1869074 calls)
     g_psi        :      0.55s CPU      0.63s WALL (   60883 calls)
     cdiaghg      :     30.06s CPU     30.68s WALL (   63237 calls)

     Called by h_psi:
     add_vuspsi   :     42.70s CPU     44.09s WALL (  934771 calls)

     General routines
     calbec       :    103.55s CPU    107.69s WALL ( 1988522 calls)
     fft          :      2.82s CPU      2.68s WALL (    9743 calls)
     ffts         :      1.13s CPU      1.11s WALL (    9605 calls)
     fftw         :   1894.66s CPU   1939.26s WALL (14327665 calls)
     interpolate  :      0.70s CPU      0.74s WALL (    1339 calls)
     davcio       :     14.69s CPU    211.84s WALL (  347928 calls)
 
     Parallel routines
     fft_scatter  :   1292.44s CPU   1311.16s WALL (14347013 calls)
 
     PHONON       :     0h58m CPU        1h 4m WALL

     INITIALIZATION: 
     phq_setup    :      0.40s CPU      0.78s WALL (      12 calls)
     phq_init     :     16.87s CPU     17.67s WALL (      12 calls)
 
     phq_init     :     16.87s CPU     17.67s WALL (      12 calls)
     init_vloc    :      0.13s CPU      0.12s WALL (      12 calls)
     init_us_1    :      0.46s CPU      0.46s WALL (      12 calls)
     newd         :      0.11s CPU      0.14s WALL (      12 calls)
     dvanqq       :      1.40s CPU      1.41s WALL (      12 calls)
     drho         :     11.80s CPU     12.22s WALL (      12 calls)
 
     DYNAMICAL MATRIX:
     dynmat0      :      2.24s CPU      2.47s WALL (      12 calls)
     phqscf       :   3308.69s CPU   3601.81s WALL (      12 calls)
     dynmatrix    :      0.10s CPU      0.23s WALL (      12 calls)
 
     phqscf       :   3308.69s CPU   3601.81s WALL (      12 calls)
     solve_linter :   3304.84s CPU   3595.68s WALL (      66 calls)
     drhodv       :      3.67s CPU      4.06s WALL (      66 calls)
 
     dynmat0      :      2.24s CPU      2.47s WALL (      12 calls)
     dynmat_us    :      2.20s CPU      2.28s WALL (      12 calls)
     d2ionq       :      0.02s CPU      0.03s WALL (      12 calls)
 
     dynmat_us    :      2.20s CPU      2.28s WALL (      12 calls)
     addusdynmat  :      0.00s CPU      0.00s WALL (      12 calls)
 
     phqscf       :   3308.69s CPU   3601.81s WALL (      12 calls)
     solve_linter :   3304.84s CPU   3595.68s WALL (      66 calls)
 
     solve_linter :   3304.84s CPU   3595.68s WALL (      66 calls)
     dvqpsi_us    :     16.87s CPU     17.93s WALL (    7158 calls)
     ortho        :     38.48s CPU     40.17s WALL (   66956 calls)
     cgsolve      :   1064.46s CPU   1107.90s WALL (   66956 calls)
     incdrhoscf   :   1136.80s CPU   1148.31s WALL (   66956 calls)
     addusddens   :      8.86s CPU      8.93s WALL (     650 calls)
     vpsifft      :     75.26s CPU     80.36s WALL (   59798 calls)
     dv_of_drho   :      3.25s CPU      3.28s WALL (     620 calls)
     mix_pot      :      2.30s CPU     13.41s WALL (     584 calls)
     ef_shift     :      0.05s CPU      0.41s WALL (      30 calls)
     localdos     :      0.15s CPU      0.16s WALL (       4 calls)
     psymdvscf    :     16.79s CPU     16.77s WALL (     521 calls)
     newdq        :      7.91s CPU      7.96s WALL (     584 calls)
     adddvscf     :      5.00s CPU      5.38s WALL (   59798 calls)
     drhodvus     :      0.08s CPU      0.07s WALL (      66 calls)
 
     dvqpsi_us    :     16.87s CPU     17.93s WALL (    7158 calls)
     dvqpsi_us_on :      4.05s CPU      4.35s WALL (    7158 calls)
 
     cgsolve      :   1064.46s CPU   1107.90s WALL (   66956 calls)
     ch_psi       :   1025.70s CPU   1067.29s WALL (  867347 calls)
 
     ch_psi       :   1025.70s CPU   1067.29s WALL (  867347 calls)
     h_psiq       :    891.72s CPU    927.66s WALL (  867347 calls)
     last         :    128.30s CPU    133.84s WALL (  867347 calls)
 
     h_psiq       :    891.72s CPU    927.66s WALL (  867347 calls)
     firstfft     :    412.18s CPU    430.12s WALL ( 5420137 calls)
     secondfft    :    318.50s CPU    330.25s WALL ( 5420137 calls)
     add_vuspsi   :     42.70s CPU     44.09s WALL (  934771 calls)
 
     incdrhoscf   :   1136.80s CPU   1148.31s WALL (   66956 calls)
     addusdbec    :      6.61s CPU      6.93s WALL (   74114 calls)
 
     drhodvus     :      0.08s CPU      0.07s WALL (      66 calls)
 
      General routines
     calbec       :    103.55s CPU    107.69s WALL ( 1988522 calls)
     fft          :      2.82s CPU      2.68s WALL (    9743 calls)
     ffts         :      1.13s CPU      1.11s WALL (    9605 calls)
     fftw         :   1894.66s CPU   1939.26s WALL (14327665 calls)
     davcio       :     14.69s CPU    211.84s WALL (  347928 calls)
     write_rec    :      1.30s CPU     19.34s WALL (     650 calls)
 
 
     PHONON       :     0h58m CPU        1h 4m WALL

 
   This run was terminated on:   1:46: 3  28Mar2018            

=------------------------------------------------------------------------------=
   JOB DONE.
=------------------------------------------------------------------------------=
Application 30377944 resources: utime ~688370s, stime ~11173s, Rss ~49428, inblocks ~5997594778, outblocks ~1877297424
