
     Program PHONON v.5.4.0 starts on 28Mar2018 at  3: 5:22 

     This program is part of the open-source Quantum ESPRESSO suite
     for quantum simulation of materials; please cite
         "P. Giannozzi et al., J. Phys.:Condens. Matter 21 395502 (2009);
          URL http://www.quantum-espresso.org", 
     in publications or presentations arising from this work. More details at
     http://www.quantum-espresso.org/quote

     Parallel version (MPI & OpenMP), running on     192 processor cores
     Number of MPI processes:               192
     Threads/MPI process:                     1
     K-points division:     npool     =      24
     R & G space division:  proc/nbgrp/npool/nimage =       8

     Reading data from directory:
     ./na_hcp_7.018/na_hcp_7.018.save

   Info: using nr1, nr2, nr3 values from input

   Info: using nr1, nr2, nr3 values from input

     IMPORTANT: XC functional enforced from input :
     Exchange-correlation      = SLA  PW   PBE  PBE ( 1  4  3  4 0 0)
     Any further DFT definition will be discarded
     Please, verify this is what you really want

 
     Parallelization info
     --------------------
     sticks:   dense  smooth     PW     G-vecs:    dense   smooth      PW
     Min         133      68     20                 5879     2076     346
     Max         134      69     21                 5890     2095     351
     Sum        1069     547    163                47081    16673    2779
 


     Dynamical matrices for ( 4, 4, 4)  uniform grid of q-points
     (  12q-points):
       N         xq(1)         xq(2)         xq(3) 
       1   0.000000000   0.000000000   0.000000000
       2   0.000000000   0.000000000   0.153330962
       3   0.000000000   0.000000000  -0.306661924
       4   0.000000000   0.288675135   0.000000000
       5   0.000000000   0.288675135   0.153330962
       6   0.000000000   0.288675135  -0.306661924
       7   0.000000000  -0.577350269   0.000000000
       8   0.000000000  -0.577350269   0.153330962
       9   0.000000000  -0.577350269  -0.306661924
      10   0.250000000   0.433012702   0.000000000
      11   0.250000000   0.433012702   0.153330962
      12   0.250000000   0.433012702  -0.306661924

     Calculation of q =    0.0000000   0.0000000   0.0000000

                                                                                

     bravais-lattice index     =            4
     lattice parameter (alat)  =       7.0180  a.u.
     unit-cell volume          =     488.0686 (a.u.)^3
     number of atoms/cell      =            2
     number of atomic types    =            1
     kinetic-energy cut-off    =      40.0000  Ry
     charge density cut-off    =     320.0000  Ry
     convergence threshold     =      1.0E-15
     beta                      =       0.7000
     number of iterations used =            4
     Exchange-correlation      = SLA  PW   PBE  PBE ( 1  4  3  4 0 0)


     celldm(1)=    7.01800  celldm(2)=    0.00000  celldm(3)=    1.63046
     celldm(4)=    0.00000  celldm(5)=    0.00000  celldm(6)=    0.00000

     crystal axes: (cart. coord. in units of alat)
               a(1) = (  1.0000  0.0000  0.0000 )  
               a(2) = ( -0.5000  0.8660  0.0000 )  
               a(3) = (  0.0000  0.0000  1.6305 )  

     reciprocal axes: (cart. coord. in units 2 pi/alat)
               b(1) = (  1.0000  0.5774  0.0000 )  
               b(2) = (  0.0000  1.1547  0.0000 )  
               b(3) = (  0.0000  0.0000  0.6133 )  


     Atoms inside the unit cell: 

     Cartesian axes

     site n.  atom      mass           positions (alat units)
        1     Na  22.9900   tau(    1) = (    0.00000    0.00000    0.00000  )
        2     Na  22.9900   tau(    2) = (    0.50000    0.28868    0.81523  )

     Computing dynamical matrix for 
                    q = (   0.0000000   0.0000000   0.0000000 )
 
     13 Sym.Ops. (with q -> -q+G )


     G cutoff =  399.2243  (   5890 G-vectors)     FFT grid: ( 40, 40, 72)
     G cutoff =  199.6122  (   2095 G-vectors)  smooth grid: ( 30, 30, 48)

     number of k points=   366  Marzari-Vanderbilt smearing, width (Ry)=  0.0200

     PseudoPot. # 1 for Na read from file:
     ./Na_pbe_v1.uspp.F.UPF
     MD5 check sum: 76a99c7e9422403d3e93cbc85ab7bccb
     Pseudo is Ultrasoft, Zval =  9.0
     Generated by new atomic code, or converted to UPF format
     Using radial grid of  819 points,  5 beta functions with: 
                l(1) =   0
                l(2) =   0
                l(3) =   1
                l(4) =   1
                l(5) =   2
     Q(r) pseudized with  8 coefficients,  rinner =    1.250   1.250   1.250
                                                       1.250   1.250

     Mode symmetry, D_3h (-62m) point group:


     Atomic displacements:
     There are   4 irreducible representations

     Representation     1      2 modes -E'  To be done

     Representation     2      2 modes -E'  To be done

     Representation     3      1 modes -A''2  To be done

     Representation     4      1 modes -A''2  To be done



     Alpha used in Ewald sum =   2.8000
     PHONON       :     5.52s CPU         9.52s WALL



     Representation #  1 modes #   1  2

     Self-consistent Calculation
 
     Pert. #  1: Fermi energy shift (Ry) =     0.0000E+00     0.0000E+00
     Pert. #  2: Fermi energy shift (Ry) =     7.2280E-20     0.0000E+00

      iter #   1 total cpu time :    11.1 secs   av.it.:   5.2
      thresh= 1.000E-02 alpha_mix =  0.700 |ddv_scf|^2 =  9.338E-07
 
     Pert. #  1: Fermi energy shift (Ry) =     0.0000E+00     0.0000E+00
     Pert. #  2: Fermi energy shift (Ry) =     1.3553E-20     0.0000E+00

      iter #   2 total cpu time :    13.0 secs   av.it.:   8.7
      thresh= 9.664E-05 alpha_mix =  0.700 |ddv_scf|^2 =  1.672E-08
 
     Pert. #  1: Fermi energy shift (Ry) =    -1.1294E-21     0.0000E+00
     Pert. #  2: Fermi energy shift (Ry) =     9.0350E-21     0.0000E+00

      iter #   3 total cpu time :    15.7 secs   av.it.:   8.9
      thresh= 1.293E-05 alpha_mix =  0.700 |ddv_scf|^2 =  4.464E-10
 
     Pert. #  1: Fermi energy shift (Ry) =     0.0000E+00     0.0000E+00
     Pert. #  2: Fermi energy shift (Ry) =     3.3881E-21     0.0000E+00

      iter #   4 total cpu time :    18.5 secs   av.it.:   8.4
      thresh= 2.113E-06 alpha_mix =  0.700 |ddv_scf|^2 =  1.566E-12
 
     Pert. #  1: Fermi energy shift (Ry) =     0.0000E+00     0.0000E+00
     Pert. #  2: Fermi energy shift (Ry) =     4.5175E-21     0.0000E+00

      iter #   5 total cpu time :    20.6 secs   av.it.:   8.9
      thresh= 1.251E-07 alpha_mix =  0.700 |ddv_scf|^2 =  5.851E-15
 
     Pert. #  1: Fermi energy shift (Ry) =     0.0000E+00     0.0000E+00
     Pert. #  2: Fermi energy shift (Ry) =    -3.3881E-21     0.0000E+00

      iter #   6 total cpu time :    25.0 secs   av.it.:   8.6
      thresh= 7.649E-09 alpha_mix =  0.700 |ddv_scf|^2 =  1.056E-16

     End of self-consistent calculation

     Convergence has been achieved 


     Representation #  2 modes #   3  4

     Self-consistent Calculation
 
     Pert. #  1: Fermi energy shift (Ry) =    -3.6140E-19     3.1347E-37
     Pert. #  2: Fermi energy shift (Ry) =     3.6140E-20     0.0000E+00

      iter #   1 total cpu time :    27.9 secs   av.it.:   5.2
      thresh= 1.000E-02 alpha_mix =  0.700 |ddv_scf|^2 =  9.338E-07
 
     Pert. #  1: Fermi energy shift (Ry) =    -4.5175E-20     0.0000E+00
     Pert. #  2: Fermi energy shift (Ry) =    -5.4210E-20     0.0000E+00

      iter #   2 total cpu time :    29.9 secs   av.it.:   8.7
      thresh= 9.663E-05 alpha_mix =  0.700 |ddv_scf|^2 =  1.673E-08
 
     Pert. #  1: Fermi energy shift (Ry) =    -6.7763E-21    -2.6785E-41
     Pert. #  2: Fermi energy shift (Ry) =    -3.9528E-21    -7.6530E-42

      iter #   3 total cpu time :    31.7 secs   av.it.:   8.9
      thresh= 1.293E-05 alpha_mix =  0.700 |ddv_scf|^2 =  4.476E-10
 
     Pert. #  1: Fermi energy shift (Ry) =    -2.2588E-21     7.6530E-41
     Pert. #  2: Fermi energy shift (Ry) =    -2.8234E-21     0.0000E+00

      iter #   4 total cpu time :    33.6 secs   av.it.:   8.5
      thresh= 2.116E-06 alpha_mix =  0.700 |ddv_scf|^2 =  1.560E-12
 
     Pert. #  1: Fermi energy shift (Ry) =    -4.5175E-21     5.9789E-43
     Pert. #  2: Fermi energy shift (Ry) =     5.6469E-22     0.0000E+00

      iter #   5 total cpu time :    35.7 secs   av.it.:   8.9
      thresh= 1.249E-07 alpha_mix =  0.700 |ddv_scf|^2 =  5.851E-15
 
     Pert. #  1: Fermi energy shift (Ry) =    -2.2588E-21    -1.1958E-42
     Pert. #  2: Fermi energy shift (Ry) =    -7.9056E-21     0.0000E+00

      iter #   6 total cpu time :    38.7 secs   av.it.:   8.7
      thresh= 7.649E-09 alpha_mix =  0.700 |ddv_scf|^2 =  1.056E-16

     End of self-consistent calculation

     Convergence has been achieved 


     Representation #  3 mode #   5

     Self-consistent Calculation
 
     Pert. #  1: Fermi energy shift (Ry) =     9.0350E-21     0.0000E+00

      iter #   1 total cpu time :    40.7 secs   av.it.:   5.5
      thresh= 1.000E-02 alpha_mix =  0.700 |ddv_scf|^2 =  2.011E-05
 
     Pert. #  1: Fermi energy shift (Ry) =    -5.6469E-22     0.0000E+00

      iter #   2 total cpu time :    41.7 secs   av.it.:   8.0
      thresh= 4.484E-04 alpha_mix =  0.700 |ddv_scf|^2 =  1.128E-05
 
     Pert. #  1: Fermi energy shift (Ry) =    -5.6469E-22     0.0000E+00

      iter #   3 total cpu time :    42.7 secs   av.it.:   7.0
      thresh= 3.358E-04 alpha_mix =  0.700 |ddv_scf|^2 =  1.898E-08
 
     Pert. #  1: Fermi energy shift (Ry) =    -1.4117E-22     0.0000E+00

      iter #   4 total cpu time :    44.2 secs   av.it.:   8.4
      thresh= 1.378E-05 alpha_mix =  0.700 |ddv_scf|^2 =  4.019E-10
 
     Pert. #  1: Fermi energy shift (Ry) =     2.8234E-22     0.0000E+00

      iter #   5 total cpu time :    45.0 secs   av.it.:   7.9
      thresh= 2.005E-06 alpha_mix =  0.700 |ddv_scf|^2 =  3.070E-12
 
     Pert. #  1: Fermi energy shift (Ry) =    -2.8234E-22     0.0000E+00

      iter #   6 total cpu time :    45.5 secs   av.it.:   8.0
      thresh= 1.752E-07 alpha_mix =  0.700 |ddv_scf|^2 =  3.129E-14
 
     Pert. #  1: Fermi energy shift (Ry) =     2.8234E-22     0.0000E+00

      iter #   7 total cpu time :    46.1 secs   av.it.:   8.2
      thresh= 1.769E-08 alpha_mix =  0.700 |ddv_scf|^2 =  6.065E-16

     End of self-consistent calculation

     Convergence has been achieved 


     Representation #  4 mode #   6

     Self-consistent Calculation
 
     Pert. #  1: Fermi energy shift (Ry) =     0.0000E+00     0.0000E+00

      iter #   1 total cpu time :    47.6 secs   av.it.:   5.5
      thresh= 1.000E-02 alpha_mix =  0.700 |ddv_scf|^2 =  2.011E-05
 
     Pert. #  1: Fermi energy shift (Ry) =    -5.6469E-22     0.0000E+00

      iter #   2 total cpu time :    57.3 secs   av.it.:   8.0
      thresh= 4.484E-04 alpha_mix =  0.700 |ddv_scf|^2 =  1.128E-05
 
     Pert. #  1: Fermi energy shift (Ry) =     5.6469E-22     0.0000E+00

      iter #   3 total cpu time :    58.5 secs   av.it.:   7.0
      thresh= 3.358E-04 alpha_mix =  0.700 |ddv_scf|^2 =  1.898E-08
 
     Pert. #  1: Fermi energy shift (Ry) =     1.4117E-22     0.0000E+00

      iter #   4 total cpu time :    59.0 secs   av.it.:   8.4
      thresh= 1.378E-05 alpha_mix =  0.700 |ddv_scf|^2 =  4.020E-10
 
     Pert. #  1: Fermi energy shift (Ry) =     0.0000E+00     0.0000E+00

      iter #   5 total cpu time :    60.1 secs   av.it.:   7.9
      thresh= 2.005E-06 alpha_mix =  0.700 |ddv_scf|^2 =  3.069E-12
 
     Pert. #  1: Fermi energy shift (Ry) =     2.8234E-22     0.0000E+00

      iter #   6 total cpu time :    60.6 secs   av.it.:   8.0
      thresh= 1.752E-07 alpha_mix =  0.700 |ddv_scf|^2 =  3.128E-14
 
     Pert. #  1: Fermi energy shift (Ry) =     0.0000E+00     0.0000E+00

      iter #   7 total cpu time :    61.2 secs   av.it.:   8.2
      thresh= 1.769E-08 alpha_mix =  0.700 |ddv_scf|^2 =  6.064E-16

     End of self-consistent calculation

     Convergence has been achieved 
 
     Number of q in the star =    1
     List of q in the star:
          1   0.000000000   0.000000000   0.000000000

     Diagonalizing the dynamical matrix

     q = (    0.000000000   0.000000000   0.000000000 ) 

 **************************************************************************
     freq (    1) =      -0.553928 [THz] =     -18.477059 [cm-1]
     freq (    2) =      -0.553928 [THz] =     -18.477059 [cm-1]
     freq (    3) =       0.550754 [THz] =      18.371174 [cm-1]
     freq (    4) =       1.676322 [THz] =      55.916090 [cm-1]
     freq (    5) =       1.676322 [THz] =      55.916090 [cm-1]
     freq (    6) =       3.983743 [THz] =     132.883379 [cm-1]
 **************************************************************************

     Mode symmetry, D_3h (-62m) point group:

     freq (  1 -  2) =        -18.5  [cm-1]   --> E'              I+R
     freq (  3 -  3) =         18.4  [cm-1]   --> A''2            I  
     freq (  4 -  5) =         55.9  [cm-1]   --> E'              I+R
     freq (  6 -  6) =        132.9  [cm-1]   --> A''2            I  

     Calculation of q =    0.0000000   0.0000000   0.1533310
 
     Parallelization info
     --------------------
     sticks:   dense  smooth     PW     G-vecs:    dense   smooth      PW
     Min         133      68     20                 5879     2076     356
     Max         134      69     21                 5890     2095     363
     Sum        1069     547    163                47081    16673    2875
 


     bravais-lattice index     =            4
     lattice parameter (alat)  =       7.0180  a.u.
     unit-cell volume          =     488.0686 (a.u.)^3
     number of atoms/cell      =            2
     number of atomic types    =            1
     number of electrons       =        18.00
     number of Kohn-Sham states=           13
     kinetic-energy cutoff     =      40.0000  Ry
     charge density cutoff     =     320.0000  Ry
     Exchange-correlation      = SLA  PW   PBE  PBE ( 1  4  3  4 0 0)

     celldm(1)=   7.018000  celldm(2)=   0.000000  celldm(3)=   1.630460
     celldm(4)=   0.000000  celldm(5)=   0.000000  celldm(6)=   0.000000

     crystal axes: (cart. coord. in units of alat)
               a(1) = (   1.000000   0.000000   0.000000 )  
               a(2) = (  -0.500000   0.866025   0.000000 )  
               a(3) = (   0.000000   0.000000   1.630460 )  

     reciprocal axes: (cart. coord. in units 2 pi/alat)
               b(1) = (  1.000000  0.577350  0.000000 )  
               b(2) = (  0.000000  1.154701  0.000000 )  
               b(3) = (  0.000000  0.000000  0.613324 )  


     PseudoPot. # 1 for Na read from file:
     ./Na_pbe_v1.uspp.F.UPF
     MD5 check sum: 76a99c7e9422403d3e93cbc85ab7bccb
     Pseudo is Ultrasoft, Zval =  9.0
     Generated by new atomic code, or converted to UPF format
     Using radial grid of  819 points,  5 beta functions with: 
                l(1) =   0
                l(2) =   0
                l(3) =   1
                l(4) =   1
                l(5) =   2
     Q(r) pseudized with  8 coefficients,  rinner =    1.250   1.250   1.250
                                                       1.250   1.250

     atomic species   valence    mass     pseudopotential
        Na             9.00    22.99000     Na( 1.00)

     12 Sym. Ops. (no inversion) found



   Cartesian axes

     site n.     atom                  positions (alat units)
         1           Na  tau(   1) = (   0.0000000   0.0000000   0.0000000  )
         2           Na  tau(   2) = (   0.5000000   0.2886751   0.8152300  )

     number of k points=  2616  Marzari-Vanderbilt smearing, width (Ry)=  0.0200

     Number of k-points >= 100: set verbosity='high' to print them.

     Dense  grid:    47081 G-vectors     FFT dimensions: (  40,  40,  72)

     Smooth grid:    16673 G-vectors     FFT dimensions: (  30,  30,  48)

     Largest allocated arrays     est. size (Mb)     dimensions
        Kohn-Sham Wavefunctions         0.05 Mb     (     275,   13)
        NL pseudopotentials             0.11 Mb     (     275,   26)
        Each V/rho on FFT grid          0.22 Mb     (   14400)
        Each G-vector array             0.04 Mb     (    5890)
        G-vector shells                 0.01 Mb     (    1772)
     Largest temporary arrays     est. size (Mb)     dimensions
        Auxiliary wavefunctions         0.22 Mb     (     275,   52)
        Each subspace H/S matrix        0.01 Mb     (      26,   26)
        Each <psi_i|beta_j> matrix      0.01 Mb     (      26,   13)

     The potential is recalculated from file :
     ./na_hcp_7.018/_ph0/na_hcp_7.018.save/charge-density.dat

     Starting wfc are   10 atomic +    3 random wfc

     Band Structure Calculation
     Davidson diagonalization with overlap

     ethr =  5.56E-11,  avg # of iterations = 23.2

     total cpu time spent up to now is        8.7 secs

     End of band structure calculation

     Number of k-points >= 100: set verbosity='high' to print the bands.

     the Fermi energy is     1.7085 ev

     Writing output data file na_hcp_7.018.save

                                                                                

     bravais-lattice index     =            4
     lattice parameter (alat)  =       7.0180  a.u.
     unit-cell volume          =     488.0686 (a.u.)^3
     number of atoms/cell      =            2
     number of atomic types    =            1
     kinetic-energy cut-off    =      40.0000  Ry
     charge density cut-off    =     320.0000  Ry
     convergence threshold     =      1.0E-15
     beta                      =       0.7000
     number of iterations used =            4
     Exchange-correlation      = SLA  PW   PBE  PBE ( 1  4  3  4 0 0)


     celldm(1)=    7.01800  celldm(2)=    0.00000  celldm(3)=    1.63046
     celldm(4)=    0.00000  celldm(5)=    0.00000  celldm(6)=    0.00000

     crystal axes: (cart. coord. in units of alat)
               a(1) = (  1.0000  0.0000  0.0000 )  
               a(2) = ( -0.5000  0.8660  0.0000 )  
               a(3) = (  0.0000  0.0000  1.6305 )  

     reciprocal axes: (cart. coord. in units 2 pi/alat)
               b(1) = (  1.0000  0.5774  0.0000 )  
               b(2) = (  0.0000  1.1547  0.0000 )  
               b(3) = (  0.0000  0.0000  0.6133 )  


     Atoms inside the unit cell: 

     Cartesian axes

     site n.  atom      mass           positions (alat units)
        1     Na  22.9900   tau(    1) = (    0.00000    0.00000    0.00000  )
        2     Na  22.9900   tau(    2) = (    0.50000    0.28868    0.81523  )

     Computing dynamical matrix for 
                    q = (   0.0000000   0.0000000   0.1533310 )
 
      6 Sym.Ops. (no q -> -q+G )


     G cutoff =  399.2243  (   5890 G-vectors)     FFT grid: ( 40, 40, 72)
     G cutoff =  199.6122  (   2095 G-vectors)  smooth grid: ( 30, 30, 48)

     number of k points=  2616  Marzari-Vanderbilt smearing, width (Ry)=  0.0200

     PseudoPot. # 1 for Na read from file:
     ./Na_pbe_v1.uspp.F.UPF
     MD5 check sum: 76a99c7e9422403d3e93cbc85ab7bccb
     Pseudo is Ultrasoft, Zval =  9.0
     Generated by new atomic code, or converted to UPF format
     Using radial grid of  819 points,  5 beta functions with: 
                l(1) =   0
                l(2) =   0
                l(3) =   1
                l(4) =   1
                l(5) =   2
     Q(r) pseudized with  8 coefficients,  rinner =    1.250   1.250   1.250
                                                       1.250   1.250

     Mode symmetry, C_3v (3m)   point group:


     Atomic displacements:
     There are   4 irreducible representations

     Representation     1      1 modes -A_1  L_1  To be done

     Representation     2      1 modes -A_1  L_1  To be done

     Representation     3      2 modes -E    L_3  To be done

     Representation     4      2 modes -E    L_3  To be done



     Alpha used in Ewald sum =   2.8000
     PHONON       :  1m 4.08s CPU     1m14.73s WALL



     Representation #  1 mode #   1

     Self-consistent Calculation

      iter #   1 total cpu time :    76.8 secs   av.it.:   5.8
      thresh= 1.000E-02 alpha_mix =  0.700 |ddv_scf|^2 =  3.036E-02

      iter #   2 total cpu time :    81.1 secs   av.it.:   6.8
      thresh= 1.000E-02 alpha_mix =  0.700 |ddv_scf|^2 =  1.672E+01

      iter #   3 total cpu time :    85.5 secs   av.it.:   6.7
      thresh= 1.000E-02 alpha_mix =  0.700 |ddv_scf|^2 =  1.989E-04

      iter #   4 total cpu time :    91.8 secs   av.it.:   7.3
      thresh= 1.410E-03 alpha_mix =  0.700 |ddv_scf|^2 =  3.587E-04

      iter #   5 total cpu time :    95.9 secs   av.it.:   6.4
      thresh= 1.894E-03 alpha_mix =  0.700 |ddv_scf|^2 =  1.240E-08

      iter #   6 total cpu time :   101.1 secs   av.it.:   8.3
      thresh= 1.113E-05 alpha_mix =  0.700 |ddv_scf|^2 =  4.975E-08

      iter #   7 total cpu time :   116.3 secs   av.it.:   4.3
      thresh= 2.230E-05 alpha_mix =  0.700 |ddv_scf|^2 =  3.473E-08

      iter #   8 total cpu time :   120.6 secs   av.it.:   6.8
      thresh= 1.863E-05 alpha_mix =  0.700 |ddv_scf|^2 =  3.789E-10

      iter #   9 total cpu time :   125.2 secs   av.it.:   7.4
      thresh= 1.947E-06 alpha_mix =  0.700 |ddv_scf|^2 =  6.288E-09

      iter #  10 total cpu time :   130.1 secs   av.it.:   6.0
      thresh= 7.930E-06 alpha_mix =  0.700 |ddv_scf|^2 =  2.391E-12

      iter #  11 total cpu time :   135.8 secs   av.it.:   8.0
      thresh= 1.546E-07 alpha_mix =  0.700 |ddv_scf|^2 =  5.980E-13

      iter #  12 total cpu time :   139.5 secs   av.it.:   7.2
      thresh= 7.733E-08 alpha_mix =  0.700 |ddv_scf|^2 =  8.372E-14

      iter #  13 total cpu time :   143.8 secs   av.it.:   8.0
      thresh= 2.893E-08 alpha_mix =  0.700 |ddv_scf|^2 =  1.161E-11

      iter #  14 total cpu time :   147.8 secs   av.it.:   4.1
      thresh= 3.407E-07 alpha_mix =  0.700 |ddv_scf|^2 =  3.415E-15

      iter #  15 total cpu time :   152.5 secs   av.it.:   8.5
      thresh= 5.844E-09 alpha_mix =  0.700 |ddv_scf|^2 =  1.077E-14

      iter #  16 total cpu time :   156.8 secs   av.it.:   5.9
      thresh= 1.038E-08 alpha_mix =  0.700 |ddv_scf|^2 =  7.226E-15

      iter #  17 total cpu time :   161.1 secs   av.it.:   6.7
      thresh= 8.501E-09 alpha_mix =  0.700 |ddv_scf|^2 =  2.340E-17

     End of self-consistent calculation

     Convergence has been achieved 


     Representation #  2 mode #   2

     Self-consistent Calculation

      iter #   1 total cpu time :   165.8 secs   av.it.:   5.8
      thresh= 1.000E-02 alpha_mix =  0.700 |ddv_scf|^2 =  3.036E-02

      iter #   2 total cpu time :   169.7 secs   av.it.:   6.8
      thresh= 1.000E-02 alpha_mix =  0.700 |ddv_scf|^2 =  1.672E+01

      iter #   3 total cpu time :   173.7 secs   av.it.:   6.7
      thresh= 1.000E-02 alpha_mix =  0.700 |ddv_scf|^2 =  1.989E-04

      iter #   4 total cpu time :   178.0 secs   av.it.:   7.3
      thresh= 1.410E-03 alpha_mix =  0.700 |ddv_scf|^2 =  3.587E-04

      iter #   5 total cpu time :   182.0 secs   av.it.:   6.4
      thresh= 1.894E-03 alpha_mix =  0.700 |ddv_scf|^2 =  1.232E-08

      iter #   6 total cpu time :   186.0 secs   av.it.:   8.3
      thresh= 1.110E-05 alpha_mix =  0.700 |ddv_scf|^2 =  1.548E-08

      iter #   7 total cpu time :   191.5 secs   av.it.:   5.5
      thresh= 1.244E-05 alpha_mix =  0.700 |ddv_scf|^2 =  9.704E-08

      iter #   8 total cpu time :   196.1 secs   av.it.:   6.2
      thresh= 3.115E-05 alpha_mix =  0.700 |ddv_scf|^2 =  3.833E-10

      iter #   9 total cpu time :   200.3 secs   av.it.:   7.4
      thresh= 1.958E-06 alpha_mix =  0.700 |ddv_scf|^2 =  6.393E-09

      iter #  10 total cpu time :   204.8 secs   av.it.:   6.0
      thresh= 7.996E-06 alpha_mix =  0.700 |ddv_scf|^2 =  2.348E-12

      iter #  11 total cpu time :   208.8 secs   av.it.:   8.0
      thresh= 1.532E-07 alpha_mix =  0.700 |ddv_scf|^2 =  7.680E-13

      iter #  12 total cpu time :   213.0 secs   av.it.:   7.2
      thresh= 8.763E-08 alpha_mix =  0.700 |ddv_scf|^2 =  5.889E-14

      iter #  13 total cpu time :   217.4 secs   av.it.:   8.3
      thresh= 2.427E-08 alpha_mix =  0.700 |ddv_scf|^2 =  4.399E-12

      iter #  14 total cpu time :   220.9 secs   av.it.:   3.5
      thresh= 2.097E-07 alpha_mix =  0.700 |ddv_scf|^2 =  8.303E-15

      iter #  15 total cpu time :   225.6 secs   av.it.:   7.9
      thresh= 9.112E-09 alpha_mix =  0.700 |ddv_scf|^2 =  1.033E-14

      iter #  16 total cpu time :   230.5 secs   av.it.:   6.0
      thresh= 1.016E-08 alpha_mix =  0.700 |ddv_scf|^2 =  6.479E-15

      iter #  17 total cpu time :   235.1 secs   av.it.:   6.7
      thresh= 8.049E-09 alpha_mix =  0.700 |ddv_scf|^2 =  2.751E-17

     End of self-consistent calculation

     Convergence has been achieved 


     Representation #  3 modes #   3  4

     Self-consistent Calculation

      iter #   1 total cpu time :   242.5 secs   av.it.:   5.2
      thresh= 1.000E-02 alpha_mix =  0.700 |ddv_scf|^2 =  9.328E-07

      iter #   2 total cpu time :   251.7 secs   av.it.:   8.7
      thresh= 9.658E-05 alpha_mix =  0.700 |ddv_scf|^2 =  1.674E-08

      iter #   3 total cpu time :   260.0 secs   av.it.:   9.0
      thresh= 1.294E-05 alpha_mix =  0.700 |ddv_scf|^2 =  4.394E-10

      iter #   4 total cpu time :   269.5 secs   av.it.:   8.6
      thresh= 2.096E-06 alpha_mix =  0.700 |ddv_scf|^2 =  1.498E-12

      iter #   5 total cpu time :   279.1 secs   av.it.:   9.0
      thresh= 1.224E-07 alpha_mix =  0.700 |ddv_scf|^2 =  4.324E-15

      iter #   6 total cpu time :   293.2 secs   av.it.:   8.6
      thresh= 6.576E-09 alpha_mix =  0.700 |ddv_scf|^2 =  1.009E-16

     End of self-consistent calculation

     Convergence has been achieved 


     Representation #  4 modes #   5  6

     Self-consistent Calculation

      iter #   1 total cpu time :   322.1 secs   av.it.:   5.2
      thresh= 1.000E-02 alpha_mix =  0.700 |ddv_scf|^2 =  9.327E-07

      iter #   2 total cpu time :   338.7 secs   av.it.:   8.7
      thresh= 9.658E-05 alpha_mix =  0.700 |ddv_scf|^2 =  1.674E-08

      iter #   3 total cpu time :   357.5 secs   av.it.:   9.0
      thresh= 1.294E-05 alpha_mix =  0.700 |ddv_scf|^2 =  4.406E-10

      iter #   4 total cpu time :   375.0 secs   av.it.:   8.5
      thresh= 2.099E-06 alpha_mix =  0.700 |ddv_scf|^2 =  1.492E-12

      iter #   5 total cpu time :   390.3 secs   av.it.:   8.9
      thresh= 1.221E-07 alpha_mix =  0.700 |ddv_scf|^2 =  4.326E-15

      iter #   6 total cpu time :   398.3 secs   av.it.:   8.6
      thresh= 6.577E-09 alpha_mix =  0.700 |ddv_scf|^2 =  1.009E-16

     End of self-consistent calculation

     Convergence has been achieved 
 
     Number of q in the star =    2
     List of q in the star:
          1   0.000000000   0.000000000   0.153330962
          2   0.000000000   0.000000000  -0.153330962

     Diagonalizing the dynamical matrix

     q = (    0.000000000   0.000000000   0.153330962 ) 

 **************************************************************************
     freq (    1) =       0.408115 [THz] =      13.613260 [cm-1]
     freq (    2) =       0.408115 [THz] =      13.613260 [cm-1]
     freq (    3) =       1.555282 [THz] =      51.878629 [cm-1]
     freq (    4) =       1.555282 [THz] =      51.878629 [cm-1]
     freq (    5) =       1.618065 [THz] =      53.972853 [cm-1]
     freq (    6) =       3.747830 [THz] =     125.014142 [cm-1]
 **************************************************************************

     Mode symmetry, C_3v (3m)   point group:

     freq (  1 -  2) =         13.6  [cm-1]   --> E    L_3           
     freq (  3 -  4) =         51.9  [cm-1]   --> E    L_3           
     freq (  5 -  5) =         54.0  [cm-1]   --> A_1  L_1           
     freq (  6 -  6) =        125.0  [cm-1]   --> A_1  L_1           

     Calculation of q =    0.0000000   0.0000000  -0.3066619
 
     Parallelization info
     --------------------
     sticks:   dense  smooth     PW     G-vecs:    dense   smooth      PW
     Min         133      68     20                 5879     2076     346
     Max         134      69     21                 5890     2095     351
     Sum        1069     547    163                47081    16673    2779
 


     bravais-lattice index     =            4
     lattice parameter (alat)  =       7.0180  a.u.
     unit-cell volume          =     488.0686 (a.u.)^3
     number of atoms/cell      =            2
     number of atomic types    =            1
     number of electrons       =        18.00
     number of Kohn-Sham states=           13
     kinetic-energy cutoff     =      40.0000  Ry
     charge density cutoff     =     320.0000  Ry
     Exchange-correlation      = SLA  PW   PBE  PBE ( 1  4  3  4 0 0)

     celldm(1)=   7.018000  celldm(2)=   0.000000  celldm(3)=   1.630460
     celldm(4)=   0.000000  celldm(5)=   0.000000  celldm(6)=   0.000000

     crystal axes: (cart. coord. in units of alat)
               a(1) = (   1.000000   0.000000   0.000000 )  
               a(2) = (  -0.500000   0.866025   0.000000 )  
               a(3) = (   0.000000   0.000000   1.630460 )  

     reciprocal axes: (cart. coord. in units 2 pi/alat)
               b(1) = (  1.000000  0.577350  0.000000 )  
               b(2) = (  0.000000  1.154701  0.000000 )  
               b(3) = (  0.000000  0.000000  0.613324 )  


     PseudoPot. # 1 for Na read from file:
     ./Na_pbe_v1.uspp.F.UPF
     MD5 check sum: 76a99c7e9422403d3e93cbc85ab7bccb
     Pseudo is Ultrasoft, Zval =  9.0
     Generated by new atomic code, or converted to UPF format
     Using radial grid of  819 points,  5 beta functions with: 
                l(1) =   0
                l(2) =   0
                l(3) =   1
                l(4) =   1
                l(5) =   2
     Q(r) pseudized with  8 coefficients,  rinner =    1.250   1.250   1.250
                                                       1.250   1.250

     atomic species   valence    mass     pseudopotential
        Na             9.00    22.99000     Na( 1.00)

     12 Sym. Ops. (no inversion) found



   Cartesian axes

     site n.     atom                  positions (alat units)
         1           Na  tau(   1) = (   0.0000000   0.0000000   0.0000000  )
         2           Na  tau(   2) = (   0.5000000   0.2886751   0.8152300  )

     number of k points=   732  Marzari-Vanderbilt smearing, width (Ry)=  0.0200

     Number of k-points >= 100: set verbosity='high' to print them.

     Dense  grid:    47081 G-vectors     FFT dimensions: (  40,  40,  72)

     Smooth grid:    16673 G-vectors     FFT dimensions: (  30,  30,  48)

     Largest allocated arrays     est. size (Mb)     dimensions
        Kohn-Sham Wavefunctions         0.05 Mb     (     269,   13)
        NL pseudopotentials             0.11 Mb     (     269,   26)
        Each V/rho on FFT grid          0.22 Mb     (   14400)
        Each G-vector array             0.04 Mb     (    5890)
        G-vector shells                 0.01 Mb     (    1804)
     Largest temporary arrays     est. size (Mb)     dimensions
        Auxiliary wavefunctions         0.21 Mb     (     269,   52)
        Each subspace H/S matrix        0.01 Mb     (      26,   26)
        Each <psi_i|beta_j> matrix      0.01 Mb     (      26,   13)

     The potential is recalculated from file :
     ./na_hcp_7.018/_ph0/na_hcp_7.018.save/charge-density.dat

     Starting wfc are   10 atomic +    3 random wfc

     Band Structure Calculation
     Davidson diagonalization with overlap

     ethr =  5.56E-11,  avg # of iterations = 23.6

     total cpu time spent up to now is       14.1 secs

     End of band structure calculation

     Number of k-points >= 100: set verbosity='high' to print the bands.

     the Fermi energy is     1.7085 ev

     Writing output data file na_hcp_7.018.save

                                                                                

     bravais-lattice index     =            4
     lattice parameter (alat)  =       7.0180  a.u.
     unit-cell volume          =     488.0686 (a.u.)^3
     number of atoms/cell      =            2
     number of atomic types    =            1
     kinetic-energy cut-off    =      40.0000  Ry
     charge density cut-off    =     320.0000  Ry
     convergence threshold     =      1.0E-15
     beta                      =       0.7000
     number of iterations used =            4
     Exchange-correlation      = SLA  PW   PBE  PBE ( 1  4  3  4 0 0)


     celldm(1)=    7.01800  celldm(2)=    0.00000  celldm(3)=    1.63046
     celldm(4)=    0.00000  celldm(5)=    0.00000  celldm(6)=    0.00000

     crystal axes: (cart. coord. in units of alat)
               a(1) = (  1.0000  0.0000  0.0000 )  
               a(2) = ( -0.5000  0.8660  0.0000 )  
               a(3) = (  0.0000  0.0000  1.6305 )  

     reciprocal axes: (cart. coord. in units 2 pi/alat)
               b(1) = (  1.0000  0.5774  0.0000 )  
               b(2) = (  0.0000  1.1547  0.0000 )  
               b(3) = (  0.0000  0.0000  0.6133 )  


     Atoms inside the unit cell: 

     Cartesian axes

     site n.  atom      mass           positions (alat units)
        1     Na  22.9900   tau(    1) = (    0.00000    0.00000    0.00000  )
        2     Na  22.9900   tau(    2) = (    0.50000    0.28868    0.81523  )

     Computing dynamical matrix for 
                    q = (   0.0000000   0.0000000  -0.3066619 )
 
     13 Sym.Ops. (with q -> -q+G )


     G cutoff =  399.2243  (   5890 G-vectors)     FFT grid: ( 40, 40, 72)
     G cutoff =  199.6122  (   2095 G-vectors)  smooth grid: ( 30, 30, 48)

     number of k points=   732  Marzari-Vanderbilt smearing, width (Ry)=  0.0200

     PseudoPot. # 1 for Na read from file:
     ./Na_pbe_v1.uspp.F.UPF
     MD5 check sum: 76a99c7e9422403d3e93cbc85ab7bccb
     Pseudo is Ultrasoft, Zval =  9.0
     Generated by new atomic code, or converted to UPF format
     Using radial grid of  819 points,  5 beta functions with: 
                l(1) =   0
                l(2) =   0
                l(3) =   1
                l(4) =   1
                l(5) =   2
     Q(r) pseudized with  8 coefficients,  rinner =    1.250   1.250   1.250
                                                       1.250   1.250

     Mode symmetry, D_3h (-62m) point group:


     Atomic displacements:
     There are   4 irreducible representations

     Representation     1      1 modes -A'_1  To be done

     Representation     2      2 modes -E'  To be done

     Representation     3      1 modes -A''2  To be done

     Representation     4      2 modes -E''  To be done



     Alpha used in Ewald sum =   2.8000
     PHONON       :  6m14.10s CPU     6m44.08s WALL



     Representation #  1 mode #   1

     Self-consistent Calculation

      iter #   1 total cpu time :   405.2 secs   av.it.:   5.7
      thresh= 1.000E-02 alpha_mix =  0.700 |ddv_scf|^2 =  9.653E-04

      iter #   2 total cpu time :   406.0 secs   av.it.:   7.0
      thresh= 3.107E-03 alpha_mix =  0.700 |ddv_scf|^2 =  2.603E-02

      iter #   3 total cpu time :   406.4 secs   av.it.:   5.8
      thresh= 1.000E-02 alpha_mix =  0.700 |ddv_scf|^2 =  6.993E-07

      iter #   4 total cpu time :   407.0 secs   av.it.:   7.9
      thresh= 8.363E-05 alpha_mix =  0.700 |ddv_scf|^2 =  3.478E-09

      iter #   5 total cpu time :   407.6 secs   av.it.:   8.7
      thresh= 5.897E-06 alpha_mix =  0.700 |ddv_scf|^2 =  2.552E-10

      iter #   6 total cpu time :   408.3 secs   av.it.:   8.5
      thresh= 1.598E-06 alpha_mix =  0.700 |ddv_scf|^2 =  6.976E-12

      iter #   7 total cpu time :   408.9 secs   av.it.:   8.9
      thresh= 2.641E-07 alpha_mix =  0.700 |ddv_scf|^2 =  9.609E-13

      iter #   8 total cpu time :   410.0 secs   av.it.:   7.6
      thresh= 9.802E-08 alpha_mix =  0.700 |ddv_scf|^2 =  4.927E-16

     End of self-consistent calculation

     Convergence has been achieved 


     Representation #  2 modes #   2  3

     Self-consistent Calculation

      iter #   1 total cpu time :   412.4 secs   av.it.:   5.2
      thresh= 1.000E-02 alpha_mix =  0.700 |ddv_scf|^2 =  9.318E-07

      iter #   2 total cpu time :   415.0 secs   av.it.:   8.7
      thresh= 9.653E-05 alpha_mix =  0.700 |ddv_scf|^2 =  1.674E-08

      iter #   3 total cpu time :   417.2 secs   av.it.:   9.0
      thresh= 1.294E-05 alpha_mix =  0.700 |ddv_scf|^2 =  4.314E-10

      iter #   4 total cpu time :   421.5 secs   av.it.:   8.5
      thresh= 2.077E-06 alpha_mix =  0.700 |ddv_scf|^2 =  1.438E-12

      iter #   5 total cpu time :   424.2 secs   av.it.:   8.9
      thresh= 1.199E-07 alpha_mix =  0.700 |ddv_scf|^2 =  2.721E-15

      iter #   6 total cpu time :   434.5 secs   av.it.:   8.2
      thresh= 5.217E-09 alpha_mix =  0.700 |ddv_scf|^2 =  9.223E-17

     End of self-consistent calculation

     Convergence has been achieved 


     Representation #  3 mode #   4

     Self-consistent Calculation

      iter #   1 total cpu time :   454.3 secs   av.it.:   5.7
      thresh= 1.000E-02 alpha_mix =  0.700 |ddv_scf|^2 =  9.653E-04

      iter #   2 total cpu time :   454.8 secs   av.it.:   7.0
      thresh= 3.107E-03 alpha_mix =  0.700 |ddv_scf|^2 =  2.603E-02

      iter #   3 total cpu time :   455.3 secs   av.it.:   5.8
      thresh= 1.000E-02 alpha_mix =  0.700 |ddv_scf|^2 =  6.996E-07

      iter #   4 total cpu time :   455.8 secs   av.it.:   7.9
      thresh= 8.365E-05 alpha_mix =  0.700 |ddv_scf|^2 =  3.482E-09

      iter #   5 total cpu time :   456.3 secs   av.it.:   8.7
      thresh= 5.901E-06 alpha_mix =  0.700 |ddv_scf|^2 =  2.553E-10

      iter #   6 total cpu time :   456.9 secs   av.it.:   8.5
      thresh= 1.598E-06 alpha_mix =  0.700 |ddv_scf|^2 =  6.979E-12

      iter #   7 total cpu time :   457.4 secs   av.it.:   8.9
      thresh= 2.642E-07 alpha_mix =  0.700 |ddv_scf|^2 =  9.617E-13

      iter #   8 total cpu time :   458.1 secs   av.it.:   7.6
      thresh= 9.807E-08 alpha_mix =  0.700 |ddv_scf|^2 =  4.925E-16

     End of self-consistent calculation

     Convergence has been achieved 


     Representation #  4 modes #   5  6

     Self-consistent Calculation

      iter #   1 total cpu time :   462.2 secs   av.it.:   5.2
      thresh= 1.000E-02 alpha_mix =  0.700 |ddv_scf|^2 =  9.317E-07

      iter #   2 total cpu time :   464.1 secs   av.it.:   8.7
      thresh= 9.653E-05 alpha_mix =  0.700 |ddv_scf|^2 =  1.675E-08

      iter #   3 total cpu time :   470.9 secs   av.it.:   9.0
      thresh= 1.294E-05 alpha_mix =  0.700 |ddv_scf|^2 =  4.326E-10

      iter #   4 total cpu time :   473.1 secs   av.it.:   8.5
      thresh= 2.080E-06 alpha_mix =  0.700 |ddv_scf|^2 =  1.432E-12

      iter #   5 total cpu time :   485.3 secs   av.it.:   9.0
      thresh= 1.197E-07 alpha_mix =  0.700 |ddv_scf|^2 =  2.725E-15

      iter #   6 total cpu time :   492.4 secs   av.it.:   8.3
      thresh= 5.220E-09 alpha_mix =  0.700 |ddv_scf|^2 =  9.224E-17

     End of self-consistent calculation

     Convergence has been achieved 
 
     Number of q in the star =    1
     List of q in the star:
          1   0.000000000   0.000000000  -0.306661924

     Diagonalizing the dynamical matrix

     q = (    0.000000000   0.000000000  -0.306661924 ) 

 **************************************************************************
     freq (    1) =       1.120986 [THz] =      37.392077 [cm-1]
     freq (    2) =       1.120986 [THz] =      37.392077 [cm-1]
     freq (    3) =       1.149161 [THz] =      38.331900 [cm-1]
     freq (    4) =       1.149161 [THz] =      38.331900 [cm-1]
     freq (    5) =       2.929712 [THz] =      97.724667 [cm-1]
     freq (    6) =       2.930241 [THz] =      97.742307 [cm-1]
 **************************************************************************

     Mode symmetry, D_3h (-62m) point group:

     freq (  1 -  2) =         37.4  [cm-1]   --> E'                 
     freq (  3 -  4) =         38.3  [cm-1]   --> E''                
     freq (  5 -  5) =         97.7  [cm-1]   --> A'_1               
     freq (  6 -  6) =         97.7  [cm-1]   --> A''2               

     Calculation of q =    0.0000000   0.2886751   0.0000000
 
     Parallelization info
     --------------------
     sticks:   dense  smooth     PW     G-vecs:    dense   smooth      PW
     Min         133      68     21                 5879     2074     375
     Max         134      69     22                 5890     2095     381
     Sum        1069     547    169                47081    16673    3027
 


     bravais-lattice index     =            4
     lattice parameter (alat)  =       7.0180  a.u.
     unit-cell volume          =     488.0686 (a.u.)^3
     number of atoms/cell      =            2
     number of atomic types    =            1
     number of electrons       =        18.00
     number of Kohn-Sham states=           13
     kinetic-energy cutoff     =      40.0000  Ry
     charge density cutoff     =     320.0000  Ry
     Exchange-correlation      = SLA  PW   PBE  PBE ( 1  4  3  4 0 0)

     celldm(1)=   7.018000  celldm(2)=   0.000000  celldm(3)=   1.630460
     celldm(4)=   0.000000  celldm(5)=   0.000000  celldm(6)=   0.000000

     crystal axes: (cart. coord. in units of alat)
               a(1) = (   1.000000   0.000000   0.000000 )  
               a(2) = (  -0.500000   0.866025   0.000000 )  
               a(3) = (   0.000000   0.000000   1.630460 )  

     reciprocal axes: (cart. coord. in units 2 pi/alat)
               b(1) = (  1.000000  0.577350  0.000000 )  
               b(2) = (  0.000000  1.154701  0.000000 )  
               b(3) = (  0.000000  0.000000  0.613324 )  


     PseudoPot. # 1 for Na read from file:
     ./Na_pbe_v1.uspp.F.UPF
     MD5 check sum: 76a99c7e9422403d3e93cbc85ab7bccb
     Pseudo is Ultrasoft, Zval =  9.0
     Generated by new atomic code, or converted to UPF format
     Using radial grid of  819 points,  5 beta functions with: 
                l(1) =   0
                l(2) =   0
                l(3) =   1
                l(4) =   1
                l(5) =   2
     Q(r) pseudized with  8 coefficients,  rinner =    1.250   1.250   1.250
                                                       1.250   1.250

     atomic species   valence    mass     pseudopotential
        Na             9.00    22.99000     Na( 1.00)

     12 Sym. Ops. (no inversion) found



   Cartesian axes

     site n.     atom                  positions (alat units)
         1           Na  tau(   1) = (   0.0000000   0.0000000   0.0000000  )
         2           Na  tau(   2) = (   0.5000000   0.2886751   0.8152300  )

     number of k points=  3600  Marzari-Vanderbilt smearing, width (Ry)=  0.0200

     Number of k-points >= 100: set verbosity='high' to print them.

     Dense  grid:    47081 G-vectors     FFT dimensions: (  40,  40,  72)

     Smooth grid:    16673 G-vectors     FFT dimensions: (  30,  30,  48)

     Largest allocated arrays     est. size (Mb)     dimensions
        Kohn-Sham Wavefunctions         0.05 Mb     (     277,   13)
        NL pseudopotentials             0.11 Mb     (     277,   26)
        Each V/rho on FFT grid          0.22 Mb     (   14400)
        Each G-vector array             0.04 Mb     (    5890)
        G-vector shells                 0.01 Mb     (    1804)
     Largest temporary arrays     est. size (Mb)     dimensions
        Auxiliary wavefunctions         0.22 Mb     (     277,   52)
        Each subspace H/S matrix        0.01 Mb     (      26,   26)
        Each <psi_i|beta_j> matrix      0.01 Mb     (      26,   13)

     The potential is recalculated from file :
     ./na_hcp_7.018/_ph0/na_hcp_7.018.save/charge-density.dat

     Starting wfc are   10 atomic +    3 random wfc

     Band Structure Calculation
     Davidson diagonalization with overlap

     ethr =  5.56E-11,  avg # of iterations = 22.8

     total cpu time spent up to now is       30.1 secs

     End of band structure calculation

     Number of k-points >= 100: set verbosity='high' to print the bands.

     the Fermi energy is     1.7085 ev

     Writing output data file na_hcp_7.018.save

                                                                                

     bravais-lattice index     =            4
     lattice parameter (alat)  =       7.0180  a.u.
     unit-cell volume          =     488.0686 (a.u.)^3
     number of atoms/cell      =            2
     number of atomic types    =            1
     kinetic-energy cut-off    =      40.0000  Ry
     charge density cut-off    =     320.0000  Ry
     convergence threshold     =      1.0E-15
     beta                      =       0.7000
     number of iterations used =            4
     Exchange-correlation      = SLA  PW   PBE  PBE ( 1  4  3  4 0 0)


     celldm(1)=    7.01800  celldm(2)=    0.00000  celldm(3)=    1.63046
     celldm(4)=    0.00000  celldm(5)=    0.00000  celldm(6)=    0.00000

     crystal axes: (cart. coord. in units of alat)
               a(1) = (  1.0000  0.0000  0.0000 )  
               a(2) = ( -0.5000  0.8660  0.0000 )  
               a(3) = (  0.0000  0.0000  1.6305 )  

     reciprocal axes: (cart. coord. in units 2 pi/alat)
               b(1) = (  1.0000  0.5774  0.0000 )  
               b(2) = (  0.0000  1.1547  0.0000 )  
               b(3) = (  0.0000  0.0000  0.6133 )  


     Atoms inside the unit cell: 

     Cartesian axes

     site n.  atom      mass           positions (alat units)
        1     Na  22.9900   tau(    1) = (    0.00000    0.00000    0.00000  )
        2     Na  22.9900   tau(    2) = (    0.50000    0.28868    0.81523  )

     Computing dynamical matrix for 
                    q = (   0.0000000   0.2886751   0.0000000 )
 
      4 Sym.Ops. (no q -> -q+G )


     G cutoff =  399.2243  (   5890 G-vectors)     FFT grid: ( 40, 40, 72)
     G cutoff =  199.6122  (   2095 G-vectors)  smooth grid: ( 30, 30, 48)

     number of k points=  3600  Marzari-Vanderbilt smearing, width (Ry)=  0.0200

     PseudoPot. # 1 for Na read from file:
     ./Na_pbe_v1.uspp.F.UPF
     MD5 check sum: 76a99c7e9422403d3e93cbc85ab7bccb
     Pseudo is Ultrasoft, Zval =  9.0
     Generated by new atomic code, or converted to UPF format
     Using radial grid of  819 points,  5 beta functions with: 
                l(1) =   0
                l(2) =   0
                l(3) =   1
                l(4) =   1
                l(5) =   2
     Q(r) pseudized with  8 coefficients,  rinner =    1.250   1.250   1.250
                                                       1.250   1.250

     Mode symmetry, C_2v (mm2)  point group:


     Atomic displacements:
     There are   6 irreducible representations

     Representation     1      1 modes -A_1  D_1  S_1  To be done

     Representation     2      1 modes -A_1  D_1  S_1  To be done

     Representation     3      1 modes -B_1  D_3  S_3  To be done

     Representation     4      1 modes -B_1  D_3  S_3  To be done

     Representation     5      1 modes -B_2  D_4  S_4  To be done

     Representation     6      1 modes -B_2  D_4  S_4  To be done



     Alpha used in Ewald sum =   2.8000
     PHONON       :  7m58.03s CPU     8m33.76s WALL



     Representation #  1 mode #   1

     Self-consistent Calculation

      iter #   1 total cpu time :   516.7 secs   av.it.:   5.7
      thresh= 1.000E-02 alpha_mix =  0.700 |ddv_scf|^2 =  6.969E-04

      iter #   2 total cpu time :   522.6 secs   av.it.:   7.2
      thresh= 2.640E-03 alpha_mix =  0.700 |ddv_scf|^2 =  2.478E-02

      iter #   3 total cpu time :   526.7 secs   av.it.:   5.4
      thresh= 1.000E-02 alpha_mix =  0.700 |ddv_scf|^2 =  5.965E-07

      iter #   4 total cpu time :   531.0 secs   av.it.:   8.1
      thresh= 7.723E-05 alpha_mix =  0.700 |ddv_scf|^2 =  3.346E-08

      iter #   5 total cpu time :   535.1 secs   av.it.:   8.2
      thresh= 1.829E-05 alpha_mix =  0.700 |ddv_scf|^2 =  8.239E-10

      iter #   6 total cpu time :   539.7 secs   av.it.:   8.7
      thresh= 2.870E-06 alpha_mix =  0.700 |ddv_scf|^2 =  1.782E-10

      iter #   7 total cpu time :   544.2 secs   av.it.:   7.8
      thresh= 1.335E-06 alpha_mix =  0.700 |ddv_scf|^2 =  1.879E-09

      iter #   8 total cpu time :   547.6 secs   av.it.:   6.6
      thresh= 4.335E-06 alpha_mix =  0.700 |ddv_scf|^2 =  3.605E-12

      iter #   9 total cpu time :   559.7 secs   av.it.:   8.7
      thresh= 1.899E-07 alpha_mix =  0.700 |ddv_scf|^2 =  7.348E-13

      iter #  10 total cpu time :   564.4 secs   av.it.:   7.6
      thresh= 8.572E-08 alpha_mix =  0.700 |ddv_scf|^2 =  2.203E-12

      iter #  11 total cpu time :   568.9 secs   av.it.:   7.0
      thresh= 1.484E-07 alpha_mix =  0.700 |ddv_scf|^2 =  2.010E-15

      iter #  12 total cpu time :   573.2 secs   av.it.:   8.8
      thresh= 4.483E-09 alpha_mix =  0.700 |ddv_scf|^2 =  1.190E-16

     End of self-consistent calculation

     Convergence has been achieved 


     Representation #  2 mode #   2

     Self-consistent Calculation

      iter #   1 total cpu time :   579.3 secs   av.it.:   5.7
      thresh= 1.000E-02 alpha_mix =  0.700 |ddv_scf|^2 =  6.969E-04

      iter #   2 total cpu time :   582.6 secs   av.it.:   7.2
      thresh= 2.640E-03 alpha_mix =  0.700 |ddv_scf|^2 =  2.478E-02

      iter #   3 total cpu time :   587.2 secs   av.it.:   5.4
      thresh= 1.000E-02 alpha_mix =  0.700 |ddv_scf|^2 =  5.965E-07

      iter #   4 total cpu time :   591.6 secs   av.it.:   8.1
      thresh= 7.724E-05 alpha_mix =  0.700 |ddv_scf|^2 =  3.350E-08

      iter #   5 total cpu time :   595.9 secs   av.it.:   8.2
      thresh= 1.830E-05 alpha_mix =  0.700 |ddv_scf|^2 =  8.259E-10

      iter #   6 total cpu time :   600.2 secs   av.it.:   8.7
      thresh= 2.874E-06 alpha_mix =  0.700 |ddv_scf|^2 =  1.442E-10

      iter #   7 total cpu time :   603.8 secs   av.it.:   8.0
      thresh= 1.201E-06 alpha_mix =  0.700 |ddv_scf|^2 =  1.818E-09

      iter #   8 total cpu time :   608.3 secs   av.it.:   6.5
      thresh= 4.263E-06 alpha_mix =  0.700 |ddv_scf|^2 =  3.952E-12

      iter #   9 total cpu time :   612.6 secs   av.it.:   8.6
      thresh= 1.988E-07 alpha_mix =  0.700 |ddv_scf|^2 =  7.302E-13

      iter #  10 total cpu time :   616.1 secs   av.it.:   7.6
      thresh= 8.545E-08 alpha_mix =  0.700 |ddv_scf|^2 =  2.220E-12

      iter #  11 total cpu time :   619.8 secs   av.it.:   7.0
      thresh= 1.490E-07 alpha_mix =  0.700 |ddv_scf|^2 =  2.008E-15

      iter #  12 total cpu time :   624.9 secs   av.it.:   8.8
      thresh= 4.481E-09 alpha_mix =  0.700 |ddv_scf|^2 =  1.193E-16

     End of self-consistent calculation

     Convergence has been achieved 


     Representation #  3 mode #   3

     Self-consistent Calculation

      iter #   1 total cpu time :   629.1 secs   av.it.:   5.3
      thresh= 1.000E-02 alpha_mix =  0.700 |ddv_scf|^2 =  4.043E-06

      iter #   2 total cpu time :   635.6 secs   av.it.:   8.3
      thresh= 2.011E-04 alpha_mix =  0.700 |ddv_scf|^2 =  6.478E-08

      iter #   3 total cpu time :   640.2 secs   av.it.:   8.5
      thresh= 2.545E-05 alpha_mix =  0.700 |ddv_scf|^2 =  2.926E-09

      iter #   4 total cpu time :   645.3 secs   av.it.:   8.1
      thresh= 5.410E-06 alpha_mix =  0.700 |ddv_scf|^2 =  1.750E-11

      iter #   5 total cpu time :   651.3 secs   av.it.:   8.1
      thresh= 4.183E-07 alpha_mix =  0.700 |ddv_scf|^2 =  1.299E-13

      iter #   6 total cpu time :   654.9 secs   av.it.:   8.6
      thresh= 3.604E-08 alpha_mix =  0.700 |ddv_scf|^2 =  4.577E-16

     End of self-consistent calculation

     Convergence has been achieved 


     Representation #  4 mode #   4

     Self-consistent Calculation

      iter #   1 total cpu time :   660.1 secs   av.it.:   5.3
      thresh= 1.000E-02 alpha_mix =  0.700 |ddv_scf|^2 =  4.043E-06

      iter #   2 total cpu time :   664.1 secs   av.it.:   8.3
      thresh= 2.011E-04 alpha_mix =  0.700 |ddv_scf|^2 =  6.481E-08

      iter #   3 total cpu time :   668.0 secs   av.it.:   8.5
      thresh= 2.546E-05 alpha_mix =  0.700 |ddv_scf|^2 =  2.934E-09

      iter #   4 total cpu time :   671.9 secs   av.it.:   8.1
      thresh= 5.417E-06 alpha_mix =  0.700 |ddv_scf|^2 =  1.747E-11

      iter #   5 total cpu time :   676.0 secs   av.it.:   8.1
      thresh= 4.180E-07 alpha_mix =  0.700 |ddv_scf|^2 =  1.295E-13

      iter #   6 total cpu time :   680.6 secs   av.it.:   8.5
      thresh= 3.598E-08 alpha_mix =  0.700 |ddv_scf|^2 =  4.576E-16

     End of self-consistent calculation

     Convergence has been achieved 


     Representation #  5 mode #   5

     Self-consistent Calculation

      iter #   1 total cpu time :   686.0 secs   av.it.:   5.5
      thresh= 1.000E-02 alpha_mix =  0.700 |ddv_scf|^2 =  1.114E-05

      iter #   2 total cpu time :   689.8 secs   av.it.:   8.4
      thresh= 3.338E-04 alpha_mix =  0.700 |ddv_scf|^2 =  2.350E-06

      iter #   3 total cpu time :   694.1 secs   av.it.:   7.6
      thresh= 1.533E-04 alpha_mix =  0.700 |ddv_scf|^2 =  1.365E-08

      iter #   4 total cpu time :   698.9 secs   av.it.:   8.6
      thresh= 1.168E-05 alpha_mix =  0.700 |ddv_scf|^2 =  4.657E-10

      iter #   5 total cpu time :   703.9 secs   av.it.:   8.1
      thresh= 2.158E-06 alpha_mix =  0.700 |ddv_scf|^2 =  2.721E-12

      iter #   6 total cpu time :   708.2 secs   av.it.:   8.5
      thresh= 1.650E-07 alpha_mix =  0.700 |ddv_scf|^2 =  1.422E-14

      iter #   7 total cpu time :   713.3 secs   av.it.:   8.2
      thresh= 1.192E-08 alpha_mix =  0.700 |ddv_scf|^2 =  6.599E-16

     End of self-consistent calculation

     Convergence has been achieved 


     Representation #  6 mode #   6

     Self-consistent Calculation

      iter #   1 total cpu time :   721.2 secs   av.it.:   5.5
      thresh= 1.000E-02 alpha_mix =  0.700 |ddv_scf|^2 =  1.114E-05

      iter #   2 total cpu time :   725.1 secs   av.it.:   8.4
      thresh= 3.338E-04 alpha_mix =  0.700 |ddv_scf|^2 =  2.350E-06

      iter #   3 total cpu time :   729.3 secs   av.it.:   7.6
      thresh= 1.533E-04 alpha_mix =  0.700 |ddv_scf|^2 =  1.365E-08

      iter #   4 total cpu time :   734.4 secs   av.it.:   8.7
      thresh= 1.168E-05 alpha_mix =  0.700 |ddv_scf|^2 =  4.658E-10

      iter #   5 total cpu time :   738.4 secs   av.it.:   8.1
      thresh= 2.158E-06 alpha_mix =  0.700 |ddv_scf|^2 =  2.721E-12

      iter #   6 total cpu time :   742.3 secs   av.it.:   8.5
      thresh= 1.649E-07 alpha_mix =  0.700 |ddv_scf|^2 =  1.422E-14

      iter #   7 total cpu time :   747.0 secs   av.it.:   8.2
      thresh= 1.192E-08 alpha_mix =  0.700 |ddv_scf|^2 =  6.598E-16

     End of self-consistent calculation

     Convergence has been achieved 
 
     Number of q in the star =    3
     List of q in the star:
          1   0.000000000   0.288675135   0.000000000
          2   0.250000000  -0.144337567   0.000000000
          3  -0.250000000  -0.144337567   0.000000000
     In addition there is the -q list: 
          1   0.000000000  -0.288675135   0.000000000
          2  -0.250000000   0.144337567   0.000000000
          3   0.250000000   0.144337567   0.000000000

     Diagonalizing the dynamical matrix

     q = (    0.000000000   0.288675135   0.000000000 ) 

 **************************************************************************
     freq (    1) =       1.156266 [THz] =      38.568891 [cm-1]
     freq (    2) =       1.428458 [THz] =      47.648236 [cm-1]
     freq (    3) =       2.413201 [THz] =      80.495730 [cm-1]
     freq (    4) =       2.565283 [THz] =      85.568643 [cm-1]
     freq (    5) =       3.134200 [THz] =     104.545672 [cm-1]
     freq (    6) =       3.749625 [THz] =     125.074036 [cm-1]
 **************************************************************************

     Mode symmetry, C_2v (mm2)  point group:

     freq (  1 -  1) =         38.6  [cm-1]   --> B_1  D_3  S_3      
     freq (  2 -  2) =         47.6  [cm-1]   --> B_2  D_4  S_4      
     freq (  3 -  3) =         80.5  [cm-1]   --> B_1  D_3  S_3      
     freq (  4 -  4) =         85.6  [cm-1]   --> A_1  D_1  S_1      
     freq (  5 -  5) =        104.5  [cm-1]   --> A_1  D_1  S_1      
     freq (  6 -  6) =        125.1  [cm-1]   --> B_2  D_4  S_4      

     Calculation of q =    0.0000000   0.2886751   0.1533310
 
     Parallelization info
     --------------------
     sticks:   dense  smooth     PW     G-vecs:    dense   smooth      PW
     Min         133      68     21                 5879     2076     385
     Max         134      69     25                 5890     2093     386
     Sum        1069     547    187                47081    16673    3081
 


     bravais-lattice index     =            4
     lattice parameter (alat)  =       7.0180  a.u.
     unit-cell volume          =     488.0686 (a.u.)^3
     number of atoms/cell      =            2
     number of atomic types    =            1
     number of electrons       =        18.00
     number of Kohn-Sham states=           13
     kinetic-energy cutoff     =      40.0000  Ry
     charge density cutoff     =     320.0000  Ry
     Exchange-correlation      = SLA  PW   PBE  PBE ( 1  4  3  4 0 0)

     celldm(1)=   7.018000  celldm(2)=   0.000000  celldm(3)=   1.630460
     celldm(4)=   0.000000  celldm(5)=   0.000000  celldm(6)=   0.000000

     crystal axes: (cart. coord. in units of alat)
               a(1) = (   1.000000   0.000000   0.000000 )  
               a(2) = (  -0.500000   0.866025   0.000000 )  
               a(3) = (   0.000000   0.000000   1.630460 )  

     reciprocal axes: (cart. coord. in units 2 pi/alat)
               b(1) = (  1.000000  0.577350  0.000000 )  
               b(2) = (  0.000000  1.154701  0.000000 )  
               b(3) = (  0.000000  0.000000  0.613324 )  


     PseudoPot. # 1 for Na read from file:
     ./Na_pbe_v1.uspp.F.UPF
     MD5 check sum: 76a99c7e9422403d3e93cbc85ab7bccb
     Pseudo is Ultrasoft, Zval =  9.0
     Generated by new atomic code, or converted to UPF format
     Using radial grid of  819 points,  5 beta functions with: 
                l(1) =   0
                l(2) =   0
                l(3) =   1
                l(4) =   1
                l(5) =   2
     Q(r) pseudized with  8 coefficients,  rinner =    1.250   1.250   1.250
                                                       1.250   1.250

     atomic species   valence    mass     pseudopotential
        Na             9.00    22.99000     Na( 1.00)

     12 Sym. Ops. (no inversion) found



   Cartesian axes

     site n.     atom                  positions (alat units)
         1           Na  tau(   1) = (   0.0000000   0.0000000   0.0000000  )
         2           Na  tau(   2) = (   0.5000000   0.2886751   0.8152300  )

     number of k points=  7200  Marzari-Vanderbilt smearing, width (Ry)=  0.0200

     Number of k-points >= 100: set verbosity='high' to print them.

     Dense  grid:    47081 G-vectors     FFT dimensions: (  40,  40,  72)

     Smooth grid:    16673 G-vectors     FFT dimensions: (  30,  30,  48)

     Largest allocated arrays     est. size (Mb)     dimensions
        Kohn-Sham Wavefunctions         0.06 Mb     (     285,   13)
        NL pseudopotentials             0.11 Mb     (     285,   26)
        Each V/rho on FFT grid          0.22 Mb     (   14400)
        Each G-vector array             0.04 Mb     (    5890)
        G-vector shells                 0.01 Mb     (    1742)
     Largest temporary arrays     est. size (Mb)     dimensions
        Auxiliary wavefunctions         0.23 Mb     (     285,   52)
        Each subspace H/S matrix        0.01 Mb     (      26,   26)
        Each <psi_i|beta_j> matrix      0.01 Mb     (      26,   13)

     The potential is recalculated from file :
     ./na_hcp_7.018/_ph0/na_hcp_7.018.save/charge-density.dat

     Starting wfc are   10 atomic +    3 random wfc

     Band Structure Calculation
     Davidson diagonalization with overlap

     ethr =  5.56E-11,  avg # of iterations = 22.8

     total cpu time spent up to now is       59.5 secs

     End of band structure calculation

     Number of k-points >= 100: set verbosity='high' to print the bands.

     the Fermi energy is     1.7085 ev

     Writing output data file na_hcp_7.018.save

                                                                                

     bravais-lattice index     =            4
     lattice parameter (alat)  =       7.0180  a.u.
     unit-cell volume          =     488.0686 (a.u.)^3
     number of atoms/cell      =            2
     number of atomic types    =            1
     kinetic-energy cut-off    =      40.0000  Ry
     charge density cut-off    =     320.0000  Ry
     convergence threshold     =      1.0E-15
     beta                      =       0.7000
     number of iterations used =            4
     Exchange-correlation      = SLA  PW   PBE  PBE ( 1  4  3  4 0 0)


     celldm(1)=    7.01800  celldm(2)=    0.00000  celldm(3)=    1.63046
     celldm(4)=    0.00000  celldm(5)=    0.00000  celldm(6)=    0.00000

     crystal axes: (cart. coord. in units of alat)
               a(1) = (  1.0000  0.0000  0.0000 )  
               a(2) = ( -0.5000  0.8660  0.0000 )  
               a(3) = (  0.0000  0.0000  1.6305 )  

     reciprocal axes: (cart. coord. in units 2 pi/alat)
               b(1) = (  1.0000  0.5774  0.0000 )  
               b(2) = (  0.0000  1.1547  0.0000 )  
               b(3) = (  0.0000  0.0000  0.6133 )  


     Atoms inside the unit cell: 

     Cartesian axes

     site n.  atom      mass           positions (alat units)
        1     Na  22.9900   tau(    1) = (    0.00000    0.00000    0.00000  )
        2     Na  22.9900   tau(    2) = (    0.50000    0.28868    0.81523  )

     Computing dynamical matrix for 
                    q = (   0.0000000   0.2886751   0.1533310 )
 
      2 Sym.Ops. (no q -> -q+G )


     G cutoff =  399.2243  (   5890 G-vectors)     FFT grid: ( 40, 40, 72)
     G cutoff =  199.6122  (   2093 G-vectors)  smooth grid: ( 30, 30, 48)

     number of k points=  7200  Marzari-Vanderbilt smearing, width (Ry)=  0.0200

     PseudoPot. # 1 for Na read from file:
     ./Na_pbe_v1.uspp.F.UPF
     MD5 check sum: 76a99c7e9422403d3e93cbc85ab7bccb
     Pseudo is Ultrasoft, Zval =  9.0
     Generated by new atomic code, or converted to UPF format
     Using radial grid of  819 points,  5 beta functions with: 
                l(1) =   0
                l(2) =   0
                l(3) =   1
                l(4) =   1
                l(5) =   2
     Q(r) pseudized with  8 coefficients,  rinner =    1.250   1.250   1.250
                                                       1.250   1.250

     Mode symmetry, C_s (m)     point group:


     Atomic displacements:
     There are   6 irreducible representations

     Representation     1      1 modes -A'  To be done

     Representation     2      1 modes -A'  To be done

     Representation     3      1 modes -A'  To be done

     Representation     4      1 modes -A'  To be done

     Representation     5      1 modes -A''  To be done

     Representation     6      1 modes -A''  To be done



     Alpha used in Ewald sum =   2.8000
     PHONON       : 12m 5.49s CPU    13m 3.81s WALL



     Representation #  1 mode #   1

     Self-consistent Calculation

      iter #   1 total cpu time :   787.7 secs   av.it.:   5.7
      thresh= 1.000E-02 alpha_mix =  0.700 |ddv_scf|^2 =  2.730E-04

      iter #   2 total cpu time :   795.6 secs   av.it.:   7.5
      thresh= 1.652E-03 alpha_mix =  0.700 |ddv_scf|^2 =  5.379E-03

      iter #   3 total cpu time :   802.6 secs   av.it.:   5.4
      thresh= 7.334E-03 alpha_mix =  0.700 |ddv_scf|^2 =  2.466E-06

      iter #   4 total cpu time :   810.0 secs   av.it.:   7.7
      thresh= 1.570E-04 alpha_mix =  0.700 |ddv_scf|^2 =  3.481E-07

      iter #   5 total cpu time :   817.4 secs   av.it.:   7.7
      thresh= 5.900E-05 alpha_mix =  0.700 |ddv_scf|^2 =  1.566E-09

      iter #   6 total cpu time :   831.2 secs   av.it.:   8.7
      thresh= 3.957E-06 alpha_mix =  0.700 |ddv_scf|^2 =  7.723E-11

      iter #   7 total cpu time :   839.4 secs   av.it.:   8.6
      thresh= 8.788E-07 alpha_mix =  0.700 |ddv_scf|^2 =  8.655E-11

      iter #   8 total cpu time :   846.2 secs   av.it.:   7.1
      thresh= 9.303E-07 alpha_mix =  0.700 |ddv_scf|^2 =  4.355E-11

      iter #   9 total cpu time :   852.7 secs   av.it.:   7.6
      thresh= 6.599E-07 alpha_mix =  0.700 |ddv_scf|^2 =  8.107E-13

      iter #  10 total cpu time :   860.0 secs   av.it.:   7.9
      thresh= 9.004E-08 alpha_mix =  0.700 |ddv_scf|^2 =  9.172E-13

      iter #  11 total cpu time :   869.2 secs   av.it.:   7.4
      thresh= 9.577E-08 alpha_mix =  0.700 |ddv_scf|^2 =  8.630E-15

      iter #  12 total cpu time :   877.2 secs   av.it.:   8.3
      thresh= 9.290E-09 alpha_mix =  0.700 |ddv_scf|^2 =  3.045E-15

      iter #  13 total cpu time :   884.6 secs   av.it.:   8.2
      thresh= 5.518E-09 alpha_mix =  0.700 |ddv_scf|^2 =  1.009E-15

      iter #  14 total cpu time :   892.8 secs   av.it.:   7.7
      thresh= 3.177E-09 alpha_mix =  0.700 |ddv_scf|^2 =  1.930E-15

      iter #  15 total cpu time :   900.9 secs   av.it.:   6.8
      thresh= 4.393E-09 alpha_mix =  0.700 |ddv_scf|^2 =  1.511E-16

     End of self-consistent calculation

     Convergence has been achieved 


     Representation #  2 mode #   2

     Self-consistent Calculation

      iter #   1 total cpu time :   909.1 secs   av.it.:   5.7
      thresh= 1.000E-02 alpha_mix =  0.700 |ddv_scf|^2 =  4.678E-05

      iter #   2 total cpu time :   916.8 secs   av.it.:   7.8
      thresh= 6.839E-04 alpha_mix =  0.700 |ddv_scf|^2 =  5.621E-04

      iter #   3 total cpu time :   925.0 secs   av.it.:   5.8
      thresh= 2.371E-03 alpha_mix =  0.700 |ddv_scf|^2 =  1.814E-05

      iter #   4 total cpu time :   933.7 secs   av.it.:   7.1
      thresh= 4.259E-04 alpha_mix =  0.700 |ddv_scf|^2 =  8.608E-08

      iter #   5 total cpu time :   941.9 secs   av.it.:   8.4
      thresh= 2.934E-05 alpha_mix =  0.700 |ddv_scf|^2 =  9.874E-10

      iter #   6 total cpu time :   950.9 secs   av.it.:   8.8
      thresh= 3.142E-06 alpha_mix =  0.700 |ddv_scf|^2 =  8.183E-11

      iter #   7 total cpu time :   958.3 secs   av.it.:   8.7
      thresh= 9.046E-07 alpha_mix =  0.700 |ddv_scf|^2 =  6.171E-11

      iter #   8 total cpu time :   975.9 secs   av.it.:   7.6
      thresh= 7.856E-07 alpha_mix =  0.700 |ddv_scf|^2 =  1.832E-10

      iter #   9 total cpu time :   983.1 secs   av.it.:   6.9
      thresh= 1.353E-06 alpha_mix =  0.700 |ddv_scf|^2 =  5.256E-12

      iter #  10 total cpu time :   991.0 secs   av.it.:   7.5
      thresh= 2.292E-07 alpha_mix =  0.700 |ddv_scf|^2 =  3.233E-12

      iter #  11 total cpu time :   998.9 secs   av.it.:   7.6
      thresh= 1.798E-07 alpha_mix =  0.700 |ddv_scf|^2 =  2.380E-14

      iter #  12 total cpu time :  1006.7 secs   av.it.:   7.9
      thresh= 1.543E-08 alpha_mix =  0.700 |ddv_scf|^2 =  3.457E-15

      iter #  13 total cpu time :  1014.7 secs   av.it.:   8.7
      thresh= 5.880E-09 alpha_mix =  0.700 |ddv_scf|^2 =  8.038E-17

     End of self-consistent calculation

     Convergence has been achieved 


     Representation #  3 mode #   3

     Self-consistent Calculation

      iter #   1 total cpu time :  1022.3 secs   av.it.:   5.8
      thresh= 1.000E-02 alpha_mix =  0.700 |ddv_scf|^2 =  3.127E-04

      iter #   2 total cpu time :  1029.9 secs   av.it.:   7.5
      thresh= 1.768E-03 alpha_mix =  0.700 |ddv_scf|^2 =  6.245E-03

      iter #   3 total cpu time :  1038.5 secs   av.it.:   5.4
      thresh= 7.902E-03 alpha_mix =  0.700 |ddv_scf|^2 =  8.049E-07

      iter #   4 total cpu time :  1053.7 secs   av.it.:   7.9
      thresh= 8.971E-05 alpha_mix =  0.700 |ddv_scf|^2 =  3.647E-07

      iter #   5 total cpu time :  1061.1 secs   av.it.:   7.6
      thresh= 6.039E-05 alpha_mix =  0.700 |ddv_scf|^2 =  1.929E-09

      iter #   6 total cpu time :  1073.2 secs   av.it.:   8.7
      thresh= 4.392E-06 alpha_mix =  0.700 |ddv_scf|^2 =  9.341E-11

      iter #   7 total cpu time :  1082.4 secs   av.it.:   8.5
      thresh= 9.665E-07 alpha_mix =  0.700 |ddv_scf|^2 =  2.857E-12

      iter #   8 total cpu time :  1090.7 secs   av.it.:   8.9
      thresh= 1.690E-07 alpha_mix =  0.700 |ddv_scf|^2 =  1.026E-11

      iter #   9 total cpu time :  1099.6 secs   av.it.:   7.2
      thresh= 3.204E-07 alpha_mix =  0.700 |ddv_scf|^2 =  2.761E-12

      iter #  10 total cpu time :  1108.1 secs   av.it.:   7.7
      thresh= 1.662E-07 alpha_mix =  0.700 |ddv_scf|^2 =  4.630E-13

      iter #  11 total cpu time :  1116.8 secs   av.it.:   7.1
      thresh= 6.804E-08 alpha_mix =  0.700 |ddv_scf|^2 =  2.325E-14

      iter #  12 total cpu time :  1125.1 secs   av.it.:   8.0
      thresh= 1.525E-08 alpha_mix =  0.700 |ddv_scf|^2 =  1.357E-15

      iter #  13 total cpu time :  1132.4 secs   av.it.:   8.1
      thresh= 3.683E-09 alpha_mix =  0.700 |ddv_scf|^2 =  2.137E-16

     End of self-consistent calculation

     Convergence has been achieved 


     Representation #  4 mode #   4

     Self-consistent Calculation

      iter #   1 total cpu time :  1140.3 secs   av.it.:   5.7
      thresh= 1.000E-02 alpha_mix =  0.700 |ddv_scf|^2 =  8.642E-05

      iter #   2 total cpu time :  1150.6 secs   av.it.:   7.8
      thresh= 9.296E-04 alpha_mix =  0.700 |ddv_scf|^2 =  1.427E-03

      iter #   3 total cpu time :  1166.8 secs   av.it.:   5.6
      thresh= 3.777E-03 alpha_mix =  0.700 |ddv_scf|^2 =  9.029E-06

      iter #   4 total cpu time :  1174.4 secs   av.it.:   7.4
      thresh= 3.005E-04 alpha_mix =  0.700 |ddv_scf|^2 =  1.361E-07

      iter #   5 total cpu time :  1183.3 secs   av.it.:   8.1
      thresh= 3.689E-05 alpha_mix =  0.700 |ddv_scf|^2 =  1.121E-09

      iter #   6 total cpu time :  1191.3 secs   av.it.:   8.8
      thresh= 3.348E-06 alpha_mix =  0.700 |ddv_scf|^2 =  9.570E-11

      iter #   7 total cpu time :  1200.3 secs   av.it.:   8.7
      thresh= 9.783E-07 alpha_mix =  0.700 |ddv_scf|^2 =  3.673E-11

      iter #   8 total cpu time :  1207.8 secs   av.it.:   8.0
      thresh= 6.061E-07 alpha_mix =  0.700 |ddv_scf|^2 =  2.898E-10

      iter #   9 total cpu time :  1217.7 secs   av.it.:   6.6
      thresh= 1.702E-06 alpha_mix =  0.700 |ddv_scf|^2 =  4.380E-12

      iter #  10 total cpu time :  1225.7 secs   av.it.:   7.7
      thresh= 2.093E-07 alpha_mix =  0.700 |ddv_scf|^2 =  3.387E-12

      iter #  11 total cpu time :  1233.2 secs   av.it.:   7.5
      thresh= 1.840E-07 alpha_mix =  0.700 |ddv_scf|^2 =  1.725E-14

      iter #  12 total cpu time :  1240.3 secs   av.it.:   8.2
      thresh= 1.314E-08 alpha_mix =  0.700 |ddv_scf|^2 =  3.981E-15

      iter #  13 total cpu time :  1259.2 secs   av.it.:   8.5
      thresh= 6.309E-09 alpha_mix =  0.700 |ddv_scf|^2 =  9.753E-17

     End of self-consistent calculation

     Convergence has been achieved 


     Representation #  5 mode #   5

     Self-consistent Calculation

      iter #   1 total cpu time :  1266.4 secs   av.it.:   5.3
      thresh= 1.000E-02 alpha_mix =  0.700 |ddv_scf|^2 =  4.034E-06

      iter #   2 total cpu time :  1273.8 secs   av.it.:   8.3
      thresh= 2.009E-04 alpha_mix =  0.700 |ddv_scf|^2 =  6.456E-08

      iter #   3 total cpu time :  1285.2 secs   av.it.:   8.5
      thresh= 2.541E-05 alpha_mix =  0.700 |ddv_scf|^2 =  2.941E-09

      iter #   4 total cpu time :  1293.3 secs   av.it.:   8.0
      thresh= 5.423E-06 alpha_mix =  0.700 |ddv_scf|^2 =  1.358E-11

      iter #   5 total cpu time :  1301.4 secs   av.it.:   8.3
      thresh= 3.684E-07 alpha_mix =  0.700 |ddv_scf|^2 =  9.661E-14

      iter #   6 total cpu time :  1309.9 secs   av.it.:   8.5
      thresh= 3.108E-08 alpha_mix =  0.700 |ddv_scf|^2 =  4.369E-16

     End of self-consistent calculation

     Convergence has been achieved 


     Representation #  6 mode #   6

     Self-consistent Calculation

      iter #   1 total cpu time :  1318.1 secs   av.it.:   5.3
      thresh= 1.000E-02 alpha_mix =  0.700 |ddv_scf|^2 =  4.034E-06

      iter #   2 total cpu time :  1326.6 secs   av.it.:   8.3
      thresh= 2.008E-04 alpha_mix =  0.700 |ddv_scf|^2 =  6.460E-08

      iter #   3 total cpu time :  1340.1 secs   av.it.:   8.5
      thresh= 2.542E-05 alpha_mix =  0.700 |ddv_scf|^2 =  2.949E-09

      iter #   4 total cpu time :  1348.1 secs   av.it.:   8.0
      thresh= 5.431E-06 alpha_mix =  0.700 |ddv_scf|^2 =  1.354E-11

      iter #   5 total cpu time :  1356.5 secs   av.it.:   8.3
      thresh= 3.680E-07 alpha_mix =  0.700 |ddv_scf|^2 =  9.638E-14

      iter #   6 total cpu time :  1364.3 secs   av.it.:   8.5
      thresh= 3.105E-08 alpha_mix =  0.700 |ddv_scf|^2 =  4.367E-16

     End of self-consistent calculation

     Convergence has been achieved 
 
     Number of q in the star =    6
     List of q in the star:
          1   0.000000000   0.288675135   0.153330962
          2   0.000000000   0.288675135  -0.153330962
          3   0.250000000  -0.144337567   0.153330962
          4  -0.250000000  -0.144337567   0.153330962
          5   0.250000000  -0.144337567  -0.153330962
          6  -0.250000000  -0.144337567  -0.153330962
     In addition there is the -q list: 
          1   0.000000000  -0.288675135  -0.153330962
          2   0.000000000  -0.288675135   0.153330962
          3  -0.250000000   0.144337567  -0.153330962
          4   0.250000000   0.144337567  -0.153330962
          5  -0.250000000   0.144337567   0.153330962
          6   0.250000000   0.144337567   0.153330962

     Diagonalizing the dynamical matrix

     q = (    0.000000000   0.288675135   0.153330962 ) 

 **************************************************************************
     freq (    1) =       1.404320 [THz] =      46.843076 [cm-1]
     freq (    2) =       1.645910 [THz] =      54.901648 [cm-1]
     freq (    3) =       2.282868 [THz] =      76.148296 [cm-1]
     freq (    4) =       2.815250 [THz] =      93.906637 [cm-1]
     freq (    5) =       2.934423 [THz] =      97.881823 [cm-1]
     freq (    6) =       3.656568 [THz] =     121.969986 [cm-1]
 **************************************************************************

     Mode symmetry, C_s (m)     point group:

     freq (  1 -  1) =         46.8  [cm-1]   --> A''                
     freq (  2 -  2) =         54.9  [cm-1]   --> A'                 
     freq (  3 -  3) =         76.1  [cm-1]   --> A''                
     freq (  4 -  4) =         93.9  [cm-1]   --> A'                 
     freq (  5 -  5) =         97.9  [cm-1]   --> A'                 
     freq (  6 -  6) =        122.0  [cm-1]   --> A'                 

     Calculation of q =    0.0000000   0.2886751  -0.3066619
 
     Parallelization info
     --------------------
     sticks:   dense  smooth     PW     G-vecs:    dense   smooth      PW
     Min         133      68     21                 5879     2074     375
     Max         134      69     22                 5890     2095     381
     Sum        1069     547    169                47081    16673    3027
 


     bravais-lattice index     =            4
     lattice parameter (alat)  =       7.0180  a.u.
     unit-cell volume          =     488.0686 (a.u.)^3
     number of atoms/cell      =            2
     number of atomic types    =            1
     number of electrons       =        18.00
     number of Kohn-Sham states=           13
     kinetic-energy cutoff     =      40.0000  Ry
     charge density cutoff     =     320.0000  Ry
     Exchange-correlation      = SLA  PW   PBE  PBE ( 1  4  3  4 0 0)

     celldm(1)=   7.018000  celldm(2)=   0.000000  celldm(3)=   1.630460
     celldm(4)=   0.000000  celldm(5)=   0.000000  celldm(6)=   0.000000

     crystal axes: (cart. coord. in units of alat)
               a(1) = (   1.000000   0.000000   0.000000 )  
               a(2) = (  -0.500000   0.866025   0.000000 )  
               a(3) = (   0.000000   0.000000   1.630460 )  

     reciprocal axes: (cart. coord. in units 2 pi/alat)
               b(1) = (  1.000000  0.577350  0.000000 )  
               b(2) = (  0.000000  1.154701  0.000000 )  
               b(3) = (  0.000000  0.000000  0.613324 )  


     PseudoPot. # 1 for Na read from file:
     ./Na_pbe_v1.uspp.F.UPF
     MD5 check sum: 76a99c7e9422403d3e93cbc85ab7bccb
     Pseudo is Ultrasoft, Zval =  9.0
     Generated by new atomic code, or converted to UPF format
     Using radial grid of  819 points,  5 beta functions with: 
                l(1) =   0
                l(2) =   0
                l(3) =   1
                l(4) =   1
                l(5) =   2
     Q(r) pseudized with  8 coefficients,  rinner =    1.250   1.250   1.250
                                                       1.250   1.250

     atomic species   valence    mass     pseudopotential
        Na             9.00    22.99000     Na( 1.00)

     12 Sym. Ops. (no inversion) found



   Cartesian axes

     site n.     atom                  positions (alat units)
         1           Na  tau(   1) = (   0.0000000   0.0000000   0.0000000  )
         2           Na  tau(   2) = (   0.5000000   0.2886751   0.8152300  )

     number of k points=  3600  Marzari-Vanderbilt smearing, width (Ry)=  0.0200

     Number of k-points >= 100: set verbosity='high' to print them.

     Dense  grid:    47081 G-vectors     FFT dimensions: (  40,  40,  72)

     Smooth grid:    16673 G-vectors     FFT dimensions: (  30,  30,  48)

     Largest allocated arrays     est. size (Mb)     dimensions
        Kohn-Sham Wavefunctions         0.05 Mb     (     277,   13)
        NL pseudopotentials             0.11 Mb     (     277,   26)
        Each V/rho on FFT grid          0.22 Mb     (   14400)
        Each G-vector array             0.04 Mb     (    5890)
        G-vector shells                 0.01 Mb     (    1804)
     Largest temporary arrays     est. size (Mb)     dimensions
        Auxiliary wavefunctions         0.22 Mb     (     277,   52)
        Each subspace H/S matrix        0.01 Mb     (      26,   26)
        Each <psi_i|beta_j> matrix      0.01 Mb     (      26,   13)

     The potential is recalculated from file :
     ./na_hcp_7.018/_ph0/na_hcp_7.018.save/charge-density.dat

     Starting wfc are   10 atomic +    3 random wfc

     Band Structure Calculation
     Davidson diagonalization with overlap

     ethr =  5.56E-11,  avg # of iterations = 22.8

     total cpu time spent up to now is       84.9 secs

     End of band structure calculation

     Number of k-points >= 100: set verbosity='high' to print the bands.

     the Fermi energy is     1.7085 ev

     Writing output data file na_hcp_7.018.save

                                                                                

     bravais-lattice index     =            4
     lattice parameter (alat)  =       7.0180  a.u.
     unit-cell volume          =     488.0686 (a.u.)^3
     number of atoms/cell      =            2
     number of atomic types    =            1
     kinetic-energy cut-off    =      40.0000  Ry
     charge density cut-off    =     320.0000  Ry
     convergence threshold     =      1.0E-15
     beta                      =       0.7000
     number of iterations used =            4
     Exchange-correlation      = SLA  PW   PBE  PBE ( 1  4  3  4 0 0)


     celldm(1)=    7.01800  celldm(2)=    0.00000  celldm(3)=    1.63046
     celldm(4)=    0.00000  celldm(5)=    0.00000  celldm(6)=    0.00000

     crystal axes: (cart. coord. in units of alat)
               a(1) = (  1.0000  0.0000  0.0000 )  
               a(2) = ( -0.5000  0.8660  0.0000 )  
               a(3) = (  0.0000  0.0000  1.6305 )  

     reciprocal axes: (cart. coord. in units 2 pi/alat)
               b(1) = (  1.0000  0.5774  0.0000 )  
               b(2) = (  0.0000  1.1547  0.0000 )  
               b(3) = (  0.0000  0.0000  0.6133 )  


     Atoms inside the unit cell: 

     Cartesian axes

[...]

     site n.     atom                  positions (alat units)
         1           Na  tau(   1) = (   0.0000000   0.0000000   0.0000000  )
         2           Na  tau(   2) = (   0.5000000   0.2886751   0.8152300  )

     number of k points=  6912  Marzari-Vanderbilt smearing, width (Ry)=  0.0200

     Number of k-points >= 100: set verbosity='high' to print them.

     Dense  grid:    47081 G-vectors     FFT dimensions: (  40,  40,  72)

     Smooth grid:    16673 G-vectors     FFT dimensions: (  30,  30,  48)

     Largest allocated arrays     est. size (Mb)     dimensions
        Kohn-Sham Wavefunctions         0.05 Mb     (     277,   13)
        NL pseudopotentials             0.11 Mb     (     277,   26)
        Each V/rho on FFT grid          0.22 Mb     (   14400)
        Each G-vector array             0.04 Mb     (    5890)
        G-vector shells                 0.01 Mb     (    1742)
     Largest temporary arrays     est. size (Mb)     dimensions
        Auxiliary wavefunctions         0.22 Mb     (     277,   52)
        Each subspace H/S matrix        0.01 Mb     (      26,   26)
        Each <psi_i|beta_j> matrix      0.01 Mb     (      26,   13)

     The potential is recalculated from file :
     ./na_hcp_7.018/_ph0/na_hcp_7.018.save/charge-density.dat

     Starting wfc are   10 atomic +    3 random wfc

     Band Structure Calculation
     Davidson diagonalization with overlap

     ethr =  5.56E-11,  avg # of iterations = 22.5

     total cpu time spent up to now is      285.5 secs

     End of band structure calculation

     Number of k-points >= 100: set verbosity='high' to print the bands.

     the Fermi energy is     1.7085 ev

     Writing output data file na_hcp_7.018.save

                                                                                

     bravais-lattice index     =            4
     lattice parameter (alat)  =       7.0180  a.u.
     unit-cell volume          =     488.0686 (a.u.)^3
     number of atoms/cell      =            2
     number of atomic types    =            1
     kinetic-energy cut-off    =      40.0000  Ry
     charge density cut-off    =     320.0000  Ry
     convergence threshold     =      1.0E-15
     beta                      =       0.7000
     number of iterations used =            4
     Exchange-correlation      = SLA  PW   PBE  PBE ( 1  4  3  4 0 0)


     celldm(1)=    7.01800  celldm(2)=    0.00000  celldm(3)=    1.63046
     celldm(4)=    0.00000  celldm(5)=    0.00000  celldm(6)=    0.00000

     crystal axes: (cart. coord. in units of alat)
               a(1) = (  1.0000  0.0000  0.0000 )  
               a(2) = ( -0.5000  0.8660  0.0000 )  
               a(3) = (  0.0000  0.0000  1.6305 )  

     reciprocal axes: (cart. coord. in units 2 pi/alat)
               b(1) = (  1.0000  0.5774  0.0000 )  
               b(2) = (  0.0000  1.1547  0.0000 )  
               b(3) = (  0.0000  0.0000  0.6133 )  


     Atoms inside the unit cell: 

     Cartesian axes

     site n.  atom      mass           positions (alat units)
        1     Na  22.9900   tau(    1) = (    0.00000    0.00000    0.00000  )
        2     Na  22.9900   tau(    2) = (    0.50000    0.28868    0.81523  )

     Computing dynamical matrix for 
                    q = (   0.2500000   0.4330127  -0.3066619 )
 
      2 Sym.Ops. (no q -> -q+G )


     G cutoff =  399.2243  (   5890 G-vectors)     FFT grid: ( 40, 40, 72)
     G cutoff =  199.6122  (   2087 G-vectors)  smooth grid: ( 30, 30, 48)

     number of k points=  6912  Marzari-Vanderbilt smearing, width (Ry)=  0.0200

     PseudoPot. # 1 for Na read from file:
     ./Na_pbe_v1.uspp.F.UPF
     MD5 check sum: 76a99c7e9422403d3e93cbc85ab7bccb
     Pseudo is Ultrasoft, Zval =  9.0
     Generated by new atomic code, or converted to UPF format
     Using radial grid of  819 points,  5 beta functions with: 
                l(1) =   0
                l(2) =   0
                l(3) =   1
                l(4) =   1
                l(5) =   2
     Q(r) pseudized with  8 coefficients,  rinner =    1.250   1.250   1.250
                                                       1.250   1.250

     Mode symmetry, C_s (m)     point group:


     Atomic displacements:
     There are   6 irreducible representations

     Representation     1      1 modes -A'  To be done

     Representation     2      1 modes -A'  To be done

     Representation     3      1 modes -A'  To be done

     Representation     4      1 modes -A''  To be done

     Representation     5      1 modes -A''  To be done

     Representation     6      1 modes -A''  To be done



     Alpha used in Ewald sum =   2.8000
     PHONON       :     1h 7m CPU        1h16m WALL



     Representation #  1 mode #   1

     Self-consistent Calculation

      iter #   1 total cpu time :  4572.1 secs   av.it.:   5.7
      thresh= 1.000E-02 alpha_mix =  0.700 |ddv_scf|^2 =  1.980E-05

      iter #   2 total cpu time :  4587.3 secs   av.it.:   8.5
      thresh= 4.449E-04 alpha_mix =  0.700 |ddv_scf|^2 =  1.224E-05

      iter #   3 total cpu time :  4601.3 secs   av.it.:   7.7
      thresh= 3.498E-04 alpha_mix =  0.700 |ddv_scf|^2 =  4.113E-08

      iter #   4 total cpu time :  4626.9 secs   av.it.:   8.8
      thresh= 2.028E-05 alpha_mix =  0.700 |ddv_scf|^2 =  1.559E-09

      iter #   5 total cpu time :  4651.9 secs   av.it.:   8.9
      thresh= 3.949E-06 alpha_mix =  0.700 |ddv_scf|^2 =  7.555E-11

      iter #   6 total cpu time :  4670.4 secs   av.it.:   9.0
      thresh= 8.692E-07 alpha_mix =  0.700 |ddv_scf|^2 =  5.512E-12

      iter #   7 total cpu time :  4687.4 secs   av.it.:   8.8
      thresh= 2.348E-07 alpha_mix =  0.700 |ddv_scf|^2 =  3.954E-14

      iter #   8 total cpu time :  4699.7 secs   av.it.:   8.8
      thresh= 1.989E-08 alpha_mix =  0.700 |ddv_scf|^2 =  1.024E-15

      iter #   9 total cpu time :  4710.0 secs   av.it.:   8.5
      thresh= 3.200E-09 alpha_mix =  0.700 |ddv_scf|^2 =  1.122E-16

     End of self-consistent calculation

     Convergence has been achieved 


     Representation #  2 mode #   2

     Self-consistent Calculation

      iter #   1 total cpu time :  4724.0 secs   av.it.:   5.6
      thresh= 1.000E-02 alpha_mix =  0.700 |ddv_scf|^2 =  1.070E-05

      iter #   2 total cpu time :  4737.4 secs   av.it.:   8.6
      thresh= 3.270E-04 alpha_mix =  0.700 |ddv_scf|^2 =  5.236E-06

      iter #   3 total cpu time :  4748.5 secs   av.it.:   7.8
      thresh= 2.288E-04 alpha_mix =  0.700 |ddv_scf|^2 =  6.485E-08

      iter #   4 total cpu time :  4761.0 secs   av.it.:   8.6
      thresh= 2.547E-05 alpha_mix =  0.700 |ddv_scf|^2 =  1.336E-09

      iter #   5 total cpu time :  4772.3 secs   av.it.:   8.7
      thresh= 3.656E-06 alpha_mix =  0.700 |ddv_scf|^2 =  1.119E-10

      iter #   6 total cpu time :  4782.8 secs   av.it.:   8.7
      thresh= 1.058E-06 alpha_mix =  0.700 |ddv_scf|^2 =  3.408E-12

      iter #   7 total cpu time :  4806.2 secs   av.it.:   9.1
      thresh= 1.846E-07 alpha_mix =  0.700 |ddv_scf|^2 =  7.063E-14

      iter #   8 total cpu time :  4824.6 secs   av.it.:   8.9
      thresh= 2.658E-08 alpha_mix =  0.700 |ddv_scf|^2 =  4.250E-15

      iter #   9 total cpu time :  4855.8 secs   av.it.:   8.9
      thresh= 6.519E-09 alpha_mix =  0.700 |ddv_scf|^2 =  1.703E-16

     End of self-consistent calculation

     Convergence has been achieved 


     Representation #  3 mode #   3

     Self-consistent Calculation

      iter #   1 total cpu time :  4888.4 secs   av.it.:   5.7
      thresh= 1.000E-02 alpha_mix =  0.700 |ddv_scf|^2 =  7.705E-06

      iter #   2 total cpu time :  4916.1 secs   av.it.:   8.6
      thresh= 2.776E-04 alpha_mix =  0.700 |ddv_scf|^2 =  1.347E-06

      iter #   3 total cpu time :  4936.2 secs   av.it.:   7.9
      thresh= 1.161E-04 alpha_mix =  0.700 |ddv_scf|^2 =  1.886E-07

      iter #   4 total cpu time :  4956.7 secs   av.it.:   8.0
      thresh= 4.343E-05 alpha_mix =  0.700 |ddv_scf|^2 =  2.627E-09

      iter #   5 total cpu time :  4969.5 secs   av.it.:   8.7
      thresh= 5.125E-06 alpha_mix =  0.700 |ddv_scf|^2 =  4.626E-11

      iter #   6 total cpu time :  4986.2 secs   av.it.:   8.7
      thresh= 6.801E-07 alpha_mix =  0.700 |ddv_scf|^2 =  1.937E-12

      iter #   7 total cpu time :  5002.4 secs   av.it.:   9.2
      thresh= 1.392E-07 alpha_mix =  0.700 |ddv_scf|^2 =  9.049E-14

      iter #   8 total cpu time :  5023.7 secs   av.it.:   9.2
      thresh= 3.008E-08 alpha_mix =  0.700 |ddv_scf|^2 =  9.215E-16

     End of self-consistent calculation

     Convergence has been achieved 


     Representation #  4 mode #   4

     Self-consistent Calculation

      iter #   1 total cpu time :  5036.3 secs   av.it.:   5.6
      thresh= 1.000E-02 alpha_mix =  0.700 |ddv_scf|^2 =  7.870E-06

      iter #   2 total cpu time :  5050.3 secs   av.it.:   8.7
      thresh= 2.805E-04 alpha_mix =  0.700 |ddv_scf|^2 =  1.507E-06

      iter #   3 total cpu time :  5065.2 secs   av.it.:   7.9
      thresh= 1.228E-04 alpha_mix =  0.700 |ddv_scf|^2 =  1.897E-07

      iter #   4 total cpu time :  5076.2 secs   av.it.:   8.0
      thresh= 4.355E-05 alpha_mix =  0.700 |ddv_scf|^2 =  2.539E-09

      iter #   5 total cpu time :  5091.4 secs   av.it.:   8.7
      thresh= 5.039E-06 alpha_mix =  0.700 |ddv_scf|^2 =  4.700E-11

      iter #   6 total cpu time :  5103.1 secs   av.it.:   8.7
      thresh= 6.855E-07 alpha_mix =  0.700 |ddv_scf|^2 =  2.110E-12

      iter #   7 total cpu time :  5119.1 secs   av.it.:   9.2
      thresh= 1.453E-07 alpha_mix =  0.700 |ddv_scf|^2 =  9.603E-14

      iter #   8 total cpu time :  5130.7 secs   av.it.:   9.2
      thresh= 3.099E-08 alpha_mix =  0.700 |ddv_scf|^2 =  9.450E-16

     End of self-consistent calculation

     Convergence has been achieved 


     Representation #  5 mode #   5

     Self-consistent Calculation

      iter #   1 total cpu time :  5141.4 secs   av.it.:   5.6
      thresh= 1.000E-02 alpha_mix =  0.700 |ddv_scf|^2 =  1.070E-05

      iter #   2 total cpu time :  5159.2 secs   av.it.:   8.6
      thresh= 3.270E-04 alpha_mix =  0.700 |ddv_scf|^2 =  5.236E-06

      iter #   3 total cpu time :  5171.3 secs   av.it.:   7.8
      thresh= 2.288E-04 alpha_mix =  0.700 |ddv_scf|^2 =  6.484E-08

      iter #   4 total cpu time :  5186.9 secs   av.it.:   8.6
      thresh= 2.546E-05 alpha_mix =  0.700 |ddv_scf|^2 =  1.337E-09

      iter #   5 total cpu time :  5201.3 secs   av.it.:   8.7
      thresh= 3.657E-06 alpha_mix =  0.700 |ddv_scf|^2 =  1.120E-10

      iter #   6 total cpu time :  5214.0 secs   av.it.:   8.7
      thresh= 1.059E-06 alpha_mix =  0.700 |ddv_scf|^2 =  3.411E-12

      iter #   7 total cpu time :  5234.6 secs   av.it.:   9.1
      thresh= 1.847E-07 alpha_mix =  0.700 |ddv_scf|^2 =  7.070E-14

      iter #   8 total cpu time :  5246.5 secs   av.it.:   8.9
      thresh= 2.659E-08 alpha_mix =  0.700 |ddv_scf|^2 =  4.253E-15

      iter #   9 total cpu time :  5274.5 secs   av.it.:   8.9
      thresh= 6.522E-09 alpha_mix =  0.700 |ddv_scf|^2 =  1.711E-16

     End of self-consistent calculation

     Convergence has been achieved 


     Representation #  6 mode #   6

     Self-consistent Calculation

      iter #   1 total cpu time :  5285.9 secs   av.it.:   5.7
      thresh= 1.000E-02 alpha_mix =  0.700 |ddv_scf|^2 =  1.963E-05

      iter #   2 total cpu time :  5299.2 secs   av.it.:   8.4
      thresh= 4.431E-04 alpha_mix =  0.700 |ddv_scf|^2 =  1.208E-05

      iter #   3 total cpu time :  5312.9 secs   av.it.:   7.7
      thresh= 3.475E-04 alpha_mix =  0.700 |ddv_scf|^2 =  4.183E-08

      iter #   4 total cpu time :  5329.2 secs   av.it.:   8.8
      thresh= 2.045E-05 alpha_mix =  0.700 |ddv_scf|^2 =  1.579E-09

      iter #   5 total cpu time :  5344.9 secs   av.it.:   8.9
      thresh= 3.974E-06 alpha_mix =  0.700 |ddv_scf|^2 =  7.489E-11

      iter #   6 total cpu time :  5356.6 secs   av.it.:   9.0
      thresh= 8.654E-07 alpha_mix =  0.700 |ddv_scf|^2 =  5.526E-12

      iter #   7 total cpu time :  5373.6 secs   av.it.:   8.8
      thresh= 2.351E-07 alpha_mix =  0.700 |ddv_scf|^2 =  3.955E-14

      iter #   8 total cpu time :  5399.5 secs   av.it.:   8.8
      thresh= 1.989E-08 alpha_mix =  0.700 |ddv_scf|^2 =  1.063E-15

      iter #   9 total cpu time :  5414.3 secs   av.it.:   8.6
      thresh= 3.260E-09 alpha_mix =  0.700 |ddv_scf|^2 =  1.076E-16

     End of self-consistent calculation

     Convergence has been achieved 
 
     Number of q in the star =    6
     List of q in the star:
          1   0.250000000   0.433012702  -0.306661924
          2  -0.250000000   0.433012702  -0.306661924
          3   0.250000000  -0.433012702  -0.306661924
          4  -0.500000000   0.000000000  -0.306661924
          5   0.500000000   0.000000000  -0.306661924
          6  -0.250000000  -0.433012702  -0.306661924

     Diagonalizing the dynamical matrix

     q = (    0.250000000   0.433012702  -0.306661924 ) 

 **************************************************************************
     freq (    1) =       2.052073 [THz] =      68.449782 [cm-1]
     freq (    2) =       2.058263 [THz] =      68.656278 [cm-1]
     freq (    3) =       3.070472 [THz] =     102.419928 [cm-1]
     freq (    4) =       3.076572 [THz] =     102.623412 [cm-1]
     freq (    5) =       3.795077 [THz] =     126.590156 [cm-1]
     freq (    6) =       3.801942 [THz] =     126.819146 [cm-1]
 **************************************************************************

     Mode symmetry, C_s (m)     point group:

     freq (  1 -  1) =         68.4  [cm-1]   --> A'                 
     freq (  2 -  2) =         68.7  [cm-1]   --> A''                
     freq (  3 -  3) =        102.4  [cm-1]   --> A'                 
     freq (  4 -  4) =        102.6  [cm-1]   --> A''                
     freq (  5 -  5) =        126.6  [cm-1]   --> A'                 
     freq (  6 -  6) =        126.8  [cm-1]   --> A''                
 
     init_run     :      1.54s CPU      1.69s WALL (      11 calls)
     electrons    :    214.89s CPU    219.79s WALL (      11 calls)

     Called by init_run:
     wfcinit      :      0.01s CPU      0.11s WALL (      11 calls)
     potinit      :      0.32s CPU      0.35s WALL (      11 calls)

     Called by electrons:
     c_bands      :    214.79s CPU    219.69s WALL (      11 calls)
     v_of_rho     :      0.08s CPU      0.09s WALL (      12 calls)
     newd         :      0.11s CPU      0.14s WALL (      12 calls)

     Called by c_bands:
     init_us_2    :      5.40s CPU      5.61s WALL (   80520 calls)
     cegterg      :    102.43s CPU    104.58s WALL (    4245 calls)

     Called by sum_band:

     Called by *egterg:
     h_psi        :     59.95s CPU     61.26s WALL (   68071 calls)
     s_psi        :     69.16s CPU     72.99s WALL ( 1880843 calls)
     g_psi        :      0.69s CPU      0.64s WALL (   61472 calls)
     cdiaghg      :     28.63s CPU     29.80s WALL (   63826 calls)

     Called by h_psi:
     add_vuspsi   :     42.51s CPU     43.86s WALL (  940754 calls)

     General routines
     calbec       :    102.79s CPU    107.45s WALL ( 2000741 calls)
     fft          :      2.63s CPU      2.62s WALL (    9788 calls)
     ffts         :      1.26s CPU      1.33s WALL (    9611 calls)
     fftw         :   2183.57s CPU   2228.21s WALL (14426173 calls)
     interpolate  :      0.62s CPU      0.69s WALL (    1345 calls)
     davcio       :     15.28s CPU    499.52s WALL (  350217 calls)
 
     Parallel routines
     fft_scatter  :   1599.46s CPU   1616.22s WALL (14445572 calls)
 
     PHONON       :     1h19m CPU        1h30m WALL

     INITIALIZATION: 
     phq_setup    :      0.35s CPU      0.81s WALL (      12 calls)
     phq_init     :     22.52s CPU     23.94s WALL (      12 calls)
 
     phq_init     :     22.52s CPU     23.94s WALL (      12 calls)
     init_vloc    :      0.13s CPU      0.13s WALL (      12 calls)
     init_us_1    :      0.44s CPU      0.44s WALL (      12 calls)
     newd         :      0.11s CPU      0.14s WALL (      12 calls)
     dvanqq       :      1.40s CPU      1.41s WALL (      12 calls)
     drho         :     14.86s CPU     15.29s WALL (      12 calls)
 
     DYNAMICAL MATRIX:
     dynmat0      :      5.05s CPU      5.85s WALL (      12 calls)
     phqscf       :   4495.53s CPU   5081.73s WALL (      12 calls)
     dynmatrix    :      0.99s CPU      1.23s WALL (      12 calls)
 
     phqscf       :   4495.53s CPU   5081.73s WALL (      12 calls)
     solve_linter :   4491.56s CPU   5075.10s WALL (      66 calls)
     drhodv       :      3.80s CPU      4.11s WALL (      66 calls)
 
     dynmat0      :      5.05s CPU      5.85s WALL (      12 calls)
     dynmat_us    :      5.00s CPU      5.08s WALL (      12 calls)
     d2ionq       :      0.03s CPU      0.03s WALL (      12 calls)
 
     dynmat_us    :      5.00s CPU      5.08s WALL (      12 calls)
     addusdynmat  :      0.00s CPU      0.00s WALL (      12 calls)
 
     phqscf       :   4495.53s CPU   5081.73s WALL (      12 calls)
     solve_linter :   4491.56s CPU   5075.10s WALL (      66 calls)
 
     solve_linter :   4491.56s CPU   5075.10s WALL (      66 calls)
     dvqpsi_us    :     16.52s CPU     17.62s WALL (    7158 calls)
     ortho        :     65.74s CPU     67.41s WALL (   67406 calls)
     cgsolve      :   1040.80s CPU   1082.36s WALL (   67406 calls)
     incdrhoscf   :   1452.60s CPU   1464.13s WALL (   67406 calls)
     addusddens   :      8.97s CPU      8.96s WALL (     653 calls)
     vpsifft      :     71.96s CPU     77.93s WALL (   60248 calls)
     dv_of_drho   :      3.27s CPU      3.26s WALL (     623 calls)
     mix_pot      :      2.76s CPU     14.10s WALL (     587 calls)
     ef_shift     :      0.05s CPU      0.26s WALL (      30 calls)
     localdos     :      1.05s CPU      1.07s WALL (       4 calls)
     psymdvscf    :     16.35s CPU     16.41s WALL (     524 calls)
     newdq        :      7.99s CPU      7.95s WALL (     587 calls)
     adddvscf     :      5.73s CPU      5.95s WALL (   60248 calls)
     drhodvus     :      0.06s CPU      0.08s WALL (      66 calls)
 
     dvqpsi_us    :     16.52s CPU     17.62s WALL (    7158 calls)
     dvqpsi_us_on :      4.00s CPU      4.28s WALL (    7158 calls)
 
     cgsolve      :   1040.80s CPU   1082.36s WALL (   67406 calls)
     ch_psi       :   1003.83s CPU   1042.85s WALL (  872683 calls)
 
     ch_psi       :   1003.83s CPU   1042.85s WALL (  872683 calls)
     h_psiq       :    869.66s CPU    904.05s WALL (  872683 calls)
     last         :    128.42s CPU    133.12s WALL (  872683 calls)
 
     h_psiq       :    869.66s CPU    904.05s WALL (  872683 calls)
     firstfft     :    400.08s CPU    415.97s WALL ( 5457134 calls)
     secondfft    :    309.14s CPU    321.37s WALL ( 5457134 calls)
     add_vuspsi   :     42.51s CPU     43.86s WALL (  940754 calls)
 
     incdrhoscf   :   1452.60s CPU   1464.13s WALL (   67406 calls)
     addusdbec    :      6.98s CPU      6.92s WALL (   74564 calls)
 
     drhodvus     :      0.06s CPU      0.08s WALL (      66 calls)
 
      General routines
     calbec       :    102.79s CPU    107.45s WALL ( 2000741 calls)
     fft          :      2.63s CPU      2.62s WALL (    9788 calls)
     ffts         :      1.26s CPU      1.33s WALL (    9611 calls)
     fftw         :   2183.57s CPU   2228.21s WALL (14426173 calls)
     davcio       :     15.28s CPU    499.52s WALL (  350217 calls)
     write_rec    :      1.28s CPU     25.81s WALL (     653 calls)
 
 
     PHONON       :     1h19m CPU        1h30m WALL

 
   This run was terminated on:   4:35:38  28Mar2018            

=------------------------------------------------------------------------------=
   JOB DONE.
=------------------------------------------------------------------------------=
Application 30378704 resources: utime ~963567s, stime ~11924s, Rss ~49512, inblocks ~6216147113, outblocks ~1938918198
