
     Program PHONON v.5.4.0 starts on 28Mar2018 at  4:36:41 

     This program is part of the open-source Quantum ESPRESSO suite
     for quantum simulation of materials; please cite
         "P. Giannozzi et al., J. Phys.:Condens. Matter 21 395502 (2009);
          URL http://www.quantum-espresso.org", 
     in publications or presentations arising from this work. More details at
     http://www.quantum-espresso.org/quote

     Parallel version (MPI & OpenMP), running on     192 processor cores
     Number of MPI processes:               192
     Threads/MPI process:                     1
     K-points division:     npool     =      24
     R & G space division:  proc/nbgrp/npool/nimage =       8

     Reading data from directory:
     ./na_hcp_7.03/na_hcp_7.03.save

   Info: using nr1, nr2, nr3 values from input

   Info: using nr1, nr2, nr3 values from input

     IMPORTANT: XC functional enforced from input :
     Exchange-correlation      = SLA  PW   PBE  PBE ( 1  4  3  4 0 0)
     Any further DFT definition will be discarded
     Please, verify this is what you really want

 
     Parallelization info
     --------------------
     sticks:   dense  smooth     PW     G-vecs:    dense   smooth      PW
     Min         134      68     20                 5917     2082     348
     Max         135      69     21                 5922     2100     355
     Sum        1075     547    163                47363    16733    2803
 


     Dynamical matrices for ( 4, 4, 4)  uniform grid of q-points
     (  12q-points):
       N         xq(1)         xq(2)         xq(3) 
       1   0.000000000   0.000000000   0.000000000
       2   0.000000000   0.000000000   0.153330962
       3   0.000000000   0.000000000  -0.306661924
       4   0.000000000   0.288675135   0.000000000
       5   0.000000000   0.288675135   0.153330962
       6   0.000000000   0.288675135  -0.306661924
       7   0.000000000  -0.577350269   0.000000000
       8   0.000000000  -0.577350269   0.153330962
       9   0.000000000  -0.577350269  -0.306661924
      10   0.250000000   0.433012702   0.000000000
      11   0.250000000   0.433012702   0.153330962
      12   0.250000000   0.433012702  -0.306661924

     Calculation of q =    0.0000000   0.0000000   0.0000000

                                                                                

     bravais-lattice index     =            4
     lattice parameter (alat)  =       7.0300  a.u.
     unit-cell volume          =     490.5765 (a.u.)^3
     number of atoms/cell      =            2
     number of atomic types    =            1
     kinetic-energy cut-off    =      40.0000  Ry
     charge density cut-off    =     320.0000  Ry
     convergence threshold     =      1.0E-15
     beta                      =       0.7000
     number of iterations used =            4
     Exchange-correlation      = SLA  PW   PBE  PBE ( 1  4  3  4 0 0)


     celldm(1)=    7.03000  celldm(2)=    0.00000  celldm(3)=    1.63046
     celldm(4)=    0.00000  celldm(5)=    0.00000  celldm(6)=    0.00000

     crystal axes: (cart. coord. in units of alat)
               a(1) = (  1.0000  0.0000  0.0000 )  
               a(2) = ( -0.5000  0.8660  0.0000 )  
               a(3) = (  0.0000  0.0000  1.6305 )  

     reciprocal axes: (cart. coord. in units 2 pi/alat)
               b(1) = (  1.0000  0.5774  0.0000 )  
               b(2) = (  0.0000  1.1547  0.0000 )  
               b(3) = (  0.0000  0.0000  0.6133 )  


     Atoms inside the unit cell: 

     Cartesian axes

     site n.  atom      mass           positions (alat units)
        1     Na  22.9900   tau(    1) = (    0.00000    0.00000    0.00000  )
        2     Na  22.9900   tau(    2) = (    0.50000    0.28868    0.81523  )

     Computing dynamical matrix for 
                    q = (   0.0000000   0.0000000   0.0000000 )
 
     25 Sym.Ops. (with q -> -q+G )


     G cutoff =  400.5907  (   5919 G-vectors)     FFT grid: ( 45, 45, 72)
     G cutoff =  200.2954  (   2097 G-vectors)  smooth grid: ( 30, 30, 48)

     number of k points=   366  Marzari-Vanderbilt smearing, width (Ry)=  0.0200

     PseudoPot. # 1 for Na read from file:
     ./Na_pbe_v1.uspp.F.UPF
     MD5 check sum: 76a99c7e9422403d3e93cbc85ab7bccb
     Pseudo is Ultrasoft, Zval =  9.0
     Generated by new atomic code, or converted to UPF format
     Using radial grid of  819 points,  5 beta functions with: 
                l(1) =   0
                l(2) =   0
                l(3) =   1
                l(4) =   1
                l(5) =   2
     Q(r) pseudized with  8 coefficients,  rinner =    1.250   1.250   1.250
                                                       1.250   1.250

     Mode symmetry, D_6h(6/mmm) point group:


     Atomic displacements:
     There are   4 irreducible representations

     Representation     1      1 modes -B_1g  To be done

     Representation     2      2 modes -E_2g  To be done

     Representation     3      1 modes -A_2u  To be done

     Representation     4      2 modes -E_1u  To be done



     Alpha used in Ewald sum =   2.8000
     PHONON       :     5.73s CPU         8.78s WALL



     Representation #  1 mode #   1

     Self-consistent Calculation
 
     Pert. #  1: Fermi energy shift (Ry) =     0.0000E+00     4.8979E-40

      iter #   1 total cpu time :    10.3 secs   av.it.:   5.4
      thresh= 1.000E-02 alpha_mix =  0.700 |ddv_scf|^2 =  2.878E-05
 
     Pert. #  1: Fermi energy shift (Ry) =     0.0000E+00     0.0000E+00

      iter #   2 total cpu time :    11.1 secs   av.it.:   7.2
      thresh= 5.364E-04 alpha_mix =  0.700 |ddv_scf|^2 =  1.770E-05
 
     Pert. #  1: Fermi energy shift (Ry) =     0.0000E+00     0.0000E+00

      iter #   3 total cpu time :    11.7 secs   av.it.:   7.0
      thresh= 4.207E-04 alpha_mix =  0.700 |ddv_scf|^2 =  2.240E-08
 
     Pert. #  1: Fermi energy shift (Ry) =     0.0000E+00     0.0000E+00

      iter #   4 total cpu time :    12.7 secs   av.it.:   8.3
      thresh= 1.497E-05 alpha_mix =  0.700 |ddv_scf|^2 =  8.798E-11
 
     Pert. #  1: Fermi energy shift (Ry) =     0.0000E+00     0.0000E+00

      iter #   5 total cpu time :    13.3 secs   av.it.:   7.3
      thresh= 9.380E-07 alpha_mix =  0.700 |ddv_scf|^2 =  1.849E-12
 
     Pert. #  1: Fermi energy shift (Ry) =     1.4117E-22     0.0000E+00

      iter #   6 total cpu time :    14.0 secs   av.it.:   7.2
      thresh= 1.360E-07 alpha_mix =  0.700 |ddv_scf|^2 =  4.678E-15
 
     Pert. #  1: Fermi energy shift (Ry) =     0.0000E+00     0.0000E+00

      iter #   7 total cpu time :    14.7 secs   av.it.:   8.1
      thresh= 6.839E-09 alpha_mix =  0.700 |ddv_scf|^2 =  1.280E-17

     End of self-consistent calculation

     Convergence has been achieved 


     Representation #  2 modes #   2  3

     Self-consistent Calculation
 
     Pert. #  1: Fermi energy shift (Ry) =    -7.5875E-20    -1.5306E-40
     Pert. #  2: Fermi energy shift (Ry) =     1.0842E-19    -1.5067E-40

      iter #   1 total cpu time :    17.1 secs   av.it.:   5.1
      thresh= 1.000E-02 alpha_mix =  0.700 |ddv_scf|^2 =  7.577E-07
 
     Pert. #  1: Fermi energy shift (Ry) =     5.0519E-21    -7.6509E-41
     Pert. #  2: Fermi energy shift (Ry) =     4.9693E-20    -8.0356E-41

      iter #   2 total cpu time :    20.2 secs   av.it.:   8.6
      thresh= 8.704E-05 alpha_mix =  0.700 |ddv_scf|^2 =  1.305E-08
 
     Pert. #  1: Fermi energy shift (Ry) =    -5.6521E-21    -1.0536E-41
     Pert. #  2: Fermi energy shift (Ry) =    -4.5175E-21    -7.6530E-42

      iter #   3 total cpu time :    22.6 secs   av.it.:   8.8
      thresh= 1.142E-05 alpha_mix =  0.700 |ddv_scf|^2 =  4.254E-10
 
     Pert. #  1: Fermi energy shift (Ry) =    -1.3557E-20     1.2085E-43
     Pert. #  2: Fermi energy shift (Ry) =     0.0000E+00    -2.3915E-42

      iter #   4 total cpu time :    26.3 secs   av.it.:   8.4
      thresh= 2.063E-06 alpha_mix =  0.700 |ddv_scf|^2 =  1.391E-12
 
     Pert. #  1: Fermi energy shift (Ry) =    -5.6840E-22    -2.0905E-43
     Pert. #  2: Fermi energy shift (Ry) =    -2.8234E-21    -1.1958E-43

      iter #   5 total cpu time :    29.3 secs   av.it.:   8.8
      thresh= 1.180E-07 alpha_mix =  0.700 |ddv_scf|^2 =  2.100E-15
 
     Pert. #  1: Fermi energy shift (Ry) =    -3.9565E-21    -7.4524E-44
     Pert. #  2: Fermi energy shift (Ry) =    -1.6941E-21     0.0000E+00

      iter #   6 total cpu time :    32.1 secs   av.it.:   7.9
      thresh= 4.583E-09 alpha_mix =  0.700 |ddv_scf|^2 =  8.894E-17

     End of self-consistent calculation

     Convergence has been achieved 


     Representation #  3 mode #   4

     Self-consistent Calculation
 
     Pert. #  1: Fermi energy shift (Ry) =     4.1359E-25    -1.0031E-36

      iter #   1 total cpu time :    34.8 secs   av.it.:   5.1
      thresh= 1.000E-02 alpha_mix =  0.700 |ddv_scf|^2 =  2.839E-06
 
     Pert. #  1: Fermi energy shift (Ry) =    -3.4466E-26     7.8366E-39

      iter #   2 total cpu time :    37.2 secs   av.it.:   8.0
      thresh= 1.685E-04 alpha_mix =  0.700 |ddv_scf|^2 =  5.331E-08
 
     Pert. #  1: Fermi energy shift (Ry) =     3.4466E-26    -4.8979E-40

      iter #   3 total cpu time :    39.2 secs   av.it.:   8.2
      thresh= 2.309E-05 alpha_mix =  0.700 |ddv_scf|^2 =  1.089E-09
 
     Pert. #  1: Fermi energy shift (Ry) =     8.6165E-27     1.2245E-40

      iter #   4 total cpu time :    40.7 secs   av.it.:   7.7
      thresh= 3.300E-06 alpha_mix =  0.700 |ddv_scf|^2 =  3.665E-12
 
     Pert. #  1: Fermi energy shift (Ry) =     1.7233E-26    -1.5306E-41

      iter #   5 total cpu time :    42.7 secs   av.it.:   8.2
      thresh= 1.914E-07 alpha_mix =  0.700 |ddv_scf|^2 =  8.454E-15
 
     Pert. #  1: Fermi energy shift (Ry) =     0.0000E+00     7.6530E-42

      iter #   6 total cpu time :    44.4 secs   av.it.:   7.7
      thresh= 9.194E-09 alpha_mix =  0.700 |ddv_scf|^2 =  1.899E-16

     End of self-consistent calculation

     Convergence has been achieved 


     Representation #  4 modes #   5  6

     Self-consistent Calculation
 
     Pert. #  1: Fermi energy shift (Ry) =     4.3490E-24     1.2539E-37
     Pert. #  2: Fermi energy shift (Ry) =     6.6174E-24     2.3510E-37

      iter #   1 total cpu time :    48.0 secs   av.it.:   5.2
      thresh= 1.000E-02 alpha_mix =  0.700 |ddv_scf|^2 =  7.125E-07
 
     Pert. #  1: Fermi energy shift (Ry) =     5.8152E-25    -9.7958E-40
     Pert. #  2: Fermi energy shift (Ry) =    -1.3786E-24    -1.8367E-39

      iter #   2 total cpu time :    51.9 secs   av.it.:   8.7
      thresh= 8.441E-05 alpha_mix =  0.700 |ddv_scf|^2 =  1.327E-08
 
     Pert. #  1: Fermi energy shift (Ry) =     2.5221E-25    -1.2245E-40
     Pert. #  2: Fermi energy shift (Ry) =     6.8932E-26    -2.2959E-40

      iter #   3 total cpu time :    54.7 secs   av.it.:   9.0
      thresh= 1.152E-05 alpha_mix =  0.700 |ddv_scf|^2 =  2.829E-10
 
     Pert. #  1: Fermi energy shift (Ry) =    -3.9934E-25    -3.8265E-42
     Pert. #  2: Fermi energy shift (Ry) =    -1.3786E-25    -7.1746E-42

      iter #   4 total cpu time :    58.2 secs   av.it.:   8.7
      thresh= 1.682E-06 alpha_mix =  0.700 |ddv_scf|^2 =  9.592E-13
 
     Pert. #  1: Fermi energy shift (Ry) =     1.5254E-25     7.4736E-45
     Pert. #  2: Fermi energy shift (Ry) =    -1.3786E-25    -3.5873E-43

      iter #   5 total cpu time :    61.4 secs   av.it.:   9.1
      thresh= 9.794E-08 alpha_mix =  0.700 |ddv_scf|^2 =  2.046E-15
 
     Pert. #  1: Fermi energy shift (Ry) =     4.6277E-25    -2.3915E-43
     Pert. #  2: Fermi energy shift (Ry) =     1.3786E-25    -4.4842E-43

      iter #   6 total cpu time :    65.6 secs   av.it.:   8.6
      thresh= 4.523E-09 alpha_mix =  0.700 |ddv_scf|^2 =  4.726E-17

     End of self-consistent calculation

     Convergence has been achieved 
 
     Number of q in the star =    1
     List of q in the star:
          1   0.000000000   0.000000000   0.000000000

     Diagonalizing the dynamical matrix

     q = (    0.000000000   0.000000000   0.000000000 ) 

 **************************************************************************
     freq (    1) =      -0.495081 [THz] =     -16.514134 [cm-1]
     freq (    2) =      -0.495081 [THz] =     -16.514134 [cm-1]
     freq (    3) =      -0.490549 [THz] =     -16.362938 [cm-1]
     freq (    4) =       1.584177 [THz] =      52.842467 [cm-1]
     freq (    5) =       1.584177 [THz] =      52.842467 [cm-1]
     freq (    6) =       3.976905 [THz] =     132.655273 [cm-1]
 **************************************************************************

     Mode symmetry, D_6h(6/mmm) point group:

     freq (  1 -  2) =        -16.5  [cm-1]   --> E_1u            I  
     freq (  3 -  3) =        -16.4  [cm-1]   --> A_2u            I  
     freq (  4 -  5) =         52.8  [cm-1]   --> E_2g            R  
     freq (  6 -  6) =        132.7  [cm-1]   --> B_1g               

     Calculation of q =    0.0000000   0.0000000   0.1533310
 
     Parallelization info
     --------------------
     sticks:   dense  smooth     PW     G-vecs:    dense   smooth      PW
     Min         134      68     20                 5917     2082     356
     Max         135      69     21                 5922     2101     363
     Sum        1075     547    163                47363    16733    2875
 


     bravais-lattice index     =            4
     lattice parameter (alat)  =       7.0300  a.u.
     unit-cell volume          =     490.5765 (a.u.)^3
     number of atoms/cell      =            2
     number of atomic types    =            1
     number of electrons       =        18.00
     number of Kohn-Sham states=           13
     kinetic-energy cutoff     =      40.0000  Ry
     charge density cutoff     =     320.0000  Ry
     Exchange-correlation      = SLA  PW   PBE  PBE ( 1  4  3  4 0 0)

     celldm(1)=   7.030000  celldm(2)=   0.000000  celldm(3)=   1.630460
     celldm(4)=   0.000000  celldm(5)=   0.000000  celldm(6)=   0.000000

     crystal axes: (cart. coord. in units of alat)
               a(1) = (   1.000000   0.000000   0.000000 )  
               a(2) = (  -0.500000   0.866025   0.000000 )  
               a(3) = (   0.000000   0.000000   1.630460 )  

     reciprocal axes: (cart. coord. in units 2 pi/alat)
               b(1) = (  1.000000  0.577350  0.000000 )  
               b(2) = (  0.000000  1.154701  0.000000 )  
               b(3) = (  0.000000  0.000000  0.613324 )  


     PseudoPot. # 1 for Na read from file:
     ./Na_pbe_v1.uspp.F.UPF
     MD5 check sum: 76a99c7e9422403d3e93cbc85ab7bccb
     Pseudo is Ultrasoft, Zval =  9.0
     Generated by new atomic code, or converted to UPF format
     Using radial grid of  819 points,  5 beta functions with: 
                l(1) =   0
                l(2) =   0
                l(3) =   1
                l(4) =   1
                l(5) =   2
     Q(r) pseudized with  8 coefficients,  rinner =    1.250   1.250   1.250
                                                       1.250   1.250

     atomic species   valence    mass     pseudopotential
        Na             9.00    22.99000     Na( 1.00)

     24 Sym. Ops., with inversion, found



   Cartesian axes

     site n.     atom                  positions (alat units)
         1           Na  tau(   1) = (   0.0000000   0.0000000   0.0000000  )
         2           Na  tau(   2) = (   0.4999999   0.2886751   0.8152300  )

     number of k points=  1464  Marzari-Vanderbilt smearing, width (Ry)=  0.0200

     Number of k-points >= 100: set verbosity='high' to print them.

     Dense  grid:    47363 G-vectors     FFT dimensions: (  45,  45,  72)

     Smooth grid:    16733 G-vectors     FFT dimensions: (  30,  30,  48)

     Largest allocated arrays     est. size (Mb)     dimensions
        Kohn-Sham Wavefunctions         0.06 Mb     (     278,   13)
        NL pseudopotentials             0.11 Mb     (     278,   26)
        Each V/rho on FFT grid          0.28 Mb     (   18225)
        Each G-vector array             0.05 Mb     (    5919)
        G-vector shells                 0.01 Mb     (    1796)
     Largest temporary arrays     est. size (Mb)     dimensions
        Auxiliary wavefunctions         0.22 Mb     (     278,   52)
        Each subspace H/S matrix        0.01 Mb     (      26,   26)
        Each <psi_i|beta_j> matrix      0.01 Mb     (      26,   13)

     The potential is recalculated from file :
     ./na_hcp_7.03/_ph0/na_hcp_7.03.save/charge-density.dat

     Starting wfc are   10 atomic +    3 random wfc

     Band Structure Calculation
     Davidson diagonalization with overlap

     ethr =  5.56E-11,  avg # of iterations = 23.6

     total cpu time spent up to now is        5.7 secs

     End of band structure calculation

     Number of k-points >= 100: set verbosity='high' to print the bands.

     the Fermi energy is     1.6867 ev

     Writing output data file na_hcp_7.03.save

                                                                                

     bravais-lattice index     =            4
     lattice parameter (alat)  =       7.0300  a.u.
     unit-cell volume          =     490.5765 (a.u.)^3
     number of atoms/cell      =            2
     number of atomic types    =            1
     kinetic-energy cut-off    =      40.0000  Ry
     charge density cut-off    =     320.0000  Ry
     convergence threshold     =      1.0E-15
     beta                      =       0.7000
     number of iterations used =            4
     Exchange-correlation      = SLA  PW   PBE  PBE ( 1  4  3  4 0 0)


     celldm(1)=    7.03000  celldm(2)=    0.00000  celldm(3)=    1.63046
     celldm(4)=    0.00000  celldm(5)=    0.00000  celldm(6)=    0.00000

     crystal axes: (cart. coord. in units of alat)
               a(1) = (  1.0000  0.0000  0.0000 )  
               a(2) = ( -0.5000  0.8660  0.0000 )  
               a(3) = (  0.0000  0.0000  1.6305 )  

     reciprocal axes: (cart. coord. in units 2 pi/alat)
               b(1) = (  1.0000  0.5774  0.0000 )  
               b(2) = (  0.0000  1.1547  0.0000 )  
               b(3) = (  0.0000  0.0000  0.6133 )  


     Atoms inside the unit cell: 

     Cartesian axes

     site n.  atom      mass           positions (alat units)
        1     Na  22.9900   tau(    1) = (    0.00000    0.00000    0.00000  )
        2     Na  22.9900   tau(    2) = (    0.50000    0.28868    0.81523  )

     Computing dynamical matrix for 
                    q = (   0.0000000   0.0000000   0.1533310 )
 
     12 Sym.Ops. (no q -> -q+G )


     G cutoff =  400.5907  (   5919 G-vectors)     FFT grid: ( 45, 45, 72)
     G cutoff =  200.2954  (   2101 G-vectors)  smooth grid: ( 30, 30, 48)

     number of k points=  1464  Marzari-Vanderbilt smearing, width (Ry)=  0.0200

     PseudoPot. # 1 for Na read from file:
     ./Na_pbe_v1.uspp.F.UPF
     MD5 check sum: 76a99c7e9422403d3e93cbc85ab7bccb
     Pseudo is Ultrasoft, Zval =  9.0
     Generated by new atomic code, or converted to UPF format
     Using radial grid of  819 points,  5 beta functions with: 
                l(1) =   0
                l(2) =   0
                l(3) =   1
                l(4) =   1
                l(5) =   2
     Q(r) pseudized with  8 coefficients,  rinner =    1.250   1.250   1.250
                                                       1.250   1.250

     Mode symmetry, C_6v (6mm)  point group:


     Atomic displacements:
     There are   4 irreducible representations

     Representation     1      1 modes -A_1  To be done

     Representation     2      1 modes -B_2  To be done

     Representation     3      2 modes -E_1  To be done

     Representation     4      2 modes -E_2  To be done



     Alpha used in Ewald sum =   2.8000
     PHONON       :  1m31.21s CPU     1m41.38s WALL



     Representation #  1 mode #   1

     Self-consistent Calculation

      iter #   1 total cpu time :   103.5 secs   av.it.:   5.4
      thresh= 1.000E-02 alpha_mix =  0.700 |ddv_scf|^2 =  4.768E-02

      iter #   2 total cpu time :   107.5 secs   av.it.:   6.8
      thresh= 1.000E-02 alpha_mix =  0.700 |ddv_scf|^2 =  2.636E+01

      iter #   3 total cpu time :   110.3 secs   av.it.:   6.9
      thresh= 1.000E-02 alpha_mix =  0.700 |ddv_scf|^2 =  9.815E-05

      iter #   4 total cpu time :   113.4 secs   av.it.:   5.5
      thresh= 9.907E-04 alpha_mix =  0.700 |ddv_scf|^2 =  3.811E-08

      iter #   5 total cpu time :   139.7 secs   av.it.:   7.7
      thresh= 1.952E-05 alpha_mix =  0.700 |ddv_scf|^2 =  3.326E-09

      iter #   6 total cpu time :   142.6 secs   av.it.:   6.6
      thresh= 5.767E-06 alpha_mix =  0.700 |ddv_scf|^2 =  1.900E-07

      iter #   7 total cpu time :   144.7 secs   av.it.:   5.2
      thresh= 4.359E-05 alpha_mix =  0.700 |ddv_scf|^2 =  1.135E-11

      iter #   8 total cpu time :   146.8 secs   av.it.:   8.4
      thresh= 3.369E-07 alpha_mix =  0.700 |ddv_scf|^2 =  3.218E-13

      iter #   9 total cpu time :   148.9 secs   av.it.:   8.7
      thresh= 5.673E-08 alpha_mix =  0.700 |ddv_scf|^2 =  1.290E-14

      iter #  10 total cpu time :   152.4 secs   av.it.:   8.7
      thresh= 1.136E-08 alpha_mix =  0.700 |ddv_scf|^2 =  1.456E-13

      iter #  11 total cpu time :   157.5 secs   av.it.:   5.5
      thresh= 3.816E-08 alpha_mix =  0.700 |ddv_scf|^2 =  5.874E-14

      iter #  12 total cpu time :   160.3 secs   av.it.:   5.9
      thresh= 2.424E-08 alpha_mix =  0.700 |ddv_scf|^2 =  5.819E-15

      iter #  13 total cpu time :   162.4 secs   av.it.:   4.3
      thresh= 7.629E-09 alpha_mix =  0.700 |ddv_scf|^2 =  3.355E-16

     End of self-consistent calculation

     Convergence has been achieved 


     Representation #  2 mode #   2

     Self-consistent Calculation

      iter #   1 total cpu time :   165.7 secs   av.it.:   5.4
      thresh= 1.000E-02 alpha_mix =  0.700 |ddv_scf|^2 =  7.565E-05

      iter #   2 total cpu time :   178.0 secs   av.it.:   7.2
      thresh= 8.697E-04 alpha_mix =  0.700 |ddv_scf|^2 =  2.545E-04

      iter #   3 total cpu time :   181.3 secs   av.it.:   6.5
      thresh= 1.595E-03 alpha_mix =  0.700 |ddv_scf|^2 =  1.239E-07

      iter #   4 total cpu time :   183.7 secs   av.it.:   8.2
      thresh= 3.520E-05 alpha_mix =  0.700 |ddv_scf|^2 =  3.314E-09

      iter #   5 total cpu time :   186.1 secs   av.it.:   8.7
      thresh= 5.756E-06 alpha_mix =  0.700 |ddv_scf|^2 =  8.024E-11

      iter #   6 total cpu time :   189.0 secs   av.it.:   8.7
      thresh= 8.957E-07 alpha_mix =  0.700 |ddv_scf|^2 =  5.551E-12

      iter #   7 total cpu time :   201.4 secs   av.it.:   8.2
      thresh= 2.356E-07 alpha_mix =  0.700 |ddv_scf|^2 =  3.287E-13

      iter #   8 total cpu time :   205.0 secs   av.it.:   8.5
      thresh= 5.733E-08 alpha_mix =  0.700 |ddv_scf|^2 =  1.498E-14

      iter #   9 total cpu time :   207.2 secs   av.it.:   7.8
      thresh= 1.224E-08 alpha_mix =  0.700 |ddv_scf|^2 =  9.152E-16

     End of self-consistent calculation

     Convergence has been achieved 


     Representation #  3 modes #   3  4

     Self-consistent Calculation

      iter #   1 total cpu time :   212.7 secs   av.it.:   5.1
      thresh= 1.000E-02 alpha_mix =  0.700 |ddv_scf|^2 =  7.183E-07

      iter #   2 total cpu time :   224.3 secs   av.it.:   8.6
      thresh= 8.475E-05 alpha_mix =  0.700 |ddv_scf|^2 =  1.325E-08

      iter #   3 total cpu time :   230.5 secs   av.it.:   8.8
      thresh= 1.151E-05 alpha_mix =  0.700 |ddv_scf|^2 =  2.984E-10

      iter #   4 total cpu time :   235.3 secs   av.it.:   8.5
      thresh= 1.727E-06 alpha_mix =  0.700 |ddv_scf|^2 =  9.988E-13

      iter #   5 total cpu time :   241.3 secs   av.it.:   8.9
      thresh= 9.994E-08 alpha_mix =  0.700 |ddv_scf|^2 =  2.091E-15

      iter #   6 total cpu time :   249.4 secs   av.it.:   8.3
      thresh= 4.573E-09 alpha_mix =  0.700 |ddv_scf|^2 =  5.588E-17

     End of self-consistent calculation

     Convergence has been achieved 


     Representation #  4 modes #   5  6

     Self-consistent Calculation

      iter #   1 total cpu time :   254.9 secs   av.it.:   5.1
      thresh= 1.000E-02 alpha_mix =  0.700 |ddv_scf|^2 =  7.502E-07

      iter #   2 total cpu time :   260.8 secs   av.it.:   8.6
      thresh= 8.661E-05 alpha_mix =  0.700 |ddv_scf|^2 =  1.310E-08

      iter #   3 total cpu time :   266.6 secs   av.it.:   8.8
      thresh= 1.144E-05 alpha_mix =  0.700 |ddv_scf|^2 =  3.987E-10

      iter #   4 total cpu time :   273.2 secs   av.it.:   8.5
      thresh= 1.997E-06 alpha_mix =  0.700 |ddv_scf|^2 =  1.305E-12

      iter #   5 total cpu time :   279.7 secs   av.it.:   8.9
      thresh= 1.143E-07 alpha_mix =  0.700 |ddv_scf|^2 =  2.126E-15

      iter #   6 total cpu time :   286.5 secs   av.it.:   8.1
      thresh= 4.610E-09 alpha_mix =  0.700 |ddv_scf|^2 =  8.503E-17

     End of self-consistent calculation

     Convergence has been achieved 
 
     Number of q in the star =    2
     List of q in the star:
          1   0.000000000   0.000000000   0.153330962
          2   0.000000000   0.000000000  -0.153330962

     Diagonalizing the dynamical matrix

     q = (    0.000000000   0.000000000   0.153330962 ) 

 **************************************************************************
     freq (    1) =       0.492835 [THz] =      16.439209 [cm-1]
     freq (    2) =       0.492835 [THz] =      16.439209 [cm-1]
     freq (    3) =       1.479320 [THz] =      49.344798 [cm-1]
     freq (    4) =       1.479320 [THz] =      49.344798 [cm-1]
     freq (    5) =       1.600033 [THz] =      53.371367 [cm-1]
     freq (    6) =       3.709795 [THz] =     123.745428 [cm-1]
 **************************************************************************

     Mode symmetry, C_6v (6mm)  point group:

     freq (  1 -  2) =         16.4  [cm-1]   --> E_1                
     freq (  3 -  4) =         49.3  [cm-1]   --> E_2                
     freq (  5 -  5) =         53.4  [cm-1]   --> A_1                
     freq (  6 -  6) =        123.7  [cm-1]   --> B_2                

     Calculation of q =    0.0000000   0.0000000  -0.3066619
 
     Parallelization info
     --------------------
     sticks:   dense  smooth     PW     G-vecs:    dense   smooth      PW
     Min         134      68     20                 5917     2082     348
     Max         135      69     21                 5922     2100     355
     Sum        1075     547    163                47363    16733    2803
 


     bravais-lattice index     =            4
     lattice parameter (alat)  =       7.0300  a.u.
     unit-cell volume          =     490.5765 (a.u.)^3
     number of atoms/cell      =            2
     number of atomic types    =            1
     number of electrons       =        18.00
     number of Kohn-Sham states=           13
     kinetic-energy cutoff     =      40.0000  Ry
     charge density cutoff     =     320.0000  Ry
     Exchange-correlation      = SLA  PW   PBE  PBE ( 1  4  3  4 0 0)

     celldm(1)=   7.030000  celldm(2)=   0.000000  celldm(3)=   1.630460
     celldm(4)=   0.000000  celldm(5)=   0.000000  celldm(6)=   0.000000

     crystal axes: (cart. coord. in units of alat)
               a(1) = (   1.000000   0.000000   0.000000 )  
               a(2) = (  -0.500000   0.866025   0.000000 )  
               a(3) = (   0.000000   0.000000   1.630460 )  

     reciprocal axes: (cart. coord. in units 2 pi/alat)
               b(1) = (  1.000000  0.577350  0.000000 )  
               b(2) = (  0.000000  1.154701  0.000000 )  
               b(3) = (  0.000000  0.000000  0.613324 )  


     PseudoPot. # 1 for Na read from file:
     ./Na_pbe_v1.uspp.F.UPF
     MD5 check sum: 76a99c7e9422403d3e93cbc85ab7bccb
     Pseudo is Ultrasoft, Zval =  9.0
     Generated by new atomic code, or converted to UPF format
     Using radial grid of  819 points,  5 beta functions with: 
                l(1) =   0
                l(2) =   0
                l(3) =   1
                l(4) =   1
                l(5) =   2
     Q(r) pseudized with  8 coefficients,  rinner =    1.250   1.250   1.250
                                                       1.250   1.250

     atomic species   valence    mass     pseudopotential
        Na             9.00    22.99000     Na( 1.00)

     24 Sym. Ops., with inversion, found



   Cartesian axes

     site n.     atom                  positions (alat units)
         1           Na  tau(   1) = (   0.0000000   0.0000000   0.0000000  )
         2           Na  tau(   2) = (   0.4999999   0.2886751   0.8152300  )

     number of k points=   732  Marzari-Vanderbilt smearing, width (Ry)=  0.0200

     Number of k-points >= 100: set verbosity='high' to print them.

     Dense  grid:    47363 G-vectors     FFT dimensions: (  45,  45,  72)

     Smooth grid:    16733 G-vectors     FFT dimensions: (  30,  30,  48)

     Largest allocated arrays     est. size (Mb)     dimensions
        Kohn-Sham Wavefunctions         0.05 Mb     (     268,   13)
        NL pseudopotentials             0.11 Mb     (     268,   26)
        Each V/rho on FFT grid          0.28 Mb     (   18225)
        Each G-vector array             0.05 Mb     (    5919)
        G-vector shells                 0.01 Mb     (    1797)
     Largest temporary arrays     est. size (Mb)     dimensions
        Auxiliary wavefunctions         0.21 Mb     (     268,   52)
        Each subspace H/S matrix        0.01 Mb     (      26,   26)
        Each <psi_i|beta_j> matrix      0.01 Mb     (      26,   13)

     The potential is recalculated from file :
     ./na_hcp_7.03/_ph0/na_hcp_7.03.save/charge-density.dat

     Starting wfc are   10 atomic +    3 random wfc

     Band Structure Calculation
     Davidson diagonalization with overlap

     ethr =  5.56E-11,  avg # of iterations = 23.6

     total cpu time spent up to now is       10.3 secs

     End of band structure calculation

     Number of k-points >= 100: set verbosity='high' to print the bands.

     the Fermi energy is     1.6867 ev

     Writing output data file na_hcp_7.03.save

                                                                                

     bravais-lattice index     =            4
     lattice parameter (alat)  =       7.0300  a.u.
     unit-cell volume          =     490.5765 (a.u.)^3
     number of atoms/cell      =            2
     number of atomic types    =            1
     kinetic-energy cut-off    =      40.0000  Ry
     charge density cut-off    =     320.0000  Ry
     convergence threshold     =      1.0E-15
     beta                      =       0.7000
     number of iterations used =            4
     Exchange-correlation      = SLA  PW   PBE  PBE ( 1  4  3  4 0 0)


     celldm(1)=    7.03000  celldm(2)=    0.00000  celldm(3)=    1.63046
     celldm(4)=    0.00000  celldm(5)=    0.00000  celldm(6)=    0.00000

     crystal axes: (cart. coord. in units of alat)
               a(1) = (  1.0000  0.0000  0.0000 )  
               a(2) = ( -0.5000  0.8660  0.0000 )  
               a(3) = (  0.0000  0.0000  1.6305 )  

     reciprocal axes: (cart. coord. in units 2 pi/alat)
               b(1) = (  1.0000  0.5774  0.0000 )  
               b(2) = (  0.0000  1.1547  0.0000 )  
               b(3) = (  0.0000  0.0000  0.6133 )  


     Atoms inside the unit cell: 

     Cartesian axes

     site n.  atom      mass           positions (alat units)
        1     Na  22.9900   tau(    1) = (    0.00000    0.00000    0.00000  )
        2     Na  22.9900   tau(    2) = (    0.50000    0.28868    0.81523  )

     Computing dynamical matrix for 
                    q = (   0.0000000   0.0000000  -0.3066619 )
 
     25 Sym.Ops. (with q -> -q+G )


     G cutoff =  400.5907  (   5919 G-vectors)     FFT grid: ( 45, 45, 72)
     G cutoff =  200.2954  (   2097 G-vectors)  smooth grid: ( 30, 30, 48)

     number of k points=   732  Marzari-Vanderbilt smearing, width (Ry)=  0.0200

     PseudoPot. # 1 for Na read from file:
     ./Na_pbe_v1.uspp.F.UPF
     MD5 check sum: 76a99c7e9422403d3e93cbc85ab7bccb
     Pseudo is Ultrasoft, Zval =  9.0
     Generated by new atomic code, or converted to UPF format
     Using radial grid of  819 points,  5 beta functions with: 
                l(1) =   0
                l(2) =   0
                l(3) =   1
                l(4) =   1
                l(5) =   2
     Q(r) pseudized with  8 coefficients,  rinner =    1.250   1.250   1.250
                                                       1.250   1.250


     Atomic displacements:
     There are   2 irreducible representations

     Representation     1      4 modes -  To be done

     Representation     2      2 modes -  To be done



     Alpha used in Ewald sum =   2.8000
     PHONON       :  4m26.83s CPU     4m53.22s WALL



     Representation #  1 modes #   1  2  3  4

     Self-consistent Calculation

      iter #   1 total cpu time :   300.7 secs   av.it.:   5.2
      thresh= 1.000E-02 alpha_mix =  0.700 |ddv_scf|^2 =  1.834E-07

      iter #   2 total cpu time :   308.2 secs   av.it.:   9.4
      thresh= 4.282E-05 alpha_mix =  0.700 |ddv_scf|^2 =  3.294E-09

      iter #   3 total cpu time :   316.1 secs   av.it.:   9.7
      thresh= 5.739E-06 alpha_mix =  0.700 |ddv_scf|^2 =  8.550E-11

      iter #   4 total cpu time :   323.8 secs   av.it.:   9.1
      thresh= 9.247E-07 alpha_mix =  0.700 |ddv_scf|^2 =  2.835E-13

      iter #   5 total cpu time :   331.5 secs   av.it.:   9.5
      thresh= 5.325E-08 alpha_mix =  0.700 |ddv_scf|^2 =  5.372E-16

     End of self-consistent calculation

     Convergence has been achieved 


     Representation #  2 modes #   5  6

     Self-consistent Calculation

      iter #   1 total cpu time :   338.0 secs   av.it.:   5.7
      thresh= 1.000E-02 alpha_mix =  0.700 |ddv_scf|^2 =  1.898E-04

      iter #   2 total cpu time :   342.0 secs   av.it.:   7.7
      thresh= 1.378E-03 alpha_mix =  0.700 |ddv_scf|^2 =  5.132E-03

      iter #   3 total cpu time :   346.4 secs   av.it.:   6.2
      thresh= 7.164E-03 alpha_mix =  0.700 |ddv_scf|^2 =  1.361E-07

      iter #   4 total cpu time :   351.0 secs   av.it.:   8.6
      thresh= 3.689E-05 alpha_mix =  0.700 |ddv_scf|^2 =  6.849E-10

      iter #   5 total cpu time :   354.4 secs   av.it.:   9.5
      thresh= 2.617E-06 alpha_mix =  0.700 |ddv_scf|^2 =  5.429E-11

      iter #   6 total cpu time :   360.2 secs   av.it.:   9.4
      thresh= 7.368E-07 alpha_mix =  0.700 |ddv_scf|^2 =  1.324E-12

      iter #   7 total cpu time :   364.6 secs   av.it.:   9.7
      thresh= 1.151E-07 alpha_mix =  0.700 |ddv_scf|^2 =  1.957E-13

      iter #   8 total cpu time :   367.8 secs   av.it.:   8.3
      thresh= 4.423E-08 alpha_mix =  0.700 |ddv_scf|^2 =  1.242E-16

     End of self-consistent calculation

     Convergence has been achieved 
 
     Number of q in the star =    1
     List of q in the star:
          1   0.000000000   0.000000000  -0.306661924

     Diagonalizing the dynamical matrix

     q = (    0.000000000   0.000000000  -0.306661924 ) 

 **************************************************************************
     freq (    1) =       1.014271 [THz] =      33.832443 [cm-1]
     freq (    2) =       1.014271 [THz] =      33.832443 [cm-1]
     freq (    3) =       1.014271 [THz] =      33.832443 [cm-1]
     freq (    4) =       1.014271 [THz] =      33.832443 [cm-1]
     freq (    5) =       2.904129 [THz] =      96.871305 [cm-1]
     freq (    6) =       2.904129 [THz] =      96.871305 [cm-1]
 **************************************************************************

     Calculation of q =    0.0000000   0.2886751   0.0000000
 
     Parallelization info
     --------------------
     sticks:   dense  smooth     PW     G-vecs:    dense   smooth      PW
     Min         134      68     21                 5917     2082     375
     Max         135      69     22                 5922     2099     381
     Sum        1075     547    169                47363    16733    3027
 


     bravais-lattice index     =            4
     lattice parameter (alat)  =       7.0300  a.u.
     unit-cell volume          =     490.5765 (a.u.)^3
     number of atoms/cell      =            2
     number of atomic types    =            1
     number of electrons       =        18.00
     number of Kohn-Sham states=           13
     kinetic-energy cutoff     =      40.0000  Ry
     charge density cutoff     =     320.0000  Ry
     Exchange-correlation      = SLA  PW   PBE  PBE ( 1  4  3  4 0 0)

     celldm(1)=   7.030000  celldm(2)=   0.000000  celldm(3)=   1.630460
     celldm(4)=   0.000000  celldm(5)=   0.000000  celldm(6)=   0.000000

     crystal axes: (cart. coord. in units of alat)
               a(1) = (   1.000000   0.000000   0.000000 )  
               a(2) = (  -0.500000   0.866025   0.000000 )  
               a(3) = (   0.000000   0.000000   1.630460 )  

     reciprocal axes: (cart. coord. in units 2 pi/alat)
               b(1) = (  1.000000  0.577350  0.000000 )  
               b(2) = (  0.000000  1.154701  0.000000 )  
               b(3) = (  0.000000  0.000000  0.613324 )  


     PseudoPot. # 1 for Na read from file:
     ./Na_pbe_v1.uspp.F.UPF
     MD5 check sum: 76a99c7e9422403d3e93cbc85ab7bccb
     Pseudo is Ultrasoft, Zval =  9.0
     Generated by new atomic code, or converted to UPF format
     Using radial grid of  819 points,  5 beta functions with: 
                l(1) =   0
                l(2) =   0
                l(3) =   1
                l(4) =   1
                l(5) =   2
     Q(r) pseudized with  8 coefficients,  rinner =    1.250   1.250   1.250
                                                       1.250   1.250

     atomic species   valence    mass     pseudopotential
        Na             9.00    22.99000     Na( 1.00)

     24 Sym. Ops., with inversion, found



   Cartesian axes

     site n.     atom                  positions (alat units)
         1           Na  tau(   1) = (   0.0000000   0.0000000   0.0000000  )
         2           Na  tau(   2) = (   0.4999999   0.2886751   0.8152300  )

     number of k points=  3600  Marzari-Vanderbilt smearing, width (Ry)=  0.0200

     Number of k-points >= 100: set verbosity='high' to print them.

     Dense  grid:    47363 G-vectors     FFT dimensions: (  45,  45,  72)

     Smooth grid:    16733 G-vectors     FFT dimensions: (  30,  30,  48)

     Largest allocated arrays     est. size (Mb)     dimensions
        Kohn-Sham Wavefunctions         0.06 Mb     (     278,   13)
        NL pseudopotentials             0.11 Mb     (     278,   26)
        Each V/rho on FFT grid          0.28 Mb     (   18225)
        Each G-vector array             0.05 Mb     (    5919)
        G-vector shells                 0.01 Mb     (    1769)
     Largest temporary arrays     est. size (Mb)     dimensions
        Auxiliary wavefunctions         0.22 Mb     (     278,   52)
        Each subspace H/S matrix        0.01 Mb     (      26,   26)
        Each <psi_i|beta_j> matrix      0.01 Mb     (      26,   13)

     The potential is recalculated from file :
     ./na_hcp_7.03/_ph0/na_hcp_7.03.save/charge-density.dat

     Starting wfc are   10 atomic +    3 random wfc

     Band Structure Calculation
     Davidson diagonalization with overlap

     ethr =  5.56E-11,  avg # of iterations = 22.8

     total cpu time spent up to now is       29.8 secs

     End of band structure calculation

     Number of k-points >= 100: set verbosity='high' to print the bands.

     the Fermi energy is     1.6867 ev

     Writing output data file na_hcp_7.03.save

                                                                                

     bravais-lattice index     =            4
     lattice parameter (alat)  =       7.0300  a.u.
     unit-cell volume          =     490.5765 (a.u.)^3
     number of atoms/cell      =            2
     number of atomic types    =            1
     kinetic-energy cut-off    =      40.0000  Ry
     charge density cut-off    =     320.0000  Ry
     convergence threshold     =      1.0E-15
     beta                      =       0.7000
     number of iterations used =            4
     Exchange-correlation      = SLA  PW   PBE  PBE ( 1  4  3  4 0 0)


     celldm(1)=    7.03000  celldm(2)=    0.00000  celldm(3)=    1.63046
     celldm(4)=    0.00000  celldm(5)=    0.00000  celldm(6)=    0.00000

     crystal axes: (cart. coord. in units of alat)
               a(1) = (  1.0000  0.0000  0.0000 )  
               a(2) = ( -0.5000  0.8660  0.0000 )  
               a(3) = (  0.0000  0.0000  1.6305 )  

     reciprocal axes: (cart. coord. in units 2 pi/alat)
               b(1) = (  1.0000  0.5774  0.0000 )  
               b(2) = (  0.0000  1.1547  0.0000 )  
               b(3) = (  0.0000  0.0000  0.6133 )  


     Atoms inside the unit cell: 

     Cartesian axes

     site n.  atom      mass           positions (alat units)
        1     Na  22.9900   tau(    1) = (    0.00000    0.00000    0.00000  )
        2     Na  22.9900   tau(    2) = (    0.50000    0.28868    0.81523  )

     Computing dynamical matrix for 
                    q = (   0.0000000   0.2886751   0.0000000 )
 
      4 Sym.Ops. (no q -> -q+G )


     G cutoff =  400.5907  (   5919 G-vectors)     FFT grid: ( 45, 45, 72)
     G cutoff =  200.2954  (   2099 G-vectors)  smooth grid: ( 30, 30, 48)

     number of k points=  3600  Marzari-Vanderbilt smearing, width (Ry)=  0.0200

     PseudoPot. # 1 for Na read from file:
     ./Na_pbe_v1.uspp.F.UPF
     MD5 check sum: 76a99c7e9422403d3e93cbc85ab7bccb
     Pseudo is Ultrasoft, Zval =  9.0
     Generated by new atomic code, or converted to UPF format
     Using radial grid of  819 points,  5 beta functions with: 
                l(1) =   0
                l(2) =   0
                l(3) =   1
                l(4) =   1
                l(5) =   2
     Q(r) pseudized with  8 coefficients,  rinner =    1.250   1.250   1.250
                                                       1.250   1.250

     Mode symmetry, C_2v (mm2)  point group:


     Atomic displacements:
     There are   6 irreducible representations

     Representation     1      1 modes -A_1  D_1  S_1  To be done

     Representation     2      1 modes -A_1  D_1  S_1  To be done

     Representation     3      1 modes -B_1  D_3  S_3  To be done

     Representation     4      1 modes -B_1  D_3  S_3  To be done

     Representation     5      1 modes -B_2  D_4  S_4  To be done

     Representation     6      1 modes -B_2  D_4  S_4  To be done



     Alpha used in Ewald sum =   2.8000
     PHONON       :  6m 0.16s CPU     6m34.24s WALL



     Representation #  1 mode #   1

     Self-consistent Calculation

      iter #   1 total cpu time :   412.4 secs   av.it.:   5.7
      thresh= 1.000E-02 alpha_mix =  0.700 |ddv_scf|^2 =  5.482E-04

      iter #   2 total cpu time :   419.4 secs   av.it.:   7.3
      thresh= 2.341E-03 alpha_mix =  0.700 |ddv_scf|^2 =  1.954E-02

      iter #   3 total cpu time :   425.0 secs   av.it.:   5.3
      thresh= 1.000E-02 alpha_mix =  0.700 |ddv_scf|^2 =  4.693E-07

      iter #   4 total cpu time :   437.7 secs   av.it.:   8.2
      thresh= 6.850E-05 alpha_mix =  0.700 |ddv_scf|^2 =  2.643E-08

      iter #   5 total cpu time :   444.6 secs   av.it.:   8.3
      thresh= 1.626E-05 alpha_mix =  0.700 |ddv_scf|^2 =  6.523E-10

      iter #   6 total cpu time :   449.7 secs   av.it.:   8.7
      thresh= 2.554E-06 alpha_mix =  0.700 |ddv_scf|^2 =  1.507E-10

      iter #   7 total cpu time :   456.3 secs   av.it.:   7.9
      thresh= 1.228E-06 alpha_mix =  0.700 |ddv_scf|^2 =  1.492E-09

      iter #   8 total cpu time :   461.1 secs   av.it.:   6.7
      thresh= 3.863E-06 alpha_mix =  0.700 |ddv_scf|^2 =  2.705E-12

      iter #   9 total cpu time :   466.3 secs   av.it.:   8.7
      thresh= 1.645E-07 alpha_mix =  0.700 |ddv_scf|^2 =  5.536E-13

      iter #  10 total cpu time :   471.6 secs   av.it.:   7.6
      thresh= 7.440E-08 alpha_mix =  0.700 |ddv_scf|^2 =  1.789E-12

      iter #  11 total cpu time :   478.2 secs   av.it.:   7.1
      thresh= 1.338E-07 alpha_mix =  0.700 |ddv_scf|^2 =  1.579E-15

      iter #  12 total cpu time :   485.3 secs   av.it.:   8.9
      thresh= 3.974E-09 alpha_mix =  0.700 |ddv_scf|^2 =  9.396E-17

     End of self-consistent calculation

     Convergence has been achieved 


     Representation #  2 mode #   2

     Self-consistent Calculation

      iter #   1 total cpu time :   491.3 secs   av.it.:   5.7
      thresh= 1.000E-02 alpha_mix =  0.700 |ddv_scf|^2 =  5.482E-04

      iter #   2 total cpu time :   496.5 secs   av.it.:   7.3
      thresh= 2.341E-03 alpha_mix =  0.700 |ddv_scf|^2 =  1.954E-02

      iter #   3 total cpu time :   502.4 secs   av.it.:   5.3
      thresh= 1.000E-02 alpha_mix =  0.700 |ddv_scf|^2 =  4.693E-07

      iter #   4 total cpu time :   507.0 secs   av.it.:   8.2
      thresh= 6.850E-05 alpha_mix =  0.700 |ddv_scf|^2 =  2.643E-08

      iter #   5 total cpu time :   512.9 secs   av.it.:   8.3
      thresh= 1.626E-05 alpha_mix =  0.700 |ddv_scf|^2 =  6.524E-10

      iter #   6 total cpu time :   518.7 secs   av.it.:   8.7
      thresh= 2.554E-06 alpha_mix =  0.700 |ddv_scf|^2 =  1.525E-10

      iter #   7 total cpu time :   524.0 secs   av.it.:   7.9
      thresh= 1.235E-06 alpha_mix =  0.700 |ddv_scf|^2 =  1.492E-09

      iter #   8 total cpu time :   529.1 secs   av.it.:   6.7
      thresh= 3.863E-06 alpha_mix =  0.700 |ddv_scf|^2 =  2.694E-12

      iter #   9 total cpu time :   532.9 secs   av.it.:   8.7
      thresh= 1.641E-07 alpha_mix =  0.700 |ddv_scf|^2 =  5.533E-13

      iter #  10 total cpu time :   537.7 secs   av.it.:   7.6
      thresh= 7.439E-08 alpha_mix =  0.700 |ddv_scf|^2 =  1.788E-12

      iter #  11 total cpu time :   544.8 secs   av.it.:   7.1
      thresh= 1.337E-07 alpha_mix =  0.700 |ddv_scf|^2 =  1.579E-15

      iter #  12 total cpu time :   550.0 secs   av.it.:   8.9
      thresh= 3.974E-09 alpha_mix =  0.700 |ddv_scf|^2 =  9.395E-17

     End of self-consistent calculation

     Convergence has been achieved 


     Representation #  3 mode #   3

     Self-consistent Calculation

      iter #   1 total cpu time :   556.5 secs   av.it.:   5.3
      thresh= 1.000E-02 alpha_mix =  0.700 |ddv_scf|^2 =  3.182E-06

      iter #   2 total cpu time :   561.3 secs   av.it.:   8.3
      thresh= 1.784E-04 alpha_mix =  0.700 |ddv_scf|^2 =  5.099E-08

      iter #   3 total cpu time :   567.2 secs   av.it.:   8.6
      thresh= 2.258E-05 alpha_mix =  0.700 |ddv_scf|^2 =  2.314E-09

      iter #   4 total cpu time :   571.7 secs   av.it.:   8.2
      thresh= 4.811E-06 alpha_mix =  0.700 |ddv_scf|^2 =  1.380E-11

      iter #   5 total cpu time :   577.5 secs   av.it.:   8.3
      thresh= 3.714E-07 alpha_mix =  0.700 |ddv_scf|^2 =  1.024E-13

      iter #   6 total cpu time :   582.8 secs   av.it.:   8.7
      thresh= 3.200E-08 alpha_mix =  0.700 |ddv_scf|^2 =  3.622E-16

     End of self-consistent calculation

     Convergence has been achieved 


     Representation #  4 mode #   4

     Self-consistent Calculation

      iter #   1 total cpu time :   589.4 secs   av.it.:   5.3
      thresh= 1.000E-02 alpha_mix =  0.700 |ddv_scf|^2 =  3.182E-06

      iter #   2 total cpu time :   595.0 secs   av.it.:   8.3
      thresh= 1.784E-04 alpha_mix =  0.700 |ddv_scf|^2 =  5.099E-08

      iter #   3 total cpu time :   601.9 secs   av.it.:   8.6
      thresh= 2.258E-05 alpha_mix =  0.700 |ddv_scf|^2 =  2.314E-09

      iter #   4 total cpu time :   611.5 secs   av.it.:   8.2
      thresh= 4.811E-06 alpha_mix =  0.700 |ddv_scf|^2 =  1.380E-11

      iter #   5 total cpu time :   616.0 secs   av.it.:   8.3
      thresh= 3.714E-07 alpha_mix =  0.700 |ddv_scf|^2 =  1.024E-13

      iter #   6 total cpu time :   623.2 secs   av.it.:   8.7
      thresh= 3.200E-08 alpha_mix =  0.700 |ddv_scf|^2 =  3.622E-16

     End of self-consistent calculation

     Convergence has been achieved 


     Representation #  5 mode #   5

     Self-consistent Calculation

      iter #   1 total cpu time :   630.2 secs   av.it.:   5.5
      thresh= 1.000E-02 alpha_mix =  0.700 |ddv_scf|^2 =  8.762E-06

      iter #   2 total cpu time :   635.1 secs   av.it.:   8.4
      thresh= 2.960E-04 alpha_mix =  0.700 |ddv_scf|^2 =  1.850E-06

      iter #   3 total cpu time :   639.2 secs   av.it.:   7.7
      thresh= 1.360E-04 alpha_mix =  0.700 |ddv_scf|^2 =  1.076E-08

      iter #   4 total cpu time :   646.9 secs   av.it.:   8.8
      thresh= 1.037E-05 alpha_mix =  0.700 |ddv_scf|^2 =  3.684E-10

      iter #   5 total cpu time :   653.4 secs   av.it.:   8.2
      thresh= 1.919E-06 alpha_mix =  0.700 |ddv_scf|^2 =  2.148E-12

      iter #   6 total cpu time :   659.1 secs   av.it.:   8.6
      thresh= 1.466E-07 alpha_mix =  0.700 |ddv_scf|^2 =  1.123E-14

      iter #   7 total cpu time :   666.1 secs   av.it.:   8.3
      thresh= 1.060E-08 alpha_mix =  0.700 |ddv_scf|^2 =  5.219E-16

     End of self-consistent calculation

     Convergence has been achieved 


     Representation #  6 mode #   6

     Self-consistent Calculation

      iter #   1 total cpu time :   671.8 secs   av.it.:   5.5
      thresh= 1.000E-02 alpha_mix =  0.700 |ddv_scf|^2 =  8.762E-06

      iter #   2 total cpu time :   676.4 secs   av.it.:   8.4
      thresh= 2.960E-04 alpha_mix =  0.700 |ddv_scf|^2 =  1.850E-06

      iter #   3 total cpu time :   681.5 secs   av.it.:   7.7
      thresh= 1.360E-04 alpha_mix =  0.700 |ddv_scf|^2 =  1.076E-08

      iter #   4 total cpu time :   686.5 secs   av.it.:   8.8
      thresh= 1.037E-05 alpha_mix =  0.700 |ddv_scf|^2 =  3.684E-10

      iter #   5 total cpu time :   692.2 secs   av.it.:   8.2
      thresh= 1.919E-06 alpha_mix =  0.700 |ddv_scf|^2 =  2.148E-12

      iter #   6 total cpu time :   696.9 secs   av.it.:   8.6
      thresh= 1.466E-07 alpha_mix =  0.700 |ddv_scf|^2 =  1.123E-14

      iter #   7 total cpu time :   702.0 secs   av.it.:   8.3
      thresh= 1.060E-08 alpha_mix =  0.700 |ddv_scf|^2 =  5.219E-16

     End of self-consistent calculation

     Convergence has been achieved 
 
     Number of q in the star =    6
     List of q in the star:
          1   0.000000000   0.288675135   0.000000000
          2  -0.250000000   0.144337567   0.000000000
          3   0.250000000  -0.144337567   0.000000000
          4  -0.250000000  -0.144337567   0.000000000
          5   0.250000000   0.144337567   0.000000000
          6   0.000000000  -0.288675135   0.000000000

     Diagonalizing the dynamical matrix

     q = (    0.000000000   0.288675135   0.000000000 ) 

 **************************************************************************
     freq (    1) =       1.153695 [THz] =      38.483126 [cm-1]
     freq (    2) =       1.423070 [THz] =      47.468516 [cm-1]
     freq (    3) =       2.397545 [THz] =      79.973504 [cm-1]
     freq (    4) =       2.548587 [THz] =      85.011722 [cm-1]
     freq (    5) =       3.110071 [THz] =     103.740793 [cm-1]
     freq (    6) =       3.712635 [THz] =     123.840159 [cm-1]
 **************************************************************************

     Mode symmetry, C_2v (mm2)  point group:

     freq (  1 -  1) =         38.5  [cm-1]   --> B_1  D_3  S_3      
     freq (  2 -  2) =         47.5  [cm-1]   --> B_2  D_4  S_4      
     freq (  3 -  3) =         80.0  [cm-1]   --> B_1  D_3  S_3      
     freq (  4 -  4) =         85.0  [cm-1]   --> A_1  D_1  S_1      
     freq (  5 -  5) =        103.7  [cm-1]   --> A_1  D_1  S_1      
     freq (  6 -  6) =        123.8  [cm-1]   --> B_2  D_4  S_4      

     Calculation of q =    0.0000000   0.2886751   0.1533310
 
     Parallelization info
     --------------------
     sticks:   dense  smooth     PW     G-vecs:    dense   smooth      PW
     Min         134      68     22                 5917     2078     392
     Max         135      69     24                 5922     2099     394
     Sum        1075     547    187                47363    16733    3141
 


     bravais-lattice index     =            4
     lattice parameter (alat)  =       7.0300  a.u.
     unit-cell volume          =     490.5765 (a.u.)^3
     number of atoms/cell      =            2
     number of atomic types    =            1
     number of electrons       =        18.00
     number of Kohn-Sham states=           13
     kinetic-energy cutoff     =      40.0000  Ry
     charge density cutoff     =     320.0000  Ry
     Exchange-correlation      = SLA  PW   PBE  PBE ( 1  4  3  4 0 0)

     celldm(1)=   7.030000  celldm(2)=   0.000000  celldm(3)=   1.630460
     celldm(4)=   0.000000  celldm(5)=   0.000000  celldm(6)=   0.000000

     crystal axes: (cart. coord. in units of alat)
               a(1) = (   1.000000   0.000000   0.000000 )  
               a(2) = (  -0.500000   0.866025   0.000000 )  
               a(3) = (   0.000000   0.000000   1.630460 )  

     reciprocal axes: (cart. coord. in units 2 pi/alat)
               b(1) = (  1.000000  0.577350  0.000000 )  
               b(2) = (  0.000000  1.154701  0.000000 )  
               b(3) = (  0.000000  0.000000  0.613324 )  


     PseudoPot. # 1 for Na read from file:
     ./Na_pbe_v1.uspp.F.UPF
     MD5 check sum: 76a99c7e9422403d3e93cbc85ab7bccb
     Pseudo is Ultrasoft, Zval =  9.0
     Generated by new atomic code, or converted to UPF format
     Using radial grid of  819 points,  5 beta functions with: 
                l(1) =   0
                l(2) =   0
                l(3) =   1
                l(4) =   1
                l(5) =   2
     Q(r) pseudized with  8 coefficients,  rinner =    1.250   1.250   1.250
                                                       1.250   1.250

     atomic species   valence    mass     pseudopotential
        Na             9.00    22.99000     Na( 1.00)

     24 Sym. Ops., with inversion, found



   Cartesian axes

     site n.     atom                  positions (alat units)
         1           Na  tau(   1) = (   0.0000000   0.0000000   0.0000000  )
         2           Na  tau(   2) = (   0.4999999   0.2886751   0.8152300  )

     number of k points=  7200  Marzari-Vanderbilt smearing, width (Ry)=  0.0200

     Number of k-points >= 100: set verbosity='high' to print them.

     Dense  grid:    47363 G-vectors     FFT dimensions: (  45,  45,  72)

     Smooth grid:    16733 G-vectors     FFT dimensions: (  30,  30,  48)

     Largest allocated arrays     est. size (Mb)     dimensions
        Kohn-Sham Wavefunctions         0.05 Mb     (     275,   13)
        NL pseudopotentials             0.11 Mb     (     275,   26)
        Each V/rho on FFT grid          0.28 Mb     (   18225)
        Each G-vector array             0.05 Mb     (    5919)
        G-vector shells                 0.01 Mb     (    1709)
     Largest temporary arrays     est. size (Mb)     dimensions
        Auxiliary wavefunctions         0.22 Mb     (     275,   52)
        Each subspace H/S matrix        0.01 Mb     (      26,   26)
        Each <psi_i|beta_j> matrix      0.01 Mb     (      26,   13)

     The potential is recalculated from file :
     ./na_hcp_7.03/_ph0/na_hcp_7.03.save/charge-density.dat

     Starting wfc are   10 atomic +    3 random wfc

     Band Structure Calculation
     Davidson diagonalization with overlap

     ethr =  5.56E-11,  avg # of iterations = 22.8

     total cpu time spent up to now is       58.6 secs

     End of band structure calculation

     Number of k-points >= 100: set verbosity='high' to print the bands.

     the Fermi energy is     1.6867 ev

     Writing output data file na_hcp_7.03.save

                                                                                

     bravais-lattice index     =            4
     lattice parameter (alat)  =       7.0300  a.u.
     unit-cell volume          =     490.5765 (a.u.)^3
     number of atoms/cell      =            2
     number of atomic types    =            1
     kinetic-energy cut-off    =      40.0000  Ry
     charge density cut-off    =     320.0000  Ry
     convergence threshold     =      1.0E-15
     beta                      =       0.7000
     number of iterations used =            4
     Exchange-correlation      = SLA  PW   PBE  PBE ( 1  4  3  4 0 0)


     celldm(1)=    7.03000  celldm(2)=    0.00000  celldm(3)=    1.63046
     celldm(4)=    0.00000  celldm(5)=    0.00000  celldm(6)=    0.00000

     crystal axes: (cart. coord. in units of alat)
               a(1) = (  1.0000  0.0000  0.0000 )  
               a(2) = ( -0.5000  0.8660  0.0000 )  
               a(3) = (  0.0000  0.0000  1.6305 )  

     reciprocal axes: (cart. coord. in units 2 pi/alat)
               b(1) = (  1.0000  0.5774  0.0000 )  
               b(2) = (  0.0000  1.1547  0.0000 )  
               b(3) = (  0.0000  0.0000  0.6133 )  


     Atoms inside the unit cell: 

     Cartesian axes

     site n.  atom      mass           positions (alat units)
        1     Na  22.9900   tau(    1) = (    0.00000    0.00000    0.00000  )
        2     Na  22.9900   tau(    2) = (    0.50000    0.28868    0.81523  )

     Computing dynamical matrix for 
                    q = (   0.0000000   0.2886751   0.1533310 )
 
      2 Sym.Ops. (no q -> -q+G )


     G cutoff =  400.5907  (   5919 G-vectors)     FFT grid: ( 45, 45, 72)
     G cutoff =  200.2954  (   2099 G-vectors)  smooth grid: ( 30, 30, 48)

     number of k points=  7200  Marzari-Vanderbilt smearing, width (Ry)=  0.0200

     PseudoPot. # 1 for Na read from file:
     ./Na_pbe_v1.uspp.F.UPF
     MD5 check sum: 76a99c7e9422403d3e93cbc85ab7bccb
     Pseudo is Ultrasoft, Zval =  9.0
     Generated by new atomic code, or converted to UPF format
     Using radial grid of  819 points,  5 beta functions with: 
                l(1) =   0
                l(2) =   0
                l(3) =   1
                l(4) =   1
                l(5) =   2
     Q(r) pseudized with  8 coefficients,  rinner =    1.250   1.250   1.250
                                                       1.250   1.250

     Mode symmetry, C_s (m)     point group:


     Atomic displacements:
     There are   6 irreducible representations

     Representation     1      1 modes -A'  To be done

     Representation     2      1 modes -A'  To be done

     Representation     3      1 modes -A'  To be done

     Representation     4      1 modes -A'  To be done

     Representation     5      1 modes -A''  To be done

     Representation     6      1 modes -A''  To be done



     Alpha used in Ewald sum =   2.8000
     PHONON       : 11m17.29s CPU    12m20.03s WALL



     Representation #  1 mode #   1

     Self-consistent Calculation

      iter #   1 total cpu time :   744.0 secs   av.it.:   5.7
      thresh= 1.000E-02 alpha_mix =  0.700 |ddv_scf|^2 =  2.147E-04

      iter #   2 total cpu time :   752.1 secs   av.it.:   7.6
      thresh= 1.465E-03 alpha_mix =  0.700 |ddv_scf|^2 =  4.241E-03

      iter #   3 total cpu time :   760.0 secs   av.it.:   5.6
      thresh= 6.512E-03 alpha_mix =  0.700 |ddv_scf|^2 =  1.944E-06

      iter #   4 total cpu time :   769.9 secs   av.it.:   7.8
      thresh= 1.394E-04 alpha_mix =  0.700 |ddv_scf|^2 =  2.752E-07

      iter #   5 total cpu time :   776.2 secs   av.it.:   7.8
      thresh= 5.246E-05 alpha_mix =  0.700 |ddv_scf|^2 =  1.238E-09

      iter #   6 total cpu time :   785.8 secs   av.it.:   8.7
      thresh= 3.519E-06 alpha_mix =  0.700 |ddv_scf|^2 =  6.035E-11

      iter #   7 total cpu time :   794.4 secs   av.it.:   8.7
      thresh= 7.768E-07 alpha_mix =  0.700 |ddv_scf|^2 =  3.536E-11

      iter #   8 total cpu time :   802.7 secs   av.it.:   7.5
      thresh= 5.946E-07 alpha_mix =  0.700 |ddv_scf|^2 =  4.764E-11

      iter #   9 total cpu time :   809.9 secs   av.it.:   7.5
      thresh= 6.902E-07 alpha_mix =  0.700 |ddv_scf|^2 =  3.377E-13

      iter #  10 total cpu time :   817.8 secs   av.it.:   8.5
      thresh= 5.811E-08 alpha_mix =  0.700 |ddv_scf|^2 =  5.612E-13

      iter #  11 total cpu time :   827.5 secs   av.it.:   7.4
      thresh= 7.491E-08 alpha_mix =  0.700 |ddv_scf|^2 =  1.175E-14

      iter #  12 total cpu time :   836.3 secs   av.it.:   8.4
      thresh= 1.084E-08 alpha_mix =  0.700 |ddv_scf|^2 =  5.363E-15

      iter #  13 total cpu time :   843.9 secs   av.it.:   7.9
      thresh= 7.323E-09 alpha_mix =  0.700 |ddv_scf|^2 =  8.067E-16

     End of self-consistent calculation

     Convergence has been achieved 


     Representation #  2 mode #   2

     Self-consistent Calculation

      iter #   1 total cpu time :   851.8 secs   av.it.:   5.7
      thresh= 1.000E-02 alpha_mix =  0.700 |ddv_scf|^2 =  3.678E-05

      iter #   2 total cpu time :   862.3 secs   av.it.:   8.0
      thresh= 6.065E-04 alpha_mix =  0.700 |ddv_scf|^2 =  4.431E-04

      iter #   3 total cpu time :   870.9 secs   av.it.:   5.9
      thresh= 2.105E-03 alpha_mix =  0.700 |ddv_scf|^2 =  1.430E-05

      iter #   4 total cpu time :   878.5 secs   av.it.:   7.2
      thresh= 3.781E-04 alpha_mix =  0.700 |ddv_scf|^2 =  6.802E-08

      iter #   5 total cpu time :   885.7 secs   av.it.:   8.6
      thresh= 2.608E-05 alpha_mix =  0.700 |ddv_scf|^2 =  7.802E-10

      iter #   6 total cpu time :   894.7 secs   av.it.:   8.9
      thresh= 2.793E-06 alpha_mix =  0.700 |ddv_scf|^2 =  6.451E-11

      iter #   7 total cpu time :   904.8 secs   av.it.:   8.8
      thresh= 8.032E-07 alpha_mix =  0.700 |ddv_scf|^2 =  4.885E-11

      iter #   8 total cpu time :   913.0 secs   av.it.:   7.7
      thresh= 6.989E-07 alpha_mix =  0.700 |ddv_scf|^2 =  1.441E-10

      iter #   9 total cpu time :   919.4 secs   av.it.:   7.0
      thresh= 1.201E-06 alpha_mix =  0.700 |ddv_scf|^2 =  4.182E-12

      iter #  10 total cpu time :   932.3 secs   av.it.:   7.6
      thresh= 2.045E-07 alpha_mix =  0.700 |ddv_scf|^2 =  2.550E-12

      iter #  11 total cpu time :   943.7 secs   av.it.:   7.6
      thresh= 1.597E-07 alpha_mix =  0.700 |ddv_scf|^2 =  1.931E-14

      iter #  12 total cpu time :   951.9 secs   av.it.:   8.0
      thresh= 1.389E-08 alpha_mix =  0.700 |ddv_scf|^2 =  2.748E-15

      iter #  13 total cpu time :   962.6 secs   av.it.:   8.7
      thresh= 5.242E-09 alpha_mix =  0.700 |ddv_scf|^2 =  6.326E-17

     End of self-consistent calculation

     Convergence has been achieved 


     Representation #  3 mode #   3

     Self-consistent Calculation

      iter #   1 total cpu time :   973.7 secs   av.it.:   5.8
      thresh= 1.000E-02 alpha_mix =  0.700 |ddv_scf|^2 =  2.459E-04

      iter #   2 total cpu time :   984.4 secs   av.it.:   7.6
      thresh= 1.568E-03 alpha_mix =  0.700 |ddv_scf|^2 =  4.923E-03

      iter #   3 total cpu time :   992.1 secs   av.it.:   5.5
      thresh= 7.017E-03 alpha_mix =  0.700 |ddv_scf|^2 =  6.329E-07

      iter #   4 total cpu time :  1013.8 secs   av.it.:   8.0
      thresh= 7.955E-05 alpha_mix =  0.700 |ddv_scf|^2 =  2.879E-07

      iter #   5 total cpu time :  1020.0 secs   av.it.:   7.7
      thresh= 5.366E-05 alpha_mix =  0.700 |ddv_scf|^2 =  1.532E-09

      iter #   6 total cpu time :  1027.9 secs   av.it.:   8.7
      thresh= 3.914E-06 alpha_mix =  0.700 |ddv_scf|^2 =  7.477E-11

      iter #   7 total cpu time :  1055.3 secs   av.it.:   8.6
      thresh= 8.647E-07 alpha_mix =  0.700 |ddv_scf|^2 =  2.095E-12

      iter #   8 total cpu time :  1063.9 secs   av.it.:   9.2
      thresh= 1.447E-07 alpha_mix =  0.700 |ddv_scf|^2 =  4.950E-12

      iter #   9 total cpu time :  1075.7 secs   av.it.:   7.5
      thresh= 2.225E-07 alpha_mix =  0.700 |ddv_scf|^2 =  3.254E-12

      iter #  10 total cpu time :  1083.1 secs   av.it.:   7.6
      thresh= 1.804E-07 alpha_mix =  0.700 |ddv_scf|^2 =  2.634E-13

      iter #  11 total cpu time :  1090.3 secs   av.it.:   7.4
      thresh= 5.133E-08 alpha_mix =  0.700 |ddv_scf|^2 =  2.167E-14

      iter #  12 total cpu time :  1097.6 secs   av.it.:   8.0
      thresh= 1.472E-08 alpha_mix =  0.700 |ddv_scf|^2 =  6.060E-16

     End of self-consistent calculation

     Convergence has been achieved 


     Representation #  4 mode #   4

     Self-consistent Calculation

      iter #   1 total cpu time :  1106.0 secs   av.it.:   5.7
      thresh= 1.000E-02 alpha_mix =  0.700 |ddv_scf|^2 =  6.796E-05

      iter #   2 total cpu time :  1114.0 secs   av.it.:   7.8
      thresh= 8.244E-04 alpha_mix =  0.700 |ddv_scf|^2 =  1.125E-03

      iter #   3 total cpu time :  1122.2 secs   av.it.:   5.8
      thresh= 3.354E-03 alpha_mix =  0.700 |ddv_scf|^2 =  7.118E-06

      iter #   4 total cpu time :  1128.4 secs   av.it.:   7.5
      thresh= 2.668E-04 alpha_mix =  0.700 |ddv_scf|^2 =  1.076E-07

      iter #   5 total cpu time :  1137.0 secs   av.it.:   8.2
      thresh= 3.280E-05 alpha_mix =  0.700 |ddv_scf|^2 =  8.870E-10

      iter #   6 total cpu time :  1144.9 secs   av.it.:   8.9
      thresh= 2.978E-06 alpha_mix =  0.700 |ddv_scf|^2 =  7.475E-11

      iter #   7 total cpu time :  1152.6 secs   av.it.:   8.7
      thresh= 8.646E-07 alpha_mix =  0.700 |ddv_scf|^2 =  7.423E-12

      iter #   8 total cpu time :  1159.9 secs   av.it.:   8.7
      thresh= 2.725E-07 alpha_mix =  0.700 |ddv_scf|^2 =  7.651E-11

      iter #   9 total cpu time :  1168.1 secs   av.it.:   6.4
      thresh= 8.747E-07 alpha_mix =  0.700 |ddv_scf|^2 =  7.452E-13

      iter #  10 total cpu time :  1176.3 secs   av.it.:   8.2
      thresh= 8.632E-08 alpha_mix =  0.700 |ddv_scf|^2 =  5.909E-13

      iter #  11 total cpu time :  1183.9 secs   av.it.:   7.6
      thresh= 7.687E-08 alpha_mix =  0.700 |ddv_scf|^2 =  1.706E-13

      iter #  12 total cpu time :  1190.8 secs   av.it.:   7.1
      thresh= 4.131E-08 alpha_mix =  0.700 |ddv_scf|^2 =  4.502E-15

      iter #  13 total cpu time :  1197.0 secs   av.it.:   8.7
      thresh= 6.710E-09 alpha_mix =  0.700 |ddv_scf|^2 =  9.656E-17

     End of self-consistent calculation

     Convergence has been achieved 


     Representation #  5 mode #   5

     Self-consistent Calculation

      iter #   1 total cpu time :  1205.2 secs   av.it.:   5.4
      thresh= 1.000E-02 alpha_mix =  0.700 |ddv_scf|^2 =  3.175E-06

      iter #   2 total cpu time :  1212.6 secs   av.it.:   8.4
      thresh= 1.782E-04 alpha_mix =  0.700 |ddv_scf|^2 =  5.082E-08

      iter #   3 total cpu time :  1222.0 secs   av.it.:   8.7
      thresh= 2.254E-05 alpha_mix =  0.700 |ddv_scf|^2 =  2.326E-09

      iter #   4 total cpu time :  1229.4 secs   av.it.:   8.1
      thresh= 4.823E-06 alpha_mix =  0.700 |ddv_scf|^2 =  1.070E-11

      iter #   5 total cpu time :  1237.7 secs   av.it.:   8.4
      thresh= 3.271E-07 alpha_mix =  0.700 |ddv_scf|^2 =  7.614E-14

      iter #   6 total cpu time :  1246.0 secs   av.it.:   8.7
      thresh= 2.759E-08 alpha_mix =  0.700 |ddv_scf|^2 =  3.455E-16

     End of self-consistent calculation

     Convergence has been achieved 


     Representation #  6 mode #   6

     Self-consistent Calculation

      iter #   1 total cpu time :  1253.8 secs   av.it.:   5.4
      thresh= 1.000E-02 alpha_mix =  0.700 |ddv_scf|^2 =  3.175E-06

      iter #   2 total cpu time :  1261.4 secs   av.it.:   8.4
      thresh= 1.782E-04 alpha_mix =  0.700 |ddv_scf|^2 =  5.082E-08

      iter #   3 total cpu time :  1267.9 secs   av.it.:   8.7
      thresh= 2.254E-05 alpha_mix =  0.700 |ddv_scf|^2 =  2.326E-09

      iter #   4 total cpu time :  1276.1 secs   av.it.:   8.1
      thresh= 4.823E-06 alpha_mix =  0.700 |ddv_scf|^2 =  1.070E-11

      iter #   5 total cpu time :  1284.9 secs   av.it.:   8.4
      thresh= 3.271E-07 alpha_mix =  0.700 |ddv_scf|^2 =  7.614E-14

      iter #   6 total cpu time :  1292.3 secs   av.it.:   8.7
      thresh= 2.759E-08 alpha_mix =  0.700 |ddv_scf|^2 =  3.455E-16

     End of self-consistent calculation

     Convergence has been achieved 
 
     Number of q in the star =   12
     List of q in the star:
          1   0.000000000   0.288675135   0.153330962
          2   0.000000000   0.288675135  -0.153330962
          3  -0.250000000   0.144337567   0.153330962
          4   0.250000000  -0.144337567   0.153330962
          5  -0.250000000  -0.144337567   0.153330962
          6   0.250000000   0.144337567   0.153330962
          7   0.000000000  -0.288675135   0.153330962
          8   0.000000000  -0.288675135  -0.153330962
          9   0.250000000   0.144337567  -0.153330962
         10   0.250000000  -0.144337567  -0.153330962
         11  -0.250000000  -0.144337567  -0.153330962
         12  -0.250000000   0.144337567  -0.153330962

     Diagonalizing the dynamical matrix

     q = (    0.000000000   0.288675135   0.153330962 ) 

 **************************************************************************
     freq (    1) =       1.399972 [THz] =      46.698049 [cm-1]
     freq (    2) =       1.638462 [THz] =      54.653213 [cm-1]
     freq (    3) =       2.267929 [THz] =      75.649983 [cm-1]
     freq (    4) =       2.795231 [THz] =      93.238880 [cm-1]
     freq (    5) =       2.912326 [THz] =      97.144733 [cm-1]
     freq (    6) =       3.622614 [THz] =     120.837386 [cm-1]
 **************************************************************************

     Mode symmetry, C_s (m)     point group:

     freq (  1 -  1) =         46.7  [cm-1]   --> A''                
     freq (  2 -  2) =         54.7  [cm-1]   --> A'                 
     freq (  3 -  3) =         75.6  [cm-1]   --> A''                
     freq (  4 -  4) =         93.2  [cm-1]   --> A'                 
     freq (  5 -  5) =         97.1  [cm-1]   --> A'                 
     freq (  6 -  6) =        120.8  [cm-1]   --> A'                 

     Calculation of q =    0.0000000   0.2886751  -0.3066619
 
     Parallelization info
     --------------------
     sticks:   dense  smooth     PW     G-vecs:    dense   smooth      PW
     Min         134      68     21                 5917     2082     375
     Max         135      69     22                 5922     2099     381
     Sum        1075     547    169                47363    16733    3027
 


     bravais-lattice index     =            4
     lattice parameter (alat)  =       7.0300  a.u.
     unit-cell volume          =     490.5765 (a.u.)^3
     number of atoms/cell      =            2
     number of atomic types    =            1
     number of electrons       =        18.00
     number of Kohn-Sham states=           13
     kinetic-energy cutoff     =      40.0000  Ry
     charge density cutoff     =     320.0000  Ry
     Exchange-correlation      = SLA  PW   PBE  PBE ( 1  4  3  4 0 0)

     celldm(1)=   7.030000  celldm(2)=   0.000000  celldm(3)=   1.630460
     celldm(4)=   0.000000  celldm(5)=   0.000000  celldm(6)=   0.000000

     crystal axes: (cart. coord. in units of alat)
               a(1) = (   1.000000   0.000000   0.000000 )  
               a(2) = (  -0.500000   0.866025   0.000000 )  
               a(3) = (   0.000000   0.000000   1.630460 )  

     reciprocal axes: (cart. coord. in units 2 pi/alat)
               b(1) = (  1.000000  0.577350  0.000000 )  
               b(2) = (  0.000000  1.154701  0.000000 )  
               b(3) = (  0.000000  0.000000  0.613324 )  


     PseudoPot. # 1 for Na read from file:
     ./Na_pbe_v1.uspp.F.UPF
     MD5 check sum: 76a99c7e9422403d3e93cbc85ab7bccb
     Pseudo is Ultrasoft, Zval =  9.0
     Generated by new atomic code, or converted to UPF format
     Using radial grid of  819 points,  5 beta functions with: 
                l(1) =   0
                l(2) =   0
                l(3) =   1
                l(4) =   1
                l(5) =   2
     Q(r) pseudized with  8 coefficients,  rinner =    1.250   1.250   1.250
                                                       1.250   1.250

     atomic species   valence    mass     pseudopotential
        Na             9.00    22.99000     Na( 1.00)

     24 Sym. Ops., with inversion, found



   Cartesian axes

     site n.     atom                  positions (alat units)
         1           Na  tau(   1) = (   0.0000000   0.0000000   0.0000000  )
         2           Na  tau(   2) = (   0.4999999   0.2886751   0.8152300  )

     number of k points=  3600  Marzari-Vanderbilt smearing, width (Ry)=  0.0200

     Number of k-points >= 100: set verbosity='high' to print them.

     Dense  grid:    47363 G-vectors     FFT dimensions: (  45,  45,  72)

     Smooth grid:    16733 G-vectors     FFT dimensions: (  30,  30,  48)

     Largest allocated arrays     est. size (Mb)     dimensions
        Kohn-Sham Wavefunctions         0.06 Mb     (     278,   13)
        NL pseudopotentials             0.11 Mb     (     278,   26)
        Each V/rho on FFT grid          0.28 Mb     (   18225)
        Each G-vector array             0.05 Mb     (    5919)
        G-vector shells                 0.01 Mb     (    1769)
     Largest temporary arrays     est. size (Mb)     dimensions
        Auxiliary wavefunctions         0.22 Mb     (     278,   52)
        Each subspace H/S matrix        0.01 Mb     (      26,   26)
        Each <psi_i|beta_j> matrix      0.01 Mb     (      26,   13)

     The potential is recalculated from file :
     ./na_hcp_7.03/_ph0/na_hcp_7.03.save/charge-density.dat

     Starting wfc are   10 atomic +    3 random wfc

     Band Structure Calculation
     Davidson diagonalization with overlap

     ethr =  5.56E-11,  avg # of iterations = 22.8

     total cpu time spent up to now is       84.9 secs

     End of band structure calculation

     Number of k-points >= 100: set verbosity='high' to print the bands.

     the Fermi energy is     1.6867 ev

     Writing output data file na_hcp_7.03.save

                                                                                

     bravais-lattice index     =            4
     lattice parameter (alat)  =       7.0300  a.u.
     unit-cell volume          =     490.5765 (a.u.)^3
     number of atoms/cell      =            2
     number of atomic types    =            1
     kinetic-energy cut-off    =      40.0000  Ry
     charge density cut-off    =     320.0000  Ry
     convergence threshold     =      1.0E-15
     beta                      =       0.7000
     number of iterations used =            4
     Exchange-correlation      = SLA  PW   PBE  PBE ( 1  4  3  4 0 0)


     celldm(1)=    7.03000  celldm(2)=    0.00000  celldm(3)=    1.63046
     celldm(4)=    0.00000  celldm(5)=    0.00000  celldm(6)=    0.00000

     crystal axes: (cart. coord. in units of alat)
               a(1) = (  1.0000  0.0000  0.0000 )  
               a(2) = ( -0.5000  0.8660  0.0000 )  
               a(3) = (  0.0000  0.0000  1.6305 )  

     reciprocal axes: (cart. coord. in units 2 pi/alat)
               b(1) = (  1.0000  0.5774  0.0000 )  
               b(2) = (  0.0000  1.1547  0.0000 )  
               b(3) = (  0.0000  0.0000  0.6133 )  


     Atoms inside the unit cell: 

     Cartesian axes

     site n.  atom      mass           positions (alat units)
        1     Na  22.9900   tau(    1) = (    0.00000    0.00000    0.00000  )
        2     Na  22.9900   tau(    2) = (    0.50000    0.28868    0.81523  )

     Computing dynamical matrix for 
                    q = (   0.0000000   0.2886751  -0.3066619 )
 
      4 Sym.Ops. (no q -> -q+G )


     G cutoff =  400.5907  (   5919 G-vectors)     FFT grid: ( 45, 45, 72)
     G cutoff =  200.2954  (   2099 G-vectors)  smooth grid: ( 30, 30, 48)

     number of k points=  3600  Marzari-Vanderbilt smearing, width (Ry)=  0.0200

     PseudoPot. # 1 for Na read from file:
     ./Na_pbe_v1.uspp.F.UPF
     MD5 check sum: 76a99c7e9422403d3e93cbc85ab7bccb
     Pseudo is Ultrasoft, Zval =  9.0
     Generated by new atomic code, or converted to UPF format
     Using radial grid of  819 points,  5 beta functions with: 
                l(1) =   0
                l(2) =   0
                l(3) =   1
                l(4) =   1
                l(5) =   2
     Q(r) pseudized with  8 coefficients,  rinner =    1.250   1.250   1.250
                                                       1.250   1.250

     Mode symmetry, C_2v (mm2)  point group:


     Atomic displacements:
     There are   6 irreducible representations

     Representation     1      1 modes -A_1  D_1  S_1  To be done

     Representation     2      1 modes -A_1  D_1  S_1  To be done

     Representation     3      1 modes -A_2  D_2  S_2  To be done

     Representation     4      1 modes -B_1  D_3  S_3  To be done

     Representation     5      1 modes -B_2  D_4  S_4  To be done

     Representation     6      1 modes -B_2  D_4  S_4  To be done



     Alpha used in Ewald sum =   2.8000
     PHONON       : 20m 3.40s CPU    21m54.14s WALL



     Representation #  1 mode #   1

     Self-consistent Calculation

      iter #   1 total cpu time :  1317.2 secs   av.it.:   5.7
      thresh= 1.000E-02 alpha_mix =  0.700 |ddv_scf|^2 =  5.883E-05

      iter #   2 total cpu time :  1321.6 secs   av.it.:   7.9
      thresh= 7.670E-04 alpha_mix =  0.700 |ddv_scf|^2 =  3.225E-04

      iter #   3 total cpu time :  1327.2 secs   av.it.:   6.7
      thresh= 1.796E-03 alpha_mix =  0.700 |ddv_scf|^2 =  3.984E-08

      iter #   4 total cpu time :  1331.8 secs   av.it.:   8.8
      thresh= 1.996E-05 alpha_mix =  0.700 |ddv_scf|^2 =  1.991E-09

      iter #   5 total cpu time :  1336.6 secs   av.it.:   8.9
      thresh= 4.462E-06 alpha_mix =  0.700 |ddv_scf|^2 =  7.621E-11

      iter #   6 total cpu time :  1350.5 secs   av.it.:   9.1
      thresh= 8.730E-07 alpha_mix =  0.700 |ddv_scf|^2 =  3.507E-12

      iter #   7 total cpu time :  1356.3 secs   av.it.:   8.8
      thresh= 1.873E-07 alpha_mix =  0.700 |ddv_scf|^2 =  2.337E-12

      iter #   8 total cpu time :  1376.0 secs   av.it.:   7.7
      thresh= 1.529E-07 alpha_mix =  0.700 |ddv_scf|^2 =  1.977E-12

      iter #   9 total cpu time :  1387.0 secs   av.it.:   7.6
      thresh= 1.406E-07 alpha_mix =  0.700 |ddv_scf|^2 =  4.152E-13

      iter #  10 total cpu time :  1391.8 secs   av.it.:   7.5
      thresh= 6.443E-08 alpha_mix =  0.700 |ddv_scf|^2 =  4.517E-16

     End of self-consistent calculation

     Convergence has been achieved 


     Representation #  2 mode #   2

     Self-consistent Calculation

      iter #   1 total cpu time :  1397.4 secs   av.it.:   5.7
      thresh= 1.000E-02 alpha_mix =  0.700 |ddv_scf|^2 =  6.600E-05

      iter #   2 total cpu time :  1402.4 secs   av.it.:   7.9
      thresh= 8.124E-04 alpha_mix =  0.700 |ddv_scf|^2 =  3.662E-04

      iter #   3 total cpu time :  1407.0 secs   av.it.:   6.7
      thresh= 1.914E-03 alpha_mix =  0.700 |ddv_scf|^2 =  5.230E-08

      iter #   4 total cpu time :  1412.1 secs   av.it.:   8.8
      thresh= 2.287E-05 alpha_mix =  0.700 |ddv_scf|^2 =  1.822E-09

      iter #   5 total cpu time :  1416.3 secs   av.it.:   8.9
      thresh= 4.268E-06 alpha_mix =  0.700 |ddv_scf|^2 =  9.937E-11

      iter #   6 total cpu time :  1427.5 secs   av.it.:   9.1
      thresh= 9.968E-07 alpha_mix =  0.700 |ddv_scf|^2 =  3.365E-12

      iter #   7 total cpu time :  1432.1 secs   av.it.:   8.8
      thresh= 1.835E-07 alpha_mix =  0.700 |ddv_scf|^2 =  2.564E-12

      iter #   8 total cpu time :  1436.8 secs   av.it.:   7.7
      thresh= 1.601E-07 alpha_mix =  0.700 |ddv_scf|^2 =  1.190E-12

      iter #   9 total cpu time :  1441.6 secs   av.it.:   7.6
      thresh= 1.091E-07 alpha_mix =  0.700 |ddv_scf|^2 =  2.485E-13

      iter #  10 total cpu time :  1447.0 secs   av.it.:   7.5
      thresh= 4.985E-08 alpha_mix =  0.700 |ddv_scf|^2 =  7.655E-16

     End of self-consistent calculation

     Convergence has been achieved 


     Representation #  3 mode #   3

     Self-consistent Calculation

      iter #   1 total cpu time :  1453.7 secs   av.it.:   5.3
      thresh= 1.000E-02 alpha_mix =  0.700 |ddv_scf|^2 =  3.169E-06

      iter #   2 total cpu time :  1458.0 secs   av.it.:   8.4
      thresh= 1.780E-04 alpha_mix =  0.700 |ddv_scf|^2 =  5.057E-08

[...]
      iter #   4 total cpu time :  2905.7 secs   av.it.:   8.5
      thresh= 1.190E-05 alpha_mix =  0.700 |ddv_scf|^2 =  1.179E-09

      iter #   5 total cpu time :  2914.1 secs   av.it.:   8.6
      thresh= 3.434E-06 alpha_mix =  0.700 |ddv_scf|^2 =  1.444E-11

      iter #   6 total cpu time :  2922.0 secs   av.it.:   8.5
      thresh= 3.800E-07 alpha_mix =  0.700 |ddv_scf|^2 =  8.009E-13

      iter #   7 total cpu time :  2929.7 secs   av.it.:   8.8
      thresh= 8.949E-08 alpha_mix =  0.700 |ddv_scf|^2 =  1.946E-14

      iter #   8 total cpu time :  2938.5 secs   av.it.:   8.9
      thresh= 1.395E-08 alpha_mix =  0.700 |ddv_scf|^2 =  4.099E-16

     End of self-consistent calculation

     Convergence has been achieved 
 
     Number of q in the star =   12
     List of q in the star:
          1   0.250000000   0.433012702   0.153330962
          2   0.250000000   0.433012702  -0.153330962
          3  -0.250000000   0.433012702   0.153330962
          4   0.250000000  -0.433012702  -0.153330962
          5  -0.250000000   0.433012702  -0.153330962
          6  -0.250000000  -0.433012702  -0.153330962
          7   0.500000000   0.000000000   0.153330962
          8   0.250000000  -0.433012702   0.153330962
          9  -0.500000000   0.000000000   0.153330962
         10  -0.250000000  -0.433012702   0.153330962
         11  -0.500000000   0.000000000  -0.153330962
         12   0.500000000   0.000000000  -0.153330962

     Diagonalizing the dynamical matrix

     q = (    0.250000000   0.433012702   0.153330962 ) 

 **************************************************************************
     freq (    1) =       1.957687 [THz] =      65.301395 [cm-1]
     freq (    2) =       2.446462 [THz] =      81.605199 [cm-1]
     freq (    3) =       3.028311 [THz] =     101.013593 [cm-1]
     freq (    4) =       3.059065 [THz] =     102.039435 [cm-1]
     freq (    5) =       3.595127 [THz] =     119.920527 [cm-1]
     freq (    6) =       3.756152 [THz] =     125.291744 [cm-1]
 **************************************************************************

     Mode symmetry, C_s (m)     point group:

     freq (  1 -  1) =         65.3  [cm-1]   --> A'                 
     freq (  2 -  2) =         81.6  [cm-1]   --> A''                
     freq (  3 -  3) =        101.0  [cm-1]   --> A''                
     freq (  4 -  4) =        102.0  [cm-1]   --> A'                 
     freq (  5 -  5) =        119.9  [cm-1]   --> A'                 
     freq (  6 -  6) =        125.3  [cm-1]   --> A''                

     Calculation of q =    0.2500000   0.4330127  -0.3066619
 
     Parallelization info
     --------------------
     sticks:   dense  smooth     PW     G-vecs:    dense   smooth      PW
     Min         134      68     23                 5917     2082     417
     Max         135      69     24                 5922     2098     422
     Sum        1075     547    187                47363    16733    3357
 


     bravais-lattice index     =            4
     lattice parameter (alat)  =       7.0300  a.u.
     unit-cell volume          =     490.5765 (a.u.)^3
     number of atoms/cell      =            2
     number of atomic types    =            1
     number of electrons       =        18.00
     number of Kohn-Sham states=           13
     kinetic-energy cutoff     =      40.0000  Ry
     charge density cutoff     =     320.0000  Ry
     Exchange-correlation      = SLA  PW   PBE  PBE ( 1  4  3  4 0 0)

     celldm(1)=   7.030000  celldm(2)=   0.000000  celldm(3)=   1.630460
     celldm(4)=   0.000000  celldm(5)=   0.000000  celldm(6)=   0.000000

     crystal axes: (cart. coord. in units of alat)
               a(1) = (   1.000000   0.000000   0.000000 )  
               a(2) = (  -0.500000   0.866025   0.000000 )  
               a(3) = (   0.000000   0.000000   1.630460 )  

     reciprocal axes: (cart. coord. in units 2 pi/alat)
               b(1) = (  1.000000  0.577350  0.000000 )  
               b(2) = (  0.000000  1.154701  0.000000 )  
               b(3) = (  0.000000  0.000000  0.613324 )  


     PseudoPot. # 1 for Na read from file:
     ./Na_pbe_v1.uspp.F.UPF
     MD5 check sum: 76a99c7e9422403d3e93cbc85ab7bccb
     Pseudo is Ultrasoft, Zval =  9.0
     Generated by new atomic code, or converted to UPF format
     Using radial grid of  819 points,  5 beta functions with: 
                l(1) =   0
                l(2) =   0
                l(3) =   1
                l(4) =   1
                l(5) =   2
     Q(r) pseudized with  8 coefficients,  rinner =    1.250   1.250   1.250
                                                       1.250   1.250

     atomic species   valence    mass     pseudopotential
        Na             9.00    22.99000     Na( 1.00)

     24 Sym. Ops., with inversion, found



   Cartesian axes

     site n.     atom                  positions (alat units)
         1           Na  tau(   1) = (   0.0000000   0.0000000   0.0000000  )
         2           Na  tau(   2) = (   0.4999999   0.2886751   0.8152300  )

     number of k points=  3600  Marzari-Vanderbilt smearing, width (Ry)=  0.0200

     Number of k-points >= 100: set verbosity='high' to print them.

     Dense  grid:    47363 G-vectors     FFT dimensions: (  45,  45,  72)

     Smooth grid:    16733 G-vectors     FFT dimensions: (  30,  30,  48)

     Largest allocated arrays     est. size (Mb)     dimensions
        Kohn-Sham Wavefunctions         0.06 Mb     (     280,   13)
        NL pseudopotentials             0.11 Mb     (     280,   26)
        Each V/rho on FFT grid          0.28 Mb     (   18225)
        Each G-vector array             0.05 Mb     (    5919)
        G-vector shells                 0.01 Mb     (    1708)
     Largest temporary arrays     est. size (Mb)     dimensions
        Auxiliary wavefunctions         0.22 Mb     (     280,   52)
        Each subspace H/S matrix        0.01 Mb     (      26,   26)
        Each <psi_i|beta_j> matrix      0.01 Mb     (      26,   13)

     The potential is recalculated from file :
     ./na_hcp_7.03/_ph0/na_hcp_7.03.save/charge-density.dat

     Starting wfc are   10 atomic +    3 random wfc

     Band Structure Calculation
     Davidson diagonalization with overlap

     ethr =  5.56E-11,  avg # of iterations = 22.6

     total cpu time spent up to now is      189.5 secs

     End of band structure calculation

     Number of k-points >= 100: set verbosity='high' to print the bands.

     the Fermi energy is     1.6867 ev

     Writing output data file na_hcp_7.03.save

                                                                                

     bravais-lattice index     =            4
     lattice parameter (alat)  =       7.0300  a.u.
     unit-cell volume          =     490.5765 (a.u.)^3
     number of atoms/cell      =            2
     number of atomic types    =            1
     kinetic-energy cut-off    =      40.0000  Ry
     charge density cut-off    =     320.0000  Ry
     convergence threshold     =      1.0E-15
     beta                      =       0.7000
     number of iterations used =            4
     Exchange-correlation      = SLA  PW   PBE  PBE ( 1  4  3  4 0 0)


     celldm(1)=    7.03000  celldm(2)=    0.00000  celldm(3)=    1.63046
     celldm(4)=    0.00000  celldm(5)=    0.00000  celldm(6)=    0.00000

     crystal axes: (cart. coord. in units of alat)
               a(1) = (  1.0000  0.0000  0.0000 )  
               a(2) = ( -0.5000  0.8660  0.0000 )  
               a(3) = (  0.0000  0.0000  1.6305 )  

     reciprocal axes: (cart. coord. in units 2 pi/alat)
               b(1) = (  1.0000  0.5774  0.0000 )  
               b(2) = (  0.0000  1.1547  0.0000 )  
               b(3) = (  0.0000  0.0000  0.6133 )  


     Atoms inside the unit cell: 

     Cartesian axes

     site n.  atom      mass           positions (alat units)
        1     Na  22.9900   tau(    1) = (    0.00000    0.00000    0.00000  )
        2     Na  22.9900   tau(    2) = (    0.50000    0.28868    0.81523  )

     Computing dynamical matrix for 
                    q = (   0.2500000   0.4330127  -0.3066619 )
 
      4 Sym.Ops. (no q -> -q+G )


     G cutoff =  400.5907  (   5919 G-vectors)     FFT grid: ( 45, 45, 72)
     G cutoff =  200.2954  (   2095 G-vectors)  smooth grid: ( 30, 30, 48)

     number of k points=  3600  Marzari-Vanderbilt smearing, width (Ry)=  0.0200

     PseudoPot. # 1 for Na read from file:
     ./Na_pbe_v1.uspp.F.UPF
     MD5 check sum: 76a99c7e9422403d3e93cbc85ab7bccb
     Pseudo is Ultrasoft, Zval =  9.0
     Generated by new atomic code, or converted to UPF format
     Using radial grid of  819 points,  5 beta functions with: 
                l(1) =   0
                l(2) =   0
                l(3) =   1
                l(4) =   1
                l(5) =   2
     Q(r) pseudized with  8 coefficients,  rinner =    1.250   1.250   1.250
                                                       1.250   1.250


     Atomic displacements:
     There are   3 irreducible representations

     Representation     1      2 modes -  To be done

     Representation     2      2 modes -  To be done

     Representation     3      2 modes -  To be done



     Alpha used in Ewald sum =   2.8000
     PHONON       : 45m 1.05s CPU    49m17.06s WALL



     Representation #  1 modes #   1  2

     Self-consistent Calculation

      iter #   1 total cpu time :  2969.1 secs   av.it.:   5.7
      thresh= 1.000E-02 alpha_mix =  0.700 |ddv_scf|^2 =  2.990E-06

      iter #   2 total cpu time :  2983.1 secs   av.it.:   9.0
      thresh= 1.729E-04 alpha_mix =  0.700 |ddv_scf|^2 =  1.668E-06

      iter #   3 total cpu time :  2992.4 secs   av.it.:   8.1
      thresh= 1.292E-04 alpha_mix =  0.700 |ddv_scf|^2 =  1.095E-08

      iter #   4 total cpu time :  3005.2 secs   av.it.:   9.3
      thresh= 1.047E-05 alpha_mix =  0.700 |ddv_scf|^2 =  3.033E-10

      iter #   5 total cpu time :  3014.2 secs   av.it.:   9.6
      thresh= 1.742E-06 alpha_mix =  0.700 |ddv_scf|^2 =  1.660E-11

      iter #   6 total cpu time :  3022.4 secs   av.it.:   9.8
      thresh= 4.074E-07 alpha_mix =  0.700 |ddv_scf|^2 =  1.126E-12

      iter #   7 total cpu time :  3032.8 secs   av.it.:   9.8
      thresh= 1.061E-07 alpha_mix =  0.700 |ddv_scf|^2 =  1.208E-14

      iter #   8 total cpu time :  3042.7 secs   av.it.:   9.5
      thresh= 1.099E-08 alpha_mix =  0.700 |ddv_scf|^2 =  3.094E-16

     End of self-consistent calculation

     Convergence has been achieved 


     Representation #  2 modes #   3  4

     Self-consistent Calculation

      iter #   1 total cpu time :  3054.5 secs   av.it.:   5.7
      thresh= 1.000E-02 alpha_mix =  0.700 |ddv_scf|^2 =  2.313E-06

      iter #   2 total cpu time :  3065.1 secs   av.it.:   9.0
      thresh= 1.521E-04 alpha_mix =  0.700 |ddv_scf|^2 =  1.155E-06

      iter #   3 total cpu time :  3073.9 secs   av.it.:   8.2
      thresh= 1.075E-04 alpha_mix =  0.700 |ddv_scf|^2 =  1.322E-08

      iter #   4 total cpu time :  3082.8 secs   av.it.:   9.2
      thresh= 1.150E-05 alpha_mix =  0.700 |ddv_scf|^2 =  2.895E-10

      iter #   5 total cpu time :  3094.1 secs   av.it.:   9.4
      thresh= 1.702E-06 alpha_mix =  0.700 |ddv_scf|^2 =  2.135E-11

      iter #   6 total cpu time :  3103.9 secs   av.it.:   9.5
      thresh= 4.620E-07 alpha_mix =  0.700 |ddv_scf|^2 =  7.952E-13

      iter #   7 total cpu time :  3112.5 secs   av.it.:  10.0
      thresh= 8.917E-08 alpha_mix =  0.700 |ddv_scf|^2 =  1.475E-14

      iter #   8 total cpu time :  3121.3 secs   av.it.:   9.8
      thresh= 1.215E-08 alpha_mix =  0.700 |ddv_scf|^2 =  8.926E-16

     End of self-consistent calculation

     Convergence has been achieved 


     Representation #  3 modes #   5  6

     Self-consistent Calculation

      iter #   1 total cpu time :  3133.0 secs   av.it.:   5.7
      thresh= 1.000E-02 alpha_mix =  0.700 |ddv_scf|^2 =  2.206E-06

      iter #   2 total cpu time :  3143.3 secs   av.it.:   9.0
      thresh= 1.485E-04 alpha_mix =  0.700 |ddv_scf|^2 =  8.827E-07

      iter #   3 total cpu time :  3152.6 secs   av.it.:   8.3
      thresh= 9.395E-05 alpha_mix =  0.700 |ddv_scf|^2 =  2.397E-08

      iter #   4 total cpu time :  3161.0 secs   av.it.:   8.9
      thresh= 1.548E-05 alpha_mix =  0.700 |ddv_scf|^2 =  3.996E-10

      iter #   5 total cpu time :  3171.6 secs   av.it.:   9.5
      thresh= 1.999E-06 alpha_mix =  0.700 |ddv_scf|^2 =  1.063E-11

      iter #   6 total cpu time :  3181.7 secs   av.it.:   9.7
      thresh= 3.261E-07 alpha_mix =  0.700 |ddv_scf|^2 =  8.345E-13

      iter #   7 total cpu time :  3191.7 secs   av.it.:   9.9
      thresh= 9.135E-08 alpha_mix =  0.700 |ddv_scf|^2 =  1.997E-14

      iter #   8 total cpu time :  3202.2 secs   av.it.:   9.9
      thresh= 1.413E-08 alpha_mix =  0.700 |ddv_scf|^2 =  2.136E-16

     End of self-consistent calculation

     Convergence has been achieved 
 
     Number of q in the star =    6
     List of q in the star:
          1   0.250000000   0.433012702  -0.306661924
          2  -0.250000000   0.433012702  -0.306661924
          3   0.250000000  -0.433012702   0.306661924
          4  -0.250000000  -0.433012702   0.306661924
          5   0.500000000   0.000000000  -0.306661924
          6  -0.500000000   0.000000000  -0.306661924

     Diagonalizing the dynamical matrix

     q = (    0.250000000   0.433012702  -0.306661924 ) 

 **************************************************************************
     freq (    1) =       2.048375 [THz] =      68.326424 [cm-1]
     freq (    2) =       2.048375 [THz] =      68.326424 [cm-1]
     freq (    3) =       3.067259 [THz] =     102.312738 [cm-1]
     freq (    4) =       3.067259 [THz] =     102.312738 [cm-1]
     freq (    5) =       3.813137 [THz] =     127.192552 [cm-1]
     freq (    6) =       3.813137 [THz] =     127.192552 [cm-1]
 **************************************************************************
 
     init_run     :      1.56s CPU      1.76s WALL (      11 calls)
     electrons    :    139.64s CPU    142.70s WALL (      11 calls)

     Called by init_run:
     wfcinit      :      0.00s CPU      0.11s WALL (      11 calls)
     potinit      :      0.33s CPU      0.41s WALL (      11 calls)

     Called by electrons:
     c_bands      :    139.52s CPU    142.58s WALL (      11 calls)
     v_of_rho     :      0.10s CPU      0.11s WALL (      12 calls)
     newd         :      0.12s CPU      0.14s WALL (      12 calls)

     Called by c_bands:
     init_us_2    :      3.14s CPU      3.40s WALL (   48101 calls)
     cegterg      :     72.42s CPU     74.08s WALL (    2981 calls)

     Called by sum_band:

     Called by *egterg:
     h_psi        :     42.61s CPU     43.45s WALL (   48725 calls)
     s_psi        :     43.90s CPU     46.47s WALL ( 1179189 calls)
     g_psi        :      0.50s CPU      0.45s WALL (   44132 calls)
     cdiaghg      :     20.71s CPU     21.28s WALL (   45744 calls)

     Called by h_psi:
     add_vuspsi   :     27.14s CPU     28.47s WALL (  592789 calls)

     General routines
     calbec       :     64.40s CPU     68.06s WALL ( 1257693 calls)
     fft          :      2.88s CPU      2.93s WALL (    8976 calls)
     ffts         :      1.10s CPU      1.11s WALL (    7229 calls)
     fftw         :   1357.88s CPU   1384.84s WALL ( 9186804 calls)
     interpolate  :      0.83s CPU      0.79s WALL (    1237 calls)
     davcio       :      9.89s CPU    181.84s WALL (  215617 calls)
 
     Parallel routines
     fft_scatter  :    984.00s CPU    994.89s WALL ( 9203009 calls)
 
     PHONON       : 48m44.33s CPU    53m23.43s WALL

     INITIALIZATION: 
     phq_setup    :      0.39s CPU      0.60s WALL (      12 calls)
     phq_init     :     15.88s CPU     17.16s WALL (      12 calls)
 
     phq_init     :     15.88s CPU     17.16s WALL (      12 calls)
     init_vloc    :      0.12s CPU      0.12s WALL (      12 calls)
     init_us_1    :      0.45s CPU      0.44s WALL (      12 calls)
     newd         :      0.12s CPU      0.14s WALL (      12 calls)
     dvanqq       :      1.40s CPU      1.41s WALL (      12 calls)
     drho         :      9.92s CPU     10.21s WALL (      12 calls)
 
     DYNAMICAL MATRIX:
     dynmat0      :      2.72s CPU      2.97s WALL (      12 calls)
     phqscf       :   2720.42s CPU   2961.39s WALL (      12 calls)
     dynmatrix    :     17.31s CPU     17.55s WALL (      12 calls)
 
     phqscf       :   2720.42s CPU   2961.39s WALL (      12 calls)
     solve_linter :   2717.75s CPU   2955.62s WALL (      58 calls)
     drhodv       :      2.49s CPU      2.78s WALL (      58 calls)
 
     dynmat0      :      2.72s CPU      2.97s WALL (      12 calls)
     dynmat_us    :      2.68s CPU      2.72s WALL (      12 calls)
     d2ionq       :      0.03s CPU      0.03s WALL (      12 calls)
 
     dynmat_us    :      2.68s CPU      2.72s WALL (      12 calls)
     addusdynmat  :      0.00s CPU      0.00s WALL (      12 calls)
 
     phqscf       :   2720.42s CPU   2961.39s WALL (      12 calls)
     solve_linter :   2717.75s CPU   2955.62s WALL (      58 calls)
 
     solve_linter :   2717.75s CPU   2955.62s WALL (      58 calls)
     dvqpsi_us    :     12.22s CPU     13.08s WALL (    4932 calls)
     ortho        :     44.21s CPU     45.07s WALL (   42336 calls)
     cgsolve      :    669.21s CPU    698.03s WALL (   42336 calls)
     incdrhoscf   :    889.19s CPU    895.87s WALL (   42336 calls)
     addusddens   :      7.53s CPU      7.69s WALL (     534 calls)
     vpsifft      :     45.14s CPU     48.62s WALL (   37404 calls)
     dv_of_drho   :      3.77s CPU      3.83s WALL (     569 calls)
     mix_pot      :      3.88s CPU     13.40s WALL (     476 calls)
     ef_shift     :      0.04s CPU      0.54s WALL (      29 calls)
     localdos     :      0.29s CPU      0.30s WALL (       4 calls)
     psymdvscf    :     28.61s CPU     28.73s WALL (     476 calls)
     newdq        :      7.22s CPU      7.27s WALL (     476 calls)
     adddvscf     :      3.34s CPU      3.58s WALL (   37404 calls)
     drhodvus     :      0.08s CPU      0.08s WALL (      58 calls)
 
     dvqpsi_us    :     12.22s CPU     13.08s WALL (    4932 calls)
     dvqpsi_us_on :      3.64s CPU      3.79s WALL (    4932 calls)
 
     cgsolve      :    669.21s CPU    698.03s WALL (   42336 calls)
     ch_psi       :    646.05s CPU    673.64s WALL (  544064 calls)
 
     ch_psi       :    646.05s CPU    673.64s WALL (  544064 calls)
     h_psiq       :    562.94s CPU    587.06s WALL (  544064 calls)
     last         :     79.54s CPU     82.96s WALL (  544064 calls)
 
     h_psiq       :    562.94s CPU    587.06s WALL (  544064 calls)
     firstfft     :    266.99s CPU    277.59s WALL ( 3457495 calls)
     secondfft    :    195.13s CPU    203.50s WALL ( 3457495 calls)
     add_vuspsi   :     27.14s CPU     28.47s WALL (  592789 calls)
 
     incdrhoscf   :    889.19s CPU    895.87s WALL (   42336 calls)
     addusdbec    :      4.00s CPU      4.37s WALL (   47268 calls)
 
     drhodvus     :      0.08s CPU      0.08s WALL (      58 calls)
 
      General routines
     calbec       :     64.40s CPU     68.06s WALL ( 1257693 calls)
     fft          :      2.88s CPU      2.93s WALL (    8976 calls)
     ffts         :      1.10s CPU      1.11s WALL (    7229 calls)
     fftw         :   1357.88s CPU   1384.84s WALL ( 9186804 calls)
     davcio       :      9.89s CPU    181.84s WALL (  215617 calls)
     write_rec    :      1.17s CPU     17.76s WALL (     534 calls)
 
 
     PHONON       : 48m44.33s CPU    53m23.43s WALL

 
   This run was terminated on:   5:30: 5  28Mar2018            

=------------------------------------------------------------------------------=
   JOB DONE.
=------------------------------------------------------------------------------=
Application 30378978 resources: utime ~568857s, stime ~7679s, Rss ~58916, inblocks ~3901370104, outblocks ~1354271232
