
     Program PHONON v.5.4.0 starts on 27Mar2018 at 23:30:38 

     This program is part of the open-source Quantum ESPRESSO suite
     for quantum simulation of materials; please cite
         "P. Giannozzi et al., J. Phys.:Condens. Matter 21 395502 (2009);
          URL http://www.quantum-espresso.org", 
     in publications or presentations arising from this work. More details at
     http://www.quantum-espresso.org/quote

     Parallel version (MPI & OpenMP), running on     192 processor cores
     Number of MPI processes:               192
     Threads/MPI process:                     1
     K-points division:     npool     =      24
     R & G space division:  proc/nbgrp/npool/nimage =       8

     Reading data from directory:
     ./na_hcp_6.94/na_hcp_6.94.save

   Info: using nr1, nr2, nr3 values from input

   Info: using nr1, nr2, nr3 values from input

     IMPORTANT: XC functional enforced from input :
     Exchange-correlation      = SLA  PW   PBE  PBE ( 1  4  3  4 0 0)
     Any further DFT definition will be discarded
     Please, verify this is what you really want

 
     Parallelization info
     --------------------
     sticks:   dense  smooth     PW     G-vecs:    dense   smooth      PW
     Min         133      64     20                 5697     2002     340
     Max         134      65     21                 5700     2021     345
     Sum        1069     517    163                45593    16089    2731
 


     Dynamical matrices for ( 4, 4, 4)  uniform grid of q-points
     (  12q-points):
       N         xq(1)         xq(2)         xq(3) 
       1   0.000000000   0.000000000   0.000000000
       2   0.000000000   0.000000000   0.153330962
       3   0.000000000   0.000000000  -0.306661924
       4   0.000000000   0.288675135   0.000000000
       5   0.000000000   0.288675135   0.153330962
       6   0.000000000   0.288675135  -0.306661924
       7   0.000000000  -0.577350269   0.000000000
       8   0.000000000  -0.577350269   0.153330962
       9   0.000000000  -0.577350269  -0.306661924
      10   0.250000000   0.433012702   0.000000000
      11   0.250000000   0.433012702   0.153330962
      12   0.250000000   0.433012702  -0.306661924

     Calculation of q =    0.0000000   0.0000000   0.0000000

                                                                                

     bravais-lattice index     =            4
     lattice parameter (alat)  =       6.9400  a.u.
     unit-cell volume          =     471.9752 (a.u.)^3
     number of atoms/cell      =            2
     number of atomic types    =            1
     kinetic-energy cut-off    =      40.0000  Ry
     charge density cut-off    =     320.0000  Ry
     convergence threshold     =      1.0E-15
     beta                      =       0.7000
     number of iterations used =            4
     Exchange-correlation      = SLA  PW   PBE  PBE ( 1  4  3  4 0 0)


     celldm(1)=    6.94000  celldm(2)=    0.00000  celldm(3)=    1.63046
     celldm(4)=    0.00000  celldm(5)=    0.00000  celldm(6)=    0.00000

     crystal axes: (cart. coord. in units of alat)
               a(1) = (  1.0000  0.0000  0.0000 )  
               a(2) = ( -0.5000  0.8660  0.0000 )  
               a(3) = (  0.0000  0.0000  1.6305 )  

     reciprocal axes: (cart. coord. in units 2 pi/alat)
               b(1) = (  1.0000  0.5774  0.0000 )  
               b(2) = (  0.0000  1.1547  0.0000 )  
               b(3) = (  0.0000  0.0000  0.6133 )  


     Atoms inside the unit cell: 

     Cartesian axes

     site n.  atom      mass           positions (alat units)
        1     Na  22.9900   tau(    1) = (    0.00000    0.00000    0.00000  )
        2     Na  22.9900   tau(    2) = (    0.50000    0.28868    0.81523  )

     Computing dynamical matrix for 
                    q = (   0.0000000   0.0000000   0.0000000 )
 
     13 Sym.Ops. (with q -> -q+G )


     G cutoff =  390.3994  (   5699 G-vectors)     FFT grid: ( 40, 40, 72)
     G cutoff =  195.1997  (   2007 G-vectors)  smooth grid: ( 27, 27, 45)

     number of k points=   366  Marzari-Vanderbilt smearing, width (Ry)=  0.0200

     PseudoPot. # 1 for Na read from file:
     ./Na_pbe_v1.uspp.F.UPF
     MD5 check sum: 76a99c7e9422403d3e93cbc85ab7bccb
     Pseudo is Ultrasoft, Zval =  9.0
     Generated by new atomic code, or converted to UPF format
     Using radial grid of  819 points,  5 beta functions with: 
                l(1) =   0
                l(2) =   0
                l(3) =   1
                l(4) =   1
                l(5) =   2
     Q(r) pseudized with  8 coefficients,  rinner =    1.250   1.250   1.250
                                                       1.250   1.250

     Mode symmetry, D_3h (-62m) point group:


     Atomic displacements:
     There are   4 irreducible representations

     Representation     1      2 modes -E'  To be done

     Representation     2      2 modes -E'  To be done

     Representation     3      1 modes -A''2  To be done

     Representation     4      1 modes -A''2  To be done



     Alpha used in Ewald sum =   2.8000
     PHONON       :     5.66s CPU         8.79s WALL



     Representation #  1 modes #   1  2

     Self-consistent Calculation
 
     Pert. #  1: Fermi energy shift (Ry) =     0.0000E+00     0.0000E+00
     Pert. #  2: Fermi energy shift (Ry) =    -2.1684E-19     0.0000E+00

      iter #   1 total cpu time :    10.1 secs   av.it.:   5.2
      thresh= 1.000E-02 alpha_mix =  0.700 |ddv_scf|^2 =  9.566E-07
 
     Pert. #  1: Fermi energy shift (Ry) =     0.0000E+00     0.0000E+00
     Pert. #  2: Fermi energy shift (Ry) =     1.3553E-20     0.0000E+00

      iter #   2 total cpu time :    12.2 secs   av.it.:   8.7
      thresh= 9.781E-05 alpha_mix =  0.700 |ddv_scf|^2 =  1.715E-08
 
     Pert. #  1: Fermi energy shift (Ry) =     0.0000E+00     0.0000E+00
     Pert. #  2: Fermi energy shift (Ry) =    -1.1294E-21     0.0000E+00

      iter #   3 total cpu time :    13.9 secs   av.it.:   8.9
      thresh= 1.310E-05 alpha_mix =  0.700 |ddv_scf|^2 =  4.365E-10
 
     Pert. #  1: Fermi energy shift (Ry) =     0.0000E+00     0.0000E+00
     Pert. #  2: Fermi energy shift (Ry) =     1.4117E-21     0.0000E+00

      iter #   4 total cpu time :    15.5 secs   av.it.:   8.5
      thresh= 2.089E-06 alpha_mix =  0.700 |ddv_scf|^2 =  1.552E-12
 
     Pert. #  1: Fermi energy shift (Ry) =     0.0000E+00     0.0000E+00
     Pert. #  2: Fermi energy shift (Ry) =     2.5411E-21     0.0000E+00

      iter #   5 total cpu time :    17.3 secs   av.it.:   8.8
      thresh= 1.246E-07 alpha_mix =  0.700 |ddv_scf|^2 =  5.925E-15
 
     Pert. #  1: Fermi energy shift (Ry) =     0.0000E+00     0.0000E+00
     Pert. #  2: Fermi energy shift (Ry) =     3.9528E-21     0.0000E+00

      iter #   6 total cpu time :    19.5 secs   av.it.:   8.7
      thresh= 7.697E-09 alpha_mix =  0.700 |ddv_scf|^2 =  1.049E-16

     End of self-consistent calculation

     Convergence has been achieved 


     Representation #  2 modes #   3  4

     Self-consistent Calculation
 
     Pert. #  1: Fermi energy shift (Ry) =    -3.6140E-19     3.1347E-37
     Pert. #  2: Fermi energy shift (Ry) =     3.6140E-20     0.0000E+00

      iter #   1 total cpu time :    21.2 secs   av.it.:   5.2
      thresh= 1.000E-02 alpha_mix =  0.700 |ddv_scf|^2 =  9.565E-07
 
     Pert. #  1: Fermi energy shift (Ry) =    -1.8070E-20     0.0000E+00
     Pert. #  2: Fermi energy shift (Ry) =     1.3553E-20     0.0000E+00

      iter #   2 total cpu time :    22.6 secs   av.it.:   8.7
      thresh= 9.780E-05 alpha_mix =  0.700 |ddv_scf|^2 =  1.715E-08
 
     Pert. #  1: Fermi energy shift (Ry) =    -4.5175E-21     2.3915E-42
     Pert. #  2: Fermi energy shift (Ry) =     0.0000E+00     0.0000E+00

      iter #   3 total cpu time :    24.2 secs   av.it.:   8.9
      thresh= 1.310E-05 alpha_mix =  0.700 |ddv_scf|^2 =  4.378E-10
 
     Pert. #  1: Fermi energy shift (Ry) =    -1.6941E-21     7.6530E-41
     Pert. #  2: Fermi energy shift (Ry) =    -5.6469E-22     0.0000E+00

      iter #   4 total cpu time :    25.9 secs   av.it.:   8.5
      thresh= 2.092E-06 alpha_mix =  0.700 |ddv_scf|^2 =  1.544E-12
 
     Pert. #  1: Fermi energy shift (Ry) =    -2.8234E-21    -1.1958E-42
     Pert. #  2: Fermi energy shift (Ry) =    -1.1294E-21     0.0000E+00

      iter #   5 total cpu time :    27.5 secs   av.it.:   8.9
      thresh= 1.243E-07 alpha_mix =  0.700 |ddv_scf|^2 =  5.934E-15
 
     Pert. #  1: Fermi energy shift (Ry) =    -2.8234E-21    -2.3915E-42
     Pert. #  2: Fermi energy shift (Ry) =    -3.1058E-21     0.0000E+00

      iter #   6 total cpu time :    29.7 secs   av.it.:   8.7
      thresh= 7.703E-09 alpha_mix =  0.700 |ddv_scf|^2 =  1.051E-16

     End of self-consistent calculation

     Convergence has been achieved 


     Representation #  3 mode #   5

     Self-consistent Calculation
 
     Pert. #  1: Fermi energy shift (Ry) =     0.0000E+00     0.0000E+00

      iter #   1 total cpu time :    34.0 secs   av.it.:   5.5
      thresh= 1.000E-02 alpha_mix =  0.700 |ddv_scf|^2 =  2.078E-05
 
     Pert. #  1: Fermi energy shift (Ry) =    -1.1294E-21     0.0000E+00

      iter #   2 total cpu time :    35.0 secs   av.it.:   8.0
      thresh= 4.559E-04 alpha_mix =  0.700 |ddv_scf|^2 =  1.157E-05
 
     Pert. #  1: Fermi energy shift (Ry) =    -5.6469E-22     0.0000E+00

      iter #   3 total cpu time :    35.9 secs   av.it.:   7.0
      thresh= 3.402E-04 alpha_mix =  0.700 |ddv_scf|^2 =  1.935E-08
 
     Pert. #  1: Fermi energy shift (Ry) =     0.0000E+00     0.0000E+00

      iter #   4 total cpu time :    37.0 secs   av.it.:   8.4
      thresh= 1.391E-05 alpha_mix =  0.700 |ddv_scf|^2 =  3.932E-10
 
     Pert. #  1: Fermi energy shift (Ry) =    -2.8234E-22     0.0000E+00

      iter #   5 total cpu time :    38.2 secs   av.it.:   7.9
      thresh= 1.983E-06 alpha_mix =  0.700 |ddv_scf|^2 =  3.081E-12
 
     Pert. #  1: Fermi energy shift (Ry) =     2.8234E-22     0.0000E+00

      iter #   6 total cpu time :    39.4 secs   av.it.:   7.9
      thresh= 1.755E-07 alpha_mix =  0.700 |ddv_scf|^2 =  3.161E-14
 
     Pert. #  1: Fermi energy shift (Ry) =    -2.8234E-22     0.0000E+00

      iter #   7 total cpu time :    41.3 secs   av.it.:   8.2
      thresh= 1.778E-08 alpha_mix =  0.700 |ddv_scf|^2 =  5.964E-16

     End of self-consistent calculation

     Convergence has been achieved 


     Representation #  4 mode #   6

     Self-consistent Calculation
 
     Pert. #  1: Fermi energy shift (Ry) =    -9.0350E-21     0.0000E+00

      iter #   1 total cpu time :    42.7 secs   av.it.:   5.5
      thresh= 1.000E-02 alpha_mix =  0.700 |ddv_scf|^2 =  2.078E-05
 
     Pert. #  1: Fermi energy shift (Ry) =    -1.1294E-21     0.0000E+00

      iter #   2 total cpu time :    43.9 secs   av.it.:   8.0
      thresh= 4.559E-04 alpha_mix =  0.700 |ddv_scf|^2 =  1.157E-05
 
     Pert. #  1: Fermi energy shift (Ry) =     5.6469E-22     0.0000E+00

      iter #   3 total cpu time :    44.5 secs   av.it.:   7.0
      thresh= 3.402E-04 alpha_mix =  0.700 |ddv_scf|^2 =  1.935E-08
 
     Pert. #  1: Fermi energy shift (Ry) =    -1.4117E-22     0.0000E+00

      iter #   4 total cpu time :    45.0 secs   av.it.:   8.4
      thresh= 1.391E-05 alpha_mix =  0.700 |ddv_scf|^2 =  3.934E-10
 
     Pert. #  1: Fermi energy shift (Ry) =    -2.8234E-22     0.0000E+00

      iter #   5 total cpu time :    45.5 secs   av.it.:   7.9
      thresh= 1.983E-06 alpha_mix =  0.700 |ddv_scf|^2 =  3.081E-12
 
     Pert. #  1: Fermi energy shift (Ry) =    -2.8234E-22     0.0000E+00

      iter #   6 total cpu time :    46.0 secs   av.it.:   7.9
      thresh= 1.755E-07 alpha_mix =  0.700 |ddv_scf|^2 =  3.161E-14
 
     Pert. #  1: Fermi energy shift (Ry) =     0.0000E+00     0.0000E+00

      iter #   7 total cpu time :    46.5 secs   av.it.:   8.2
      thresh= 1.778E-08 alpha_mix =  0.700 |ddv_scf|^2 =  5.964E-16

     End of self-consistent calculation

     Convergence has been achieved 
 
     Number of q in the star =    1
     List of q in the star:
          1   0.000000000   0.000000000   0.000000000

     Diagonalizing the dynamical matrix

     q = (    0.000000000   0.000000000   0.000000000 ) 

 **************************************************************************
     freq (    1) =      -0.543154 [THz] =     -18.117674 [cm-1]
     freq (    2) =      -0.543154 [THz] =     -18.117674 [cm-1]
     freq (    3) =       0.572684 [THz] =      19.102687 [cm-1]
     freq (    4) =       1.741130 [THz] =      58.077853 [cm-1]
     freq (    5) =       1.741130 [THz] =      58.077853 [cm-1]
     freq (    6) =       4.211962 [THz] =     140.495931 [cm-1]
 **************************************************************************

     Mode symmetry, D_3h (-62m) point group:

     freq (  1 -  2) =        -18.1  [cm-1]   --> E'              I+R
     freq (  3 -  3) =         19.1  [cm-1]   --> A''2            I  
     freq (  4 -  5) =         58.1  [cm-1]   --> E'              I+R
     freq (  6 -  6) =        140.5  [cm-1]   --> A''2            I  

     Calculation of q =    0.0000000   0.0000000   0.1533310
 
     Parallelization info
     --------------------
     sticks:   dense  smooth     PW     G-vecs:    dense   smooth      PW
     Min         133      64     20                 5697     2004     346
     Max         134      65     21                 5700     2019     351
     Sum        1069     517    163                45593    16089    2779
 


     bravais-lattice index     =            4
     lattice parameter (alat)  =       6.9400  a.u.
     unit-cell volume          =     471.9752 (a.u.)^3
     number of atoms/cell      =            2
     number of atomic types    =            1
     number of electrons       =        18.00
     number of Kohn-Sham states=           13
     kinetic-energy cutoff     =      40.0000  Ry
     charge density cutoff     =     320.0000  Ry
     Exchange-correlation      = SLA  PW   PBE  PBE ( 1  4  3  4 0 0)

     celldm(1)=   6.940000  celldm(2)=   0.000000  celldm(3)=   1.630460
     celldm(4)=   0.000000  celldm(5)=   0.000000  celldm(6)=   0.000000

     crystal axes: (cart. coord. in units of alat)
               a(1) = (   1.000000   0.000000   0.000000 )  
               a(2) = (  -0.500000   0.866025   0.000000 )  
               a(3) = (   0.000000   0.000000   1.630460 )  

     reciprocal axes: (cart. coord. in units 2 pi/alat)
               b(1) = (  1.000000  0.577350  0.000000 )  
               b(2) = (  0.000000  1.154701  0.000000 )  
               b(3) = (  0.000000  0.000000  0.613324 )  


     PseudoPot. # 1 for Na read from file:
     ./Na_pbe_v1.uspp.F.UPF
     MD5 check sum: 76a99c7e9422403d3e93cbc85ab7bccb
     Pseudo is Ultrasoft, Zval =  9.0
     Generated by new atomic code, or converted to UPF format
     Using radial grid of  819 points,  5 beta functions with: 
                l(1) =   0
                l(2) =   0
                l(3) =   1
                l(4) =   1
                l(5) =   2
     Q(r) pseudized with  8 coefficients,  rinner =    1.250   1.250   1.250
                                                       1.250   1.250

     atomic species   valence    mass     pseudopotential
        Na             9.00    22.99000     Na( 1.00)

     12 Sym. Ops. (no inversion) found



   Cartesian axes

     site n.     atom                  positions (alat units)
         1           Na  tau(   1) = (   0.0000000   0.0000000   0.0000000  )
         2           Na  tau(   2) = (   0.4999999   0.2886751   0.8152300  )

     number of k points=  2616  Marzari-Vanderbilt smearing, width (Ry)=  0.0200

     Number of k-points >= 100: set verbosity='high' to print them.

     Dense  grid:    45593 G-vectors     FFT dimensions: (  40,  40,  72)

     Smooth grid:    16089 G-vectors     FFT dimensions: (  27,  27,  45)

     Largest allocated arrays     est. size (Mb)     dimensions
        Kohn-Sham Wavefunctions         0.05 Mb     (     268,   13)
        NL pseudopotentials             0.11 Mb     (     268,   26)
        Each V/rho on FFT grid          0.22 Mb     (   14400)
        Each G-vector array             0.04 Mb     (    5699)
        G-vector shells                 0.01 Mb     (    1700)
     Largest temporary arrays     est. size (Mb)     dimensions
        Auxiliary wavefunctions         0.21 Mb     (     268,   52)
        Each subspace H/S matrix        0.01 Mb     (      26,   26)
        Each <psi_i|beta_j> matrix      0.01 Mb     (      26,   13)

     The potential is recalculated from file :
     ./na_hcp_6.94/_ph0/na_hcp_6.94.save/charge-density.dat

     Starting wfc are   10 atomic +    3 random wfc

     Band Structure Calculation
     Davidson diagonalization with overlap

     ethr =  5.56E-11,  avg # of iterations = 23.0

     total cpu time spent up to now is        7.7 secs

     End of band structure calculation

     Number of k-points >= 100: set verbosity='high' to print the bands.

     the Fermi energy is     1.8543 ev

     Writing output data file na_hcp_6.94.save

                                                                                

     bravais-lattice index     =            4
     lattice parameter (alat)  =       6.9400  a.u.
     unit-cell volume          =     471.9752 (a.u.)^3
     number of atoms/cell      =            2
     number of atomic types    =            1
     kinetic-energy cut-off    =      40.0000  Ry
     charge density cut-off    =     320.0000  Ry
     convergence threshold     =      1.0E-15
     beta                      =       0.7000
     number of iterations used =            4
     Exchange-correlation      = SLA  PW   PBE  PBE ( 1  4  3  4 0 0)


     celldm(1)=    6.94000  celldm(2)=    0.00000  celldm(3)=    1.63046
     celldm(4)=    0.00000  celldm(5)=    0.00000  celldm(6)=    0.00000

     crystal axes: (cart. coord. in units of alat)
               a(1) = (  1.0000  0.0000  0.0000 )  
               a(2) = ( -0.5000  0.8660  0.0000 )  
               a(3) = (  0.0000  0.0000  1.6305 )  

     reciprocal axes: (cart. coord. in units 2 pi/alat)
               b(1) = (  1.0000  0.5774  0.0000 )  
               b(2) = (  0.0000  1.1547  0.0000 )  
               b(3) = (  0.0000  0.0000  0.6133 )  


     Atoms inside the unit cell: 

     Cartesian axes

     site n.  atom      mass           positions (alat units)
        1     Na  22.9900   tau(    1) = (    0.00000    0.00000    0.00000  )
        2     Na  22.9900   tau(    2) = (    0.50000    0.28868    0.81523  )

     Computing dynamical matrix for 
                    q = (   0.0000000   0.0000000   0.1533310 )
 
      6 Sym.Ops. (no q -> -q+G )


     G cutoff =  390.3994  (   5699 G-vectors)     FFT grid: ( 40, 40, 72)
     G cutoff =  195.1997  (   2005 G-vectors)  smooth grid: ( 27, 27, 45)

     number of k points=  2616  Marzari-Vanderbilt smearing, width (Ry)=  0.0200

     PseudoPot. # 1 for Na read from file:
     ./Na_pbe_v1.uspp.F.UPF
     MD5 check sum: 76a99c7e9422403d3e93cbc85ab7bccb
     Pseudo is Ultrasoft, Zval =  9.0
     Generated by new atomic code, or converted to UPF format
     Using radial grid of  819 points,  5 beta functions with: 
                l(1) =   0
                l(2) =   0
                l(3) =   1
                l(4) =   1
                l(5) =   2
     Q(r) pseudized with  8 coefficients,  rinner =    1.250   1.250   1.250
                                                       1.250   1.250

     Mode symmetry, C_3v (3m)   point group:


     Atomic displacements:
     There are   4 irreducible representations

     Representation     1      1 modes -A_1  L_1  To be done

     Representation     2      1 modes -A_1  L_1  To be done

     Representation     3      2 modes -E    L_3  To be done

     Representation     4      2 modes -E    L_3  To be done



     Alpha used in Ewald sum =   2.8000
     PHONON       :    49.60s CPU        58.55s WALL



     Representation #  1 mode #   1

     Self-consistent Calculation

      iter #   1 total cpu time :    59.8 secs   av.it.:   5.8
      thresh= 1.000E-02 alpha_mix =  0.700 |ddv_scf|^2 =  3.130E-02

      iter #   2 total cpu time :    62.7 secs   av.it.:   6.8
      thresh= 1.000E-02 alpha_mix =  0.700 |ddv_scf|^2 =  1.698E+01

      iter #   3 total cpu time :    65.6 secs   av.it.:   6.7
      thresh= 1.000E-02 alpha_mix =  0.700 |ddv_scf|^2 =  2.004E-04

      iter #   4 total cpu time :    71.0 secs   av.it.:   7.3
      thresh= 1.416E-03 alpha_mix =  0.700 |ddv_scf|^2 =  3.580E-04

      iter #   5 total cpu time :    74.1 secs   av.it.:   6.4
      thresh= 1.892E-03 alpha_mix =  0.700 |ddv_scf|^2 =  1.303E-08

      iter #   6 total cpu time :    77.0 secs   av.it.:   8.3
      thresh= 1.141E-05 alpha_mix =  0.700 |ddv_scf|^2 =  1.567E-09

      iter #   7 total cpu time :    80.7 secs   av.it.:   7.7
      thresh= 3.959E-06 alpha_mix =  0.700 |ddv_scf|^2 =  2.510E-07

      iter #   8 total cpu time :    83.3 secs   av.it.:   4.9
      thresh= 5.010E-05 alpha_mix =  0.700 |ddv_scf|^2 =  4.296E-10

      iter #   9 total cpu time :    86.6 secs   av.it.:   7.4
      thresh= 2.073E-06 alpha_mix =  0.700 |ddv_scf|^2 =  5.940E-09

      iter #  10 total cpu time :    91.6 secs   av.it.:   6.1
      thresh= 7.707E-06 alpha_mix =  0.700 |ddv_scf|^2 =  2.368E-12

      iter #  11 total cpu time :    94.6 secs   av.it.:   8.0
      thresh= 1.539E-07 alpha_mix =  0.700 |ddv_scf|^2 =  1.391E-12

      iter #  12 total cpu time :    97.8 secs   av.it.:   7.1
      thresh= 1.179E-07 alpha_mix =  0.700 |ddv_scf|^2 =  4.288E-14

      iter #  13 total cpu time :   100.8 secs   av.it.:   8.4
      thresh= 2.071E-08 alpha_mix =  0.700 |ddv_scf|^2 =  3.588E-13

      iter #  14 total cpu time :   103.2 secs   av.it.:   4.5
      thresh= 5.990E-08 alpha_mix =  0.700 |ddv_scf|^2 =  7.507E-14

      iter #  15 total cpu time :   106.1 secs   av.it.:   7.0
      thresh= 2.740E-08 alpha_mix =  0.700 |ddv_scf|^2 =  8.631E-15

      iter #  16 total cpu time :   108.8 secs   av.it.:   6.1
      thresh= 9.290E-09 alpha_mix =  0.700 |ddv_scf|^2 =  6.325E-15

      iter #  17 total cpu time :   111.6 secs   av.it.:   6.7
      thresh= 7.953E-09 alpha_mix =  0.700 |ddv_scf|^2 =  3.225E-17

     End of self-consistent calculation

     Convergence has been achieved 


     Representation #  2 mode #   2

     Self-consistent Calculation

      iter #   1 total cpu time :   115.3 secs   av.it.:   5.8
      thresh= 1.000E-02 alpha_mix =  0.700 |ddv_scf|^2 =  3.130E-02

      iter #   2 total cpu time :   117.9 secs   av.it.:   6.8
      thresh= 1.000E-02 alpha_mix =  0.700 |ddv_scf|^2 =  1.698E+01

      iter #   3 total cpu time :   120.7 secs   av.it.:   6.7
      thresh= 1.000E-02 alpha_mix =  0.700 |ddv_scf|^2 =  2.004E-04

      iter #   4 total cpu time :   123.9 secs   av.it.:   7.3
      thresh= 1.416E-03 alpha_mix =  0.700 |ddv_scf|^2 =  3.580E-04

      iter #   5 total cpu time :   126.7 secs   av.it.:   6.4
      thresh= 1.892E-03 alpha_mix =  0.700 |ddv_scf|^2 =  1.305E-08

      iter #   6 total cpu time :   129.5 secs   av.it.:   8.3
      thresh= 1.143E-05 alpha_mix =  0.700 |ddv_scf|^2 =  1.324E-08

      iter #   7 total cpu time :   132.3 secs   av.it.:   5.7
      thresh= 1.151E-05 alpha_mix =  0.700 |ddv_scf|^2 =  1.084E-07

      iter #   8 total cpu time :   134.8 secs   av.it.:   6.2
      thresh= 3.292E-05 alpha_mix =  0.700 |ddv_scf|^2 =  3.795E-10

      iter #   9 total cpu time :   137.8 secs   av.it.:   7.5
      thresh= 1.948E-06 alpha_mix =  0.700 |ddv_scf|^2 =  5.773E-09

      iter #  10 total cpu time :   140.5 secs   av.it.:   6.0
      thresh= 7.598E-06 alpha_mix =  0.700 |ddv_scf|^2 =  2.469E-12

      iter #  11 total cpu time :   144.1 secs   av.it.:   8.0
      thresh= 1.571E-07 alpha_mix =  0.700 |ddv_scf|^2 =  1.031E-12

      iter #  12 total cpu time :   147.7 secs   av.it.:   7.2
      thresh= 1.015E-07 alpha_mix =  0.700 |ddv_scf|^2 =  5.741E-14

      iter #  13 total cpu time :   151.3 secs   av.it.:   8.3
      thresh= 2.396E-08 alpha_mix =  0.700 |ddv_scf|^2 =  4.230E-12

      iter #  14 total cpu time :   154.1 secs   av.it.:   3.5
      thresh= 2.057E-07 alpha_mix =  0.700 |ddv_scf|^2 =  8.955E-15

      iter #  15 total cpu time :   157.3 secs   av.it.:   7.9
      thresh= 9.463E-09 alpha_mix =  0.700 |ddv_scf|^2 =  9.657E-15

      iter #  16 total cpu time :   160.1 secs   av.it.:   6.0
      thresh= 9.827E-09 alpha_mix =  0.700 |ddv_scf|^2 =  6.747E-15

      iter #  17 total cpu time :   162.7 secs   av.it.:   6.7
      thresh= 8.214E-09 alpha_mix =  0.700 |ddv_scf|^2 =  3.098E-17

     End of self-consistent calculation

     Convergence has been achieved 


     Representation #  3 modes #   3  4

     Self-consistent Calculation

      iter #   1 total cpu time :   168.7 secs   av.it.:   5.3
      thresh= 1.000E-02 alpha_mix =  0.700 |ddv_scf|^2 =  9.555E-07

      iter #   2 total cpu time :   176.1 secs   av.it.:   8.7
      thresh= 9.775E-05 alpha_mix =  0.700 |ddv_scf|^2 =  1.717E-08

      iter #   3 total cpu time :   182.5 secs   av.it.:   9.0
      thresh= 1.310E-05 alpha_mix =  0.700 |ddv_scf|^2 =  4.294E-10

      iter #   4 total cpu time :   189.2 secs   av.it.:   8.6
      thresh= 2.072E-06 alpha_mix =  0.700 |ddv_scf|^2 =  1.483E-12

      iter #   5 total cpu time :   195.9 secs   av.it.:   9.0
      thresh= 1.218E-07 alpha_mix =  0.700 |ddv_scf|^2 =  4.386E-15

      iter #   6 total cpu time :   201.9 secs   av.it.:   8.6
      thresh= 6.623E-09 alpha_mix =  0.700 |ddv_scf|^2 =  9.981E-17

     End of self-consistent calculation

     Convergence has been achieved 


     Representation #  4 modes #   5  6

     Self-consistent Calculation

      iter #   1 total cpu time :   209.2 secs   av.it.:   5.3
      thresh= 1.000E-02 alpha_mix =  0.700 |ddv_scf|^2 =  9.555E-07

      iter #   2 total cpu time :   215.6 secs   av.it.:   8.7
      thresh= 9.775E-05 alpha_mix =  0.700 |ddv_scf|^2 =  1.717E-08

      iter #   3 total cpu time :   222.3 secs   av.it.:   9.0
      thresh= 1.310E-05 alpha_mix =  0.700 |ddv_scf|^2 =  4.308E-10

      iter #   4 total cpu time :   229.0 secs   av.it.:   8.5
      thresh= 2.075E-06 alpha_mix =  0.700 |ddv_scf|^2 =  1.475E-12

      iter #   5 total cpu time :   235.1 secs   av.it.:   8.9
      thresh= 1.215E-07 alpha_mix =  0.700 |ddv_scf|^2 =  4.395E-15

      iter #   6 total cpu time :   241.7 secs   av.it.:   8.6
      thresh= 6.630E-09 alpha_mix =  0.700 |ddv_scf|^2 =  9.999E-17

     End of self-consistent calculation

     Convergence has been achieved 
 
     Number of q in the star =    2
     List of q in the star:
          1   0.000000000   0.000000000   0.153330962
          2   0.000000000   0.000000000  -0.153330962

     Diagonalizing the dynamical matrix

     q = (    0.000000000   0.000000000   0.153330962 ) 

 **************************************************************************
     freq (    1) =       0.426235 [THz] =      14.217680 [cm-1]
     freq (    2) =       0.426235 [THz] =      14.217680 [cm-1]
     freq (    3) =       1.613236 [THz] =      53.811744 [cm-1]
     freq (    4) =       1.613236 [THz] =      53.811744 [cm-1]
     freq (    5) =       1.692557 [THz] =      56.457611 [cm-1]
     freq (    6) =       3.953049 [THz] =     131.859531 [cm-1]
 **************************************************************************

     Mode symmetry, C_3v (3m)   point group:

     freq (  1 -  2) =         14.2  [cm-1]   --> E    L_3           
     freq (  3 -  4) =         53.8  [cm-1]   --> E    L_3           
     freq (  5 -  5) =         56.5  [cm-1]   --> A_1  L_1           
     freq (  6 -  6) =        131.9  [cm-1]   --> A_1  L_1           

     Calculation of q =    0.0000000   0.0000000  -0.3066619
 
     Parallelization info
     --------------------
     sticks:   dense  smooth     PW     G-vecs:    dense   smooth      PW
     Min         133      64     20                 5697     2002     340
     Max         134      65     21                 5700     2021     345
     Sum        1069     517    163                45593    16089    2731
 


     bravais-lattice index     =            4
     lattice parameter (alat)  =       6.9400  a.u.
     unit-cell volume          =     471.9752 (a.u.)^3
     number of atoms/cell      =            2
     number of atomic types    =            1
     number of electrons       =        18.00
     number of Kohn-Sham states=           13
     kinetic-energy cutoff     =      40.0000  Ry
     charge density cutoff     =     320.0000  Ry
     Exchange-correlation      = SLA  PW   PBE  PBE ( 1  4  3  4 0 0)

     celldm(1)=   6.940000  celldm(2)=   0.000000  celldm(3)=   1.630460
     celldm(4)=   0.000000  celldm(5)=   0.000000  celldm(6)=   0.000000

     crystal axes: (cart. coord. in units of alat)
               a(1) = (   1.000000   0.000000   0.000000 )  
               a(2) = (  -0.500000   0.866025   0.000000 )  
               a(3) = (   0.000000   0.000000   1.630460 )  

     reciprocal axes: (cart. coord. in units 2 pi/alat)
               b(1) = (  1.000000  0.577350  0.000000 )  
               b(2) = (  0.000000  1.154701  0.000000 )  
               b(3) = (  0.000000  0.000000  0.613324 )  


     PseudoPot. # 1 for Na read from file:
     ./Na_pbe_v1.uspp.F.UPF
     MD5 check sum: 76a99c7e9422403d3e93cbc85ab7bccb
     Pseudo is Ultrasoft, Zval =  9.0
     Generated by new atomic code, or converted to UPF format
     Using radial grid of  819 points,  5 beta functions with: 
                l(1) =   0
                l(2) =   0
                l(3) =   1
                l(4) =   1
                l(5) =   2
     Q(r) pseudized with  8 coefficients,  rinner =    1.250   1.250   1.250
                                                       1.250   1.250

     atomic species   valence    mass     pseudopotential
        Na             9.00    22.99000     Na( 1.00)

     12 Sym. Ops. (no inversion) found



   Cartesian axes

     site n.     atom                  positions (alat units)
         1           Na  tau(   1) = (   0.0000000   0.0000000   0.0000000  )
         2           Na  tau(   2) = (   0.4999999   0.2886751   0.8152300  )

     number of k points=   732  Marzari-Vanderbilt smearing, width (Ry)=  0.0200

     Number of k-points >= 100: set verbosity='high' to print them.

     Dense  grid:    45593 G-vectors     FFT dimensions: (  40,  40,  72)

     Smooth grid:    16089 G-vectors     FFT dimensions: (  27,  27,  45)

     Largest allocated arrays     est. size (Mb)     dimensions
        Kohn-Sham Wavefunctions         0.05 Mb     (     259,   13)
        NL pseudopotentials             0.10 Mb     (     259,   26)
        Each V/rho on FFT grid          0.22 Mb     (   14400)
        Each G-vector array             0.04 Mb     (    5699)
        G-vector shells                 0.01 Mb     (    1668)
     Largest temporary arrays     est. size (Mb)     dimensions
        Auxiliary wavefunctions         0.21 Mb     (     259,   52)
        Each subspace H/S matrix        0.01 Mb     (      26,   26)
        Each <psi_i|beta_j> matrix      0.01 Mb     (      26,   13)

     The potential is recalculated from file :
     ./na_hcp_6.94/_ph0/na_hcp_6.94.save/charge-density.dat

     Starting wfc are   10 atomic +    3 random wfc

     Band Structure Calculation
     Davidson diagonalization with overlap

     ethr =  5.56E-11,  avg # of iterations = 23.2

     total cpu time spent up to now is       13.1 secs

     End of band structure calculation

     Number of k-points >= 100: set verbosity='high' to print the bands.

     the Fermi energy is     1.8543 ev

     Writing output data file na_hcp_6.94.save

                                                                                

     bravais-lattice index     =            4
     lattice parameter (alat)  =       6.9400  a.u.
     unit-cell volume          =     471.9752 (a.u.)^3
     number of atoms/cell      =            2
     number of atomic types    =            1
     kinetic-energy cut-off    =      40.0000  Ry
     charge density cut-off    =     320.0000  Ry
     convergence threshold     =      1.0E-15
     beta                      =       0.7000
     number of iterations used =            4
     Exchange-correlation      = SLA  PW   PBE  PBE ( 1  4  3  4 0 0)


     celldm(1)=    6.94000  celldm(2)=    0.00000  celldm(3)=    1.63046
     celldm(4)=    0.00000  celldm(5)=    0.00000  celldm(6)=    0.00000

     crystal axes: (cart. coord. in units of alat)
               a(1) = (  1.0000  0.0000  0.0000 )  
               a(2) = ( -0.5000  0.8660  0.0000 )  
               a(3) = (  0.0000  0.0000  1.6305 )  

     reciprocal axes: (cart. coord. in units 2 pi/alat)
               b(1) = (  1.0000  0.5774  0.0000 )  
               b(2) = (  0.0000  1.1547  0.0000 )  
               b(3) = (  0.0000  0.0000  0.6133 )  


     Atoms inside the unit cell: 

     Cartesian axes

     site n.  atom      mass           positions (alat units)
        1     Na  22.9900   tau(    1) = (    0.00000    0.00000    0.00000  )
        2     Na  22.9900   tau(    2) = (    0.50000    0.28868    0.81523  )

     Computing dynamical matrix for 
                    q = (   0.0000000   0.0000000  -0.3066619 )
 
     13 Sym.Ops. (with q -> -q+G )


     G cutoff =  390.3994  (   5699 G-vectors)     FFT grid: ( 40, 40, 72)
     G cutoff =  195.1997  (   2007 G-vectors)  smooth grid: ( 27, 27, 45)

     number of k points=   732  Marzari-Vanderbilt smearing, width (Ry)=  0.0200

     PseudoPot. # 1 for Na read from file:
     ./Na_pbe_v1.uspp.F.UPF
     MD5 check sum: 76a99c7e9422403d3e93cbc85ab7bccb
     Pseudo is Ultrasoft, Zval =  9.0
     Generated by new atomic code, or converted to UPF format
     Using radial grid of  819 points,  5 beta functions with: 
                l(1) =   0
                l(2) =   0
                l(3) =   1
                l(4) =   1
                l(5) =   2
     Q(r) pseudized with  8 coefficients,  rinner =    1.250   1.250   1.250
                                                       1.250   1.250

     Mode symmetry, D_3h (-62m) point group:


     Atomic displacements:
     There are   4 irreducible representations

     Representation     1      1 modes -A'_1  To be done

     Representation     2      2 modes -E'  To be done

     Representation     3      1 modes -A''2  To be done

     Representation     4      2 modes -E''  To be done



     Alpha used in Ewald sum =   2.8000
     PHONON       :  3m25.30s CPU     4m 6.00s WALL



     Representation #  1 mode #   1

     Self-consistent Calculation

      iter #   1 total cpu time :   246.6 secs   av.it.:   5.7
      thresh= 1.000E-02 alpha_mix =  0.700 |ddv_scf|^2 =  9.943E-04

      iter #   2 total cpu time :   247.1 secs   av.it.:   7.0
      thresh= 3.153E-03 alpha_mix =  0.700 |ddv_scf|^2 =  2.636E-02

      iter #   3 total cpu time :   247.6 secs   av.it.:   5.9
      thresh= 1.000E-02 alpha_mix =  0.700 |ddv_scf|^2 =  7.325E-07

      iter #   4 total cpu time :   248.2 secs   av.it.:   7.9
      thresh= 8.559E-05 alpha_mix =  0.700 |ddv_scf|^2 =  3.485E-09

      iter #   5 total cpu time :   248.8 secs   av.it.:   8.7
      thresh= 5.903E-06 alpha_mix =  0.700 |ddv_scf|^2 =  2.759E-10

      iter #   6 total cpu time :   249.3 secs   av.it.:   8.5
      thresh= 1.661E-06 alpha_mix =  0.700 |ddv_scf|^2 =  6.933E-12

      iter #   7 total cpu time :   249.8 secs   av.it.:   8.9
      thresh= 2.633E-07 alpha_mix =  0.700 |ddv_scf|^2 =  9.795E-13

      iter #   8 total cpu time :   250.3 secs   av.it.:   7.6
      thresh= 9.897E-08 alpha_mix =  0.700 |ddv_scf|^2 =  5.254E-16

     End of self-consistent calculation

     Convergence has been achieved 


     Representation #  2 modes #   2  3

     Self-consistent Calculation

      iter #   1 total cpu time :   251.9 secs   av.it.:   5.2
      thresh= 1.000E-02 alpha_mix =  0.700 |ddv_scf|^2 =  9.545E-07

      iter #   2 total cpu time :   253.5 secs   av.it.:   8.7
      thresh= 9.770E-05 alpha_mix =  0.700 |ddv_scf|^2 =  1.717E-08

      iter #   3 total cpu time :   255.5 secs   av.it.:   9.0
      thresh= 1.310E-05 alpha_mix =  0.700 |ddv_scf|^2 =  4.216E-10

      iter #   4 total cpu time :   257.5 secs   av.it.:   8.5
      thresh= 2.053E-06 alpha_mix =  0.700 |ddv_scf|^2 =  1.424E-12

      iter #   5 total cpu time :   259.3 secs   av.it.:   8.9
      thresh= 1.193E-07 alpha_mix =  0.700 |ddv_scf|^2 =  2.764E-15

      iter #   6 total cpu time :   260.8 secs   av.it.:   8.2
      thresh= 5.258E-09 alpha_mix =  0.700 |ddv_scf|^2 =  9.069E-17

     End of self-consistent calculation

     Convergence has been achieved 


     Representation #  3 mode #   4

     Self-consistent Calculation

      iter #   1 total cpu time :   262.4 secs   av.it.:   5.7
      thresh= 1.000E-02 alpha_mix =  0.700 |ddv_scf|^2 =  9.943E-04

      iter #   2 total cpu time :   263.6 secs   av.it.:   7.0
      thresh= 3.153E-03 alpha_mix =  0.700 |ddv_scf|^2 =  2.636E-02

      iter #   3 total cpu time :   265.1 secs   av.it.:   5.9
      thresh= 1.000E-02 alpha_mix =  0.700 |ddv_scf|^2 =  7.327E-07

      iter #   4 total cpu time :   266.3 secs   av.it.:   7.9
      thresh= 8.560E-05 alpha_mix =  0.700 |ddv_scf|^2 =  3.488E-09

      iter #   5 total cpu time :   267.6 secs   av.it.:   8.7
      thresh= 5.906E-06 alpha_mix =  0.700 |ddv_scf|^2 =  2.757E-10

      iter #   6 total cpu time :   268.5 secs   av.it.:   8.5
      thresh= 1.660E-06 alpha_mix =  0.700 |ddv_scf|^2 =  6.938E-12

      iter #   7 total cpu time :   269.7 secs   av.it.:   8.9
      thresh= 2.634E-07 alpha_mix =  0.700 |ddv_scf|^2 =  9.807E-13

      iter #   8 total cpu time :   270.9 secs   av.it.:   7.6
      thresh= 9.903E-08 alpha_mix =  0.700 |ddv_scf|^2 =  5.251E-16

     End of self-consistent calculation

     Convergence has been achieved 


     Representation #  4 modes #   5  6

     Self-consistent Calculation

      iter #   1 total cpu time :   273.3 secs   av.it.:   5.2
      thresh= 1.000E-02 alpha_mix =  0.700 |ddv_scf|^2 =  9.544E-07

      iter #   2 total cpu time :   274.7 secs   av.it.:   8.7
      thresh= 9.769E-05 alpha_mix =  0.700 |ddv_scf|^2 =  1.718E-08

      iter #   3 total cpu time :   276.5 secs   av.it.:   9.0
      thresh= 1.311E-05 alpha_mix =  0.700 |ddv_scf|^2 =  4.229E-10

      iter #   4 total cpu time :   278.1 secs   av.it.:   8.5
      thresh= 2.057E-06 alpha_mix =  0.700 |ddv_scf|^2 =  1.417E-12

      iter #   5 total cpu time :   280.1 secs   av.it.:   9.0
      thresh= 1.190E-07 alpha_mix =  0.700 |ddv_scf|^2 =  2.773E-15

      iter #   6 total cpu time :   281.9 secs   av.it.:   8.3
      thresh= 5.266E-09 alpha_mix =  0.700 |ddv_scf|^2 =  9.084E-17

     End of self-consistent calculation

     Convergence has been achieved 
 
     Number of q in the star =    1
     List of q in the star:
          1   0.000000000   0.000000000  -0.306661924

     Diagonalizing the dynamical matrix

     q = (    0.000000000   0.000000000  -0.306661924 ) 

 **************************************************************************
     freq (    1) =       1.162619 [THz] =      38.780799 [cm-1]
     freq (    2) =       1.162619 [THz] =      38.780799 [cm-1]
     freq (    3) =       1.193078 [THz] =      39.796790 [cm-1]
     freq (    4) =       1.193078 [THz] =      39.796790 [cm-1]
     freq (    5) =       3.080507 [THz] =     102.754648 [cm-1]
     freq (    6) =       3.081234 [THz] =     102.778897 [cm-1]
 **************************************************************************

     Mode symmetry, D_3h (-62m) point group:

     freq (  1 -  2) =         38.8  [cm-1]   --> E'                 
     freq (  3 -  4) =         39.8  [cm-1]   --> E''                
     freq (  5 -  5) =        102.8  [cm-1]   --> A'_1               
     freq (  6 -  6) =        102.8  [cm-1]   --> A''2               

     Calculation of q =    0.0000000   0.2886751   0.0000000
 
     Parallelization info
     --------------------
     sticks:   dense  smooth     PW     G-vecs:    dense   smooth      PW
     Min         133      64     20                 5697     2003     366
     Max         134      65     21                 5700     2019     373
     Sum        1069     517    163                45593    16089    2947
 


     bravais-lattice index     =            4
     lattice parameter (alat)  =       6.9400  a.u.
     unit-cell volume          =     471.9752 (a.u.)^3
     number of atoms/cell      =            2
     number of atomic types    =            1
     number of electrons       =        18.00
     number of Kohn-Sham states=           13
     kinetic-energy cutoff     =      40.0000  Ry
     charge density cutoff     =     320.0000  Ry
     Exchange-correlation      = SLA  PW   PBE  PBE ( 1  4  3  4 0 0)

     celldm(1)=   6.940000  celldm(2)=   0.000000  celldm(3)=   1.630460
     celldm(4)=   0.000000  celldm(5)=   0.000000  celldm(6)=   0.000000

     crystal axes: (cart. coord. in units of alat)
               a(1) = (   1.000000   0.000000   0.000000 )  
               a(2) = (  -0.500000   0.866025   0.000000 )  
               a(3) = (   0.000000   0.000000   1.630460 )  

     reciprocal axes: (cart. coord. in units 2 pi/alat)
               b(1) = (  1.000000  0.577350  0.000000 )  
               b(2) = (  0.000000  1.154701  0.000000 )  
               b(3) = (  0.000000  0.000000  0.613324 )  


     PseudoPot. # 1 for Na read from file:
     ./Na_pbe_v1.uspp.F.UPF
     MD5 check sum: 76a99c7e9422403d3e93cbc85ab7bccb
     Pseudo is Ultrasoft, Zval =  9.0
     Generated by new atomic code, or converted to UPF format
     Using radial grid of  819 points,  5 beta functions with: 
                l(1) =   0
                l(2) =   0
                l(3) =   1
                l(4) =   1
                l(5) =   2
     Q(r) pseudized with  8 coefficients,  rinner =    1.250   1.250   1.250
                                                       1.250   1.250

     atomic species   valence    mass     pseudopotential
        Na             9.00    22.99000     Na( 1.00)

     12 Sym. Ops. (no inversion) found



   Cartesian axes

     site n.     atom                  positions (alat units)
         1           Na  tau(   1) = (   0.0000000   0.0000000   0.0000000  )
         2           Na  tau(   2) = (   0.4999999   0.2886751   0.8152300  )

     number of k points=  3600  Marzari-Vanderbilt smearing, width (Ry)=  0.0200

     Number of k-points >= 100: set verbosity='high' to print them.

     Dense  grid:    45593 G-vectors     FFT dimensions: (  40,  40,  72)

     Smooth grid:    16089 G-vectors     FFT dimensions: (  27,  27,  45)

     Largest allocated arrays     est. size (Mb)     dimensions
        Kohn-Sham Wavefunctions         0.05 Mb     (     261,   13)
        NL pseudopotentials             0.10 Mb     (     261,   26)
        Each V/rho on FFT grid          0.22 Mb     (   14400)
        Each G-vector array             0.04 Mb     (    5699)
        G-vector shells                 0.01 Mb     (    1669)
     Largest temporary arrays     est. size (Mb)     dimensions
        Auxiliary wavefunctions         0.21 Mb     (     261,   52)
        Each subspace H/S matrix        0.01 Mb     (      26,   26)
        Each <psi_i|beta_j> matrix      0.01 Mb     (      26,   13)

     The potential is recalculated from file :
     ./na_hcp_6.94/_ph0/na_hcp_6.94.save/charge-density.dat

     Starting wfc are   10 atomic +    3 random wfc

     Band Structure Calculation
     Davidson diagonalization with overlap

     ethr =  5.56E-11,  avg # of iterations = 22.6

     total cpu time spent up to now is       24.5 secs

     End of band structure calculation

     Number of k-points >= 100: set verbosity='high' to print the bands.

     the Fermi energy is     1.8543 ev

     Writing output data file na_hcp_6.94.save

                                                                                

     bravais-lattice index     =            4
     lattice parameter (alat)  =       6.9400  a.u.
     unit-cell volume          =     471.9752 (a.u.)^3
     number of atoms/cell      =            2
     number of atomic types    =            1
     kinetic-energy cut-off    =      40.0000  Ry
     charge density cut-off    =     320.0000  Ry
     convergence threshold     =      1.0E-15
     beta                      =       0.7000
     number of iterations used =            4
     Exchange-correlation      = SLA  PW   PBE  PBE ( 1  4  3  4 0 0)


     celldm(1)=    6.94000  celldm(2)=    0.00000  celldm(3)=    1.63046
     celldm(4)=    0.00000  celldm(5)=    0.00000  celldm(6)=    0.00000

     crystal axes: (cart. coord. in units of alat)
               a(1) = (  1.0000  0.0000  0.0000 )  
               a(2) = ( -0.5000  0.8660  0.0000 )  
               a(3) = (  0.0000  0.0000  1.6305 )  

     reciprocal axes: (cart. coord. in units 2 pi/alat)
               b(1) = (  1.0000  0.5774  0.0000 )  
               b(2) = (  0.0000  1.1547  0.0000 )  
               b(3) = (  0.0000  0.0000  0.6133 )  


     Atoms inside the unit cell: 

     Cartesian axes

     site n.  atom      mass           positions (alat units)
        1     Na  22.9900   tau(    1) = (    0.00000    0.00000    0.00000  )
        2     Na  22.9900   tau(    2) = (    0.50000    0.28868    0.81523  )

     Computing dynamical matrix for 
                    q = (   0.0000000   0.2886751   0.0000000 )
 
      4 Sym.Ops. (no q -> -q+G )


     G cutoff =  390.3994  (   5699 G-vectors)     FFT grid: ( 40, 40, 72)
     G cutoff =  195.1997  (   2003 G-vectors)  smooth grid: ( 27, 27, 45)

     number of k points=  3600  Marzari-Vanderbilt smearing, width (Ry)=  0.0200

     PseudoPot. # 1 for Na read from file:
     ./Na_pbe_v1.uspp.F.UPF
     MD5 check sum: 76a99c7e9422403d3e93cbc85ab7bccb
     Pseudo is Ultrasoft, Zval =  9.0
     Generated by new atomic code, or converted to UPF format
     Using radial grid of  819 points,  5 beta functions with: 
                l(1) =   0
                l(2) =   0
                l(3) =   1
                l(4) =   1
                l(5) =   2
     Q(r) pseudized with  8 coefficients,  rinner =    1.250   1.250   1.250
                                                       1.250   1.250

     Mode symmetry, C_2v (mm2)  point group:


     Atomic displacements:
     There are   6 irreducible representations

     Representation     1      1 modes -A_1  D_1  S_1  To be done

     Representation     2      1 modes -A_1  D_1  S_1  To be done

     Representation     3      1 modes -B_1  D_3  S_3  To be done

     Representation     4      1 modes -B_1  D_3  S_3  To be done

     Representation     5      1 modes -B_2  D_4  S_4  To be done

     Representation     6      1 modes -B_2  D_4  S_4  To be done



     Alpha used in Ewald sum =   2.8000
     PHONON       :  4m10.55s CPU     4m58.24s WALL



     Representation #  1 mode #   1

     Self-consistent Calculation

      iter #   1 total cpu time :   300.1 secs   av.it.:   5.7
      thresh= 1.000E-02 alpha_mix =  0.700 |ddv_scf|^2 =  7.181E-04

      iter #   2 total cpu time :   305.2 secs   av.it.:   7.2
      thresh= 2.680E-03 alpha_mix =  0.700 |ddv_scf|^2 =  2.511E-02

      iter #   3 total cpu time :   310.9 secs   av.it.:   5.4
      thresh= 1.000E-02 alpha_mix =  0.700 |ddv_scf|^2 =  6.144E-07

      iter #   4 total cpu time :   316.0 secs   av.it.:   8.1
      thresh= 7.839E-05 alpha_mix =  0.700 |ddv_scf|^2 =  3.317E-08

      iter #   5 total cpu time :   321.6 secs   av.it.:   8.2
      thresh= 1.821E-05 alpha_mix =  0.700 |ddv_scf|^2 =  8.151E-10

      iter #   6 total cpu time :   326.2 secs   av.it.:   8.7
      thresh= 2.855E-06 alpha_mix =  0.700 |ddv_scf|^2 =  1.296E-10

      iter #   7 total cpu time :   330.3 secs   av.it.:   8.0
      thresh= 1.138E-06 alpha_mix =  0.700 |ddv_scf|^2 =  1.698E-09

      iter #   8 total cpu time :   335.5 secs   av.it.:   6.4
      thresh= 4.121E-06 alpha_mix =  0.700 |ddv_scf|^2 =  4.516E-12

      iter #   9 total cpu time :   340.1 secs   av.it.:   8.6
      thresh= 2.125E-07 alpha_mix =  0.700 |ddv_scf|^2 =  7.934E-13

      iter #  10 total cpu time :   345.4 secs   av.it.:   7.5
      thresh= 8.907E-08 alpha_mix =  0.700 |ddv_scf|^2 =  2.082E-12

      iter #  11 total cpu time :   350.9 secs   av.it.:   7.0
      thresh= 1.443E-07 alpha_mix =  0.700 |ddv_scf|^2 =  2.013E-15

      iter #  12 total cpu time :   355.5 secs   av.it.:   8.8
      thresh= 4.486E-09 alpha_mix =  0.700 |ddv_scf|^2 =  1.245E-16

     End of self-consistent calculation

     Convergence has been achieved 


     Representation #  2 mode #   2

     Self-consistent Calculation

      iter #   1 total cpu time :   360.8 secs   av.it.:   5.7
      thresh= 1.000E-02 alpha_mix =  0.700 |ddv_scf|^2 =  7.181E-04

      iter #   2 total cpu time :   365.0 secs   av.it.:   7.2
      thresh= 2.680E-03 alpha_mix =  0.700 |ddv_scf|^2 =  2.511E-02

      iter #   3 total cpu time :   369.4 secs   av.it.:   5.4
      thresh= 1.000E-02 alpha_mix =  0.700 |ddv_scf|^2 =  6.144E-07

      iter #   4 total cpu time :   374.5 secs   av.it.:   8.1
      thresh= 7.838E-05 alpha_mix =  0.700 |ddv_scf|^2 =  3.320E-08

      iter #   5 total cpu time :   381.1 secs   av.it.:   8.2
      thresh= 1.822E-05 alpha_mix =  0.700 |ddv_scf|^2 =  8.168E-10

      iter #   6 total cpu time :   386.4 secs   av.it.:   8.7
      thresh= 2.858E-06 alpha_mix =  0.700 |ddv_scf|^2 =  1.284E-10

      iter #   7 total cpu time :   391.0 secs   av.it.:   8.0
      thresh= 1.133E-06 alpha_mix =  0.700 |ddv_scf|^2 =  1.692E-09

      iter #   8 total cpu time :   395.5 secs   av.it.:   6.4
      thresh= 4.113E-06 alpha_mix =  0.700 |ddv_scf|^2 =  4.550E-12

      iter #   9 total cpu time :   399.9 secs   av.it.:   8.6
      thresh= 2.133E-07 alpha_mix =  0.700 |ddv_scf|^2 =  7.946E-13

      iter #  10 total cpu time :   405.1 secs   av.it.:   7.5
      thresh= 8.914E-08 alpha_mix =  0.700 |ddv_scf|^2 =  2.075E-12

      iter #  11 total cpu time :   409.8 secs   av.it.:   7.0
      thresh= 1.441E-07 alpha_mix =  0.700 |ddv_scf|^2 =  2.009E-15

      iter #  12 total cpu time :   414.9 secs   av.it.:   8.8
      thresh= 4.482E-09 alpha_mix =  0.700 |ddv_scf|^2 =  1.241E-16

     End of self-consistent calculation

     Convergence has been achieved 


     Representation #  3 mode #   3

     Self-consistent Calculation

      iter #   1 total cpu time :   420.2 secs   av.it.:   5.4
      thresh= 1.000E-02 alpha_mix =  0.700 |ddv_scf|^2 =  4.145E-06

      iter #   2 total cpu time :   424.9 secs   av.it.:   8.3
      thresh= 2.036E-04 alpha_mix =  0.700 |ddv_scf|^2 =  6.627E-08

      iter #   3 total cpu time :   429.5 secs   av.it.:   8.5
      thresh= 2.574E-05 alpha_mix =  0.700 |ddv_scf|^2 =  2.901E-09

      iter #   4 total cpu time :   434.7 secs   av.it.:   8.1
      thresh= 5.386E-06 alpha_mix =  0.700 |ddv_scf|^2 =  1.756E-11

      iter #   5 total cpu time :   438.7 secs   av.it.:   8.1
      thresh= 4.190E-07 alpha_mix =  0.700 |ddv_scf|^2 =  1.301E-13

      iter #   6 total cpu time :   444.3 secs   av.it.:   8.5
      thresh= 3.607E-08 alpha_mix =  0.700 |ddv_scf|^2 =  4.534E-16

     End of self-consistent calculation

     Convergence has been achieved 


     Representation #  4 mode #   4

     Self-consistent Calculation

      iter #   1 total cpu time :   449.6 secs   av.it.:   5.4
      thresh= 1.000E-02 alpha_mix =  0.700 |ddv_scf|^2 =  4.145E-06

      iter #   2 total cpu time :   454.3 secs   av.it.:   8.3
      thresh= 2.036E-04 alpha_mix =  0.700 |ddv_scf|^2 =  6.630E-08

      iter #   3 total cpu time :   459.0 secs   av.it.:   8.5
      thresh= 2.575E-05 alpha_mix =  0.700 |ddv_scf|^2 =  2.909E-09

      iter #   4 total cpu time :   463.8 secs   av.it.:   8.1
      thresh= 5.394E-06 alpha_mix =  0.700 |ddv_scf|^2 =  1.750E-11

      iter #   5 total cpu time :   468.6 secs   av.it.:   8.1
      thresh= 4.183E-07 alpha_mix =  0.700 |ddv_scf|^2 =  1.298E-13

      iter #   6 total cpu time :   473.1 secs   av.it.:   8.5
      thresh= 3.602E-08 alpha_mix =  0.700 |ddv_scf|^2 =  4.540E-16

     End of self-consistent calculation

     Convergence has been achieved 


     Representation #  5 mode #   5

     Self-consistent Calculation

      iter #   1 total cpu time :   478.0 secs   av.it.:   5.5
      thresh= 1.000E-02 alpha_mix =  0.700 |ddv_scf|^2 =  1.150E-05

      iter #   2 total cpu time :   483.6 secs   av.it.:   8.4
      thresh= 3.391E-04 alpha_mix =  0.700 |ddv_scf|^2 =  2.410E-06

      iter #   3 total cpu time :   488.4 secs   av.it.:   7.6
      thresh= 1.552E-04 alpha_mix =  0.700 |ddv_scf|^2 =  1.390E-08

      iter #   4 total cpu time :   496.3 secs   av.it.:   8.6
      thresh= 1.179E-05 alpha_mix =  0.700 |ddv_scf|^2 =  4.622E-10

      iter #   5 total cpu time :   501.2 secs   av.it.:   8.1
      thresh= 2.150E-06 alpha_mix =  0.700 |ddv_scf|^2 =  2.730E-12

      iter #   6 total cpu time :   505.6 secs   av.it.:   8.4
      thresh= 1.652E-07 alpha_mix =  0.700 |ddv_scf|^2 =  1.421E-14

      iter #   7 total cpu time :   510.5 secs   av.it.:   8.2
      thresh= 1.192E-08 alpha_mix =  0.700 |ddv_scf|^2 =  6.551E-16

     End of self-consistent calculation

     Convergence has been achieved 


     Representation #  6 mode #   6

     Self-consistent Calculation

      iter #   1 total cpu time :   516.1 secs   av.it.:   5.5
      thresh= 1.000E-02 alpha_mix =  0.700 |ddv_scf|^2 =  1.150E-05

      iter #   2 total cpu time :   521.0 secs   av.it.:   8.4
      thresh= 3.391E-04 alpha_mix =  0.700 |ddv_scf|^2 =  2.410E-06

      iter #   3 total cpu time :   525.5 secs   av.it.:   7.6
      thresh= 1.552E-04 alpha_mix =  0.700 |ddv_scf|^2 =  1.390E-08

      iter #   4 total cpu time :   530.1 secs   av.it.:   8.7
      thresh= 1.179E-05 alpha_mix =  0.700 |ddv_scf|^2 =  4.624E-10

      iter #   5 total cpu time :   534.8 secs   av.it.:   8.1
      thresh= 2.150E-06 alpha_mix =  0.700 |ddv_scf|^2 =  2.730E-12

      iter #   6 total cpu time :   539.6 secs   av.it.:   8.4
      thresh= 1.652E-07 alpha_mix =  0.700 |ddv_scf|^2 =  1.421E-14

      iter #   7 total cpu time :   543.8 secs   av.it.:   8.2
      thresh= 1.192E-08 alpha_mix =  0.700 |ddv_scf|^2 =  6.550E-16

     End of self-consistent calculation

     Convergence has been achieved 
 
     Number of q in the star =    3
     List of q in the star:
          1   0.000000000   0.288675135   0.000000000
          2   0.250000000  -0.144337567   0.000000000
          3  -0.250000000  -0.144337567   0.000000000
     In addition there is the -q list: 
          1   0.000000000  -0.288675135   0.000000000
          2  -0.250000000   0.144337567   0.000000000
          3   0.250000000   0.144337567   0.000000000

     Diagonalizing the dynamical matrix

     q = (    0.000000000   0.288675135   0.000000000 ) 

 **************************************************************************
     freq (    1) =       1.184729 [THz] =      39.518308 [cm-1]
     freq (    2) =       1.465944 [THz] =      48.898633 [cm-1]
     freq (    3) =       2.499279 [THz] =      83.366957 [cm-1]
     freq (    4) =       2.680596 [THz] =      89.415075 [cm-1]
     freq (    5) =       3.280761 [THz] =     109.434406 [cm-1]
     freq (    6) =       3.952054 [THz] =     131.826339 [cm-1]
 **************************************************************************

     Mode symmetry, C_2v (mm2)  point group:

     freq (  1 -  1) =         39.5  [cm-1]   --> B_1  D_3  S_3      
     freq (  2 -  2) =         48.9  [cm-1]   --> B_2  D_4  S_4      
     freq (  3 -  3) =         83.4  [cm-1]   --> B_1  D_3  S_3      
     freq (  4 -  4) =         89.4  [cm-1]   --> A_1  D_1  S_1      
     freq (  5 -  5) =        109.4  [cm-1]   --> A_1  D_1  S_1      
     freq (  6 -  6) =        131.8  [cm-1]   --> B_2  D_4  S_4      

     Calculation of q =    0.0000000   0.2886751   0.1533310
 
     Parallelization info
     --------------------
     sticks:   dense  smooth     PW     G-vecs:    dense   smooth      PW
     Min         133      64     20                 5697     2002     374
     Max         134      65     22                 5700     2015     381
     Sum        1069     517    169                45593    16089    3015
 


     bravais-lattice index     =            4
     lattice parameter (alat)  =       6.9400  a.u.
     unit-cell volume          =     471.9752 (a.u.)^3
     number of atoms/cell      =            2
     number of atomic types    =            1
     number of electrons       =        18.00
     number of Kohn-Sham states=           13
     kinetic-energy cutoff     =      40.0000  Ry
     charge density cutoff     =     320.0000  Ry
     Exchange-correlation      = SLA  PW   PBE  PBE ( 1  4  3  4 0 0)

     celldm(1)=   6.940000  celldm(2)=   0.000000  celldm(3)=   1.630460
     celldm(4)=   0.000000  celldm(5)=   0.000000  celldm(6)=   0.000000

     crystal axes: (cart. coord. in units of alat)
               a(1) = (   1.000000   0.000000   0.000000 )  
               a(2) = (  -0.500000   0.866025   0.000000 )  
               a(3) = (   0.000000   0.000000   1.630460 )  

     reciprocal axes: (cart. coord. in units 2 pi/alat)
               b(1) = (  1.000000  0.577350  0.000000 )  
               b(2) = (  0.000000  1.154701  0.000000 )  
               b(3) = (  0.000000  0.000000  0.613324 )  


     PseudoPot. # 1 for Na read from file:
     ./Na_pbe_v1.uspp.F.UPF
     MD5 check sum: 76a99c7e9422403d3e93cbc85ab7bccb
     Pseudo is Ultrasoft, Zval =  9.0
     Generated by new atomic code, or converted to UPF format
     Using radial grid of  819 points,  5 beta functions with: 
                l(1) =   0
                l(2) =   0
                l(3) =   1
                l(4) =   1
                l(5) =   2
     Q(r) pseudized with  8 coefficients,  rinner =    1.250   1.250   1.250
                                                       1.250   1.250

     atomic species   valence    mass     pseudopotential
        Na             9.00    22.99000     Na( 1.00)

     12 Sym. Ops. (no inversion) found



   Cartesian axes

     site n.     atom                  positions (alat units)
         1           Na  tau(   1) = (   0.0000000   0.0000000   0.0000000  )
         2           Na  tau(   2) = (   0.4999999   0.2886751   0.8152300  )

     number of k points=  7200  Marzari-Vanderbilt smearing, width (Ry)=  0.0200

     Number of k-points >= 100: set verbosity='high' to print them.

     Dense  grid:    45593 G-vectors     FFT dimensions: (  40,  40,  72)

     Smooth grid:    16089 G-vectors     FFT dimensions: (  27,  27,  45)

     Largest allocated arrays     est. size (Mb)     dimensions
        Kohn-Sham Wavefunctions         0.05 Mb     (     268,   13)
        NL pseudopotentials             0.11 Mb     (     268,   26)
        Each V/rho on FFT grid          0.22 Mb     (   14400)
        Each G-vector array             0.04 Mb     (    5699)
        G-vector shells                 0.01 Mb     (    1634)
     Largest temporary arrays     est. size (Mb)     dimensions
        Auxiliary wavefunctions         0.21 Mb     (     268,   52)
        Each subspace H/S matrix        0.01 Mb     (      26,   26)
        Each <psi_i|beta_j> matrix      0.01 Mb     (      26,   13)

     The potential is recalculated from file :
     ./na_hcp_6.94/_ph0/na_hcp_6.94.save/charge-density.dat

     Starting wfc are   10 atomic +    3 random wfc

     Band Structure Calculation
     Davidson diagonalization with overlap

     ethr =  5.56E-11,  avg # of iterations = 22.5

     total cpu time spent up to now is       48.9 secs

     End of band structure calculation

     Number of k-points >= 100: set verbosity='high' to print the bands.

     the Fermi energy is     1.8543 ev

     Writing output data file na_hcp_6.94.save

                                                                                

     bravais-lattice index     =            4
     lattice parameter (alat)  =       6.9400  a.u.
     unit-cell volume          =     471.9752 (a.u.)^3
     number of atoms/cell      =            2
     number of atomic types    =            1
     kinetic-energy cut-off    =      40.0000  Ry
     charge density cut-off    =     320.0000  Ry
     convergence threshold     =      1.0E-15
     beta                      =       0.7000
     number of iterations used =            4
     Exchange-correlation      = SLA  PW   PBE  PBE ( 1  4  3  4 0 0)


     celldm(1)=    6.94000  celldm(2)=    0.00000  celldm(3)=    1.63046
     celldm(4)=    0.00000  celldm(5)=    0.00000  celldm(6)=    0.00000

     crystal axes: (cart. coord. in units of alat)
               a(1) = (  1.0000  0.0000  0.0000 )  
               a(2) = ( -0.5000  0.8660  0.0000 )  
               a(3) = (  0.0000  0.0000  1.6305 )  

     reciprocal axes: (cart. coord. in units 2 pi/alat)
               b(1) = (  1.0000  0.5774  0.0000 )  
               b(2) = (  0.0000  1.1547  0.0000 )  
               b(3) = (  0.0000  0.0000  0.6133 )  


     Atoms inside the unit cell: 

     Cartesian axes

     site n.  atom      mass           positions (alat units)
        1     Na  22.9900   tau(    1) = (    0.00000    0.00000    0.00000  )
        2     Na  22.9900   tau(    2) = (    0.50000    0.28868    0.81523  )

     Computing dynamical matrix for 
                    q = (   0.0000000   0.2886751   0.1533310 )
 
      2 Sym.Ops. (no q -> -q+G )


     G cutoff =  390.3994  (   5699 G-vectors)     FFT grid: ( 40, 40, 72)
     G cutoff =  195.1997  (   2013 G-vectors)  smooth grid: ( 27, 27, 45)

     number of k points=  7200  Marzari-Vanderbilt smearing, width (Ry)=  0.0200

     PseudoPot. # 1 for Na read from file:
     ./Na_pbe_v1.uspp.F.UPF
     MD5 check sum: 76a99c7e9422403d3e93cbc85ab7bccb
     Pseudo is Ultrasoft, Zval =  9.0
     Generated by new atomic code, or converted to UPF format
     Using radial grid of  819 points,  5 beta functions with: 
                l(1) =   0
                l(2) =   0
                l(3) =   1
                l(4) =   1
                l(5) =   2
     Q(r) pseudized with  8 coefficients,  rinner =    1.250   1.250   1.250
                                                       1.250   1.250

     Mode symmetry, C_s (m)     point group:


     Atomic displacements:
     There are   6 irreducible representations

     Representation     1      1 modes -A'  To be done

     Representation     2      1 modes -A'  To be done

     Representation     3      1 modes -A'  To be done

     Representation     4      1 modes -A'  To be done

     Representation     5      1 modes -A''  To be done

     Representation     6      1 modes -A''  To be done



     Alpha used in Ewald sum =   2.8000
     PHONON       :  8m20.09s CPU     9m35.90s WALL



     Representation #  1 mode #   1

     Self-consistent Calculation

      iter #   1 total cpu time :   578.8 secs   av.it.:   5.7
      thresh= 1.000E-02 alpha_mix =  0.700 |ddv_scf|^2 =  2.815E-04

      iter #   2 total cpu time :   588.9 secs   av.it.:   7.5
      thresh= 1.678E-03 alpha_mix =  0.700 |ddv_scf|^2 =  5.458E-03

      iter #   3 total cpu time :   595.1 secs   av.it.:   5.4
      thresh= 7.388E-03 alpha_mix =  0.700 |ddv_scf|^2 =  2.500E-06

      iter #   4 total cpu time :   611.1 secs   av.it.:   7.7
      thresh= 1.581E-04 alpha_mix =  0.700 |ddv_scf|^2 =  3.488E-07

      iter #   5 total cpu time :   620.6 secs   av.it.:   7.7
      thresh= 5.906E-05 alpha_mix =  0.700 |ddv_scf|^2 =  1.570E-09

      iter #   6 total cpu time :   640.9 secs   av.it.:   8.7
      thresh= 3.963E-06 alpha_mix =  0.700 |ddv_scf|^2 =  8.031E-11

      iter #   7 total cpu time :   647.5 secs   av.it.:   8.6
      thresh= 8.962E-07 alpha_mix =  0.700 |ddv_scf|^2 =  1.227E-10

      iter #   8 total cpu time :   657.1 secs   av.it.:   6.8
      thresh= 1.108E-06 alpha_mix =  0.700 |ddv_scf|^2 =  3.818E-11

      iter #   9 total cpu time :   663.9 secs   av.it.:   7.7
      thresh= 6.179E-07 alpha_mix =  0.700 |ddv_scf|^2 =  9.755E-13

      iter #  10 total cpu time :   674.8 secs   av.it.:   7.8
      thresh= 9.877E-08 alpha_mix =  0.700 |ddv_scf|^2 =  8.035E-13

      iter #  11 total cpu time :   681.8 secs   av.it.:   7.5
      thresh= 8.964E-08 alpha_mix =  0.700 |ddv_scf|^2 =  7.824E-15

      iter #  12 total cpu time :   691.0 secs   av.it.:   8.3
      thresh= 8.845E-09 alpha_mix =  0.700 |ddv_scf|^2 =  2.282E-15

      iter #  13 total cpu time :   700.4 secs   av.it.:   8.3
      thresh= 4.777E-09 alpha_mix =  0.700 |ddv_scf|^2 =  8.922E-16

     End of self-consistent calculation

     Convergence has been achieved 


     Representation #  2 mode #   2

     Self-consistent Calculation

      iter #   1 total cpu time :   709.7 secs   av.it.:   5.7
      thresh= 1.000E-02 alpha_mix =  0.700 |ddv_scf|^2 =  4.825E-05

      iter #   2 total cpu time :   717.0 secs   av.it.:   7.8
      thresh= 6.946E-04 alpha_mix =  0.700 |ddv_scf|^2 =  5.705E-04

      iter #   3 total cpu time :   725.7 secs   av.it.:   5.8
      thresh= 2.389E-03 alpha_mix =  0.700 |ddv_scf|^2 =  1.844E-05

      iter #   4 total cpu time :   734.3 secs   av.it.:   7.1
      thresh= 4.294E-04 alpha_mix =  0.700 |ddv_scf|^2 =  8.614E-08

      iter #   5 total cpu time :   744.2 secs   av.it.:   8.5
      thresh= 2.935E-05 alpha_mix =  0.700 |ddv_scf|^2 =  9.788E-10

      iter #   6 total cpu time :   751.6 secs   av.it.:   8.8
      thresh= 3.129E-06 alpha_mix =  0.700 |ddv_scf|^2 =  8.221E-11

      iter #   7 total cpu time :   759.9 secs   av.it.:   8.7
      thresh= 9.067E-07 alpha_mix =  0.700 |ddv_scf|^2 =  5.855E-11

      iter #   8 total cpu time :   768.9 secs   av.it.:   7.7
      thresh= 7.652E-07 alpha_mix =  0.700 |ddv_scf|^2 =  1.877E-10

      iter #   9 total cpu time :   777.8 secs   av.it.:   6.9
      thresh= 1.370E-06 alpha_mix =  0.700 |ddv_scf|^2 =  4.811E-12

      iter #  10 total cpu time :   785.5 secs   av.it.:   7.6
      thresh= 2.193E-07 alpha_mix =  0.700 |ddv_scf|^2 =  3.382E-12

      iter #  11 total cpu time :   793.5 secs   av.it.:   7.6
      thresh= 1.839E-07 alpha_mix =  0.700 |ddv_scf|^2 =  1.839E-14

      iter #  12 total cpu time :   801.8 secs   av.it.:   8.1
      thresh= 1.356E-08 alpha_mix =  0.700 |ddv_scf|^2 =  3.305E-15

      iter #  13 total cpu time :   810.3 secs   av.it.:   8.6
      thresh= 5.749E-09 alpha_mix =  0.700 |ddv_scf|^2 =  7.694E-17

     End of self-consistent calculation

     Convergence has been achieved 


     Representation #  3 mode #   3

     Self-consistent Calculation

      iter #   1 total cpu time :   820.2 secs   av.it.:   5.8
      thresh= 1.000E-02 alpha_mix =  0.700 |ddv_scf|^2 =  3.224E-04

      iter #   2 total cpu time :   828.2 secs   av.it.:   7.5
      thresh= 1.796E-03 alpha_mix =  0.700 |ddv_scf|^2 =  6.336E-03

      iter #   3 total cpu time :   836.8 secs   av.it.:   5.4
      thresh= 7.960E-03 alpha_mix =  0.700 |ddv_scf|^2 =  8.199E-07

      iter #   4 total cpu time :   846.4 secs   av.it.:   7.9
      thresh= 9.055E-05 alpha_mix =  0.700 |ddv_scf|^2 =  3.651E-07

      iter #   5 total cpu time :   854.7 secs   av.it.:   7.6
      thresh= 6.042E-05 alpha_mix =  0.700 |ddv_scf|^2 =  1.931E-09

      iter #   6 total cpu time :   861.2 secs   av.it.:   8.7
      thresh= 4.395E-06 alpha_mix =  0.700 |ddv_scf|^2 =  9.508E-11

      iter #   7 total cpu time :   869.9 secs   av.it.:   8.5
      thresh= 9.751E-07 alpha_mix =  0.700 |ddv_scf|^2 =  2.282E-12

      iter #   8 total cpu time :   877.8 secs   av.it.:   9.1
      thresh= 1.510E-07 alpha_mix =  0.700 |ddv_scf|^2 =  1.990E-13

      iter #   9 total cpu time :   886.8 secs   av.it.:   8.7
      thresh= 4.460E-08 alpha_mix =  0.700 |ddv_scf|^2 =  3.623E-13

      iter #  10 total cpu time :   893.8 secs   av.it.:   6.4
      thresh= 6.019E-08 alpha_mix =  0.700 |ddv_scf|^2 =  7.068E-14

      iter #  11 total cpu time :   901.9 secs   av.it.:   7.0
      thresh= 2.659E-08 alpha_mix =  0.700 |ddv_scf|^2 =  1.503E-14

      iter #  12 total cpu time :   910.7 secs   av.it.:   7.7
      thresh= 1.226E-08 alpha_mix =  0.700 |ddv_scf|^2 =  2.139E-16

     End of self-consistent calculation

     Convergence has been achieved 


     Representation #  4 mode #   4

     Self-consistent Calculation

      iter #   1 total cpu time :   920.0 secs   av.it.:   5.7
      thresh= 1.000E-02 alpha_mix =  0.700 |ddv_scf|^2 =  8.911E-05

      iter #   2 total cpu time :   926.4 secs   av.it.:   7.8
      thresh= 9.440E-04 alpha_mix =  0.700 |ddv_scf|^2 =  1.448E-03

      iter #   3 total cpu time :   934.8 secs   av.it.:   5.6
      thresh= 3.805E-03 alpha_mix =  0.700 |ddv_scf|^2 =  9.175E-06

      iter #   4 total cpu time :   942.5 secs   av.it.:   7.4
      thresh= 3.029E-04 alpha_mix =  0.700 |ddv_scf|^2 =  1.366E-07

      iter #   5 total cpu time :   951.0 secs   av.it.:   8.1
      thresh= 3.695E-05 alpha_mix =  0.700 |ddv_scf|^2 =  1.117E-09

      iter #   6 total cpu time :   960.5 secs   av.it.:   8.8
      thresh= 3.342E-06 alpha_mix =  0.700 |ddv_scf|^2 =  9.574E-11

      iter #   7 total cpu time :   967.5 secs   av.it.:   8.7
      thresh= 9.785E-07 alpha_mix =  0.700 |ddv_scf|^2 =  3.356E-11

      iter #   8 total cpu time :   977.5 secs   av.it.:   8.0
      thresh= 5.793E-07 alpha_mix =  0.700 |ddv_scf|^2 =  2.809E-10

      iter #   9 total cpu time :   985.3 secs   av.it.:   6.6
      thresh= 1.676E-06 alpha_mix =  0.700 |ddv_scf|^2 =  3.322E-12

      iter #  10 total cpu time :   995.6 secs   av.it.:   7.7
      thresh= 1.823E-07 alpha_mix =  0.700 |ddv_scf|^2 =  4.040E-12

      iter #  11 total cpu time :  1004.5 secs   av.it.:   7.5
      thresh= 2.010E-07 alpha_mix =  0.700 |ddv_scf|^2 =  1.041E-14

      iter #  12 total cpu time :  1013.6 secs   av.it.:   8.5
      thresh= 1.020E-08 alpha_mix =  0.700 |ddv_scf|^2 =  3.126E-15

      iter #  13 total cpu time :  1022.8 secs   av.it.:   8.3
      thresh= 5.591E-09 alpha_mix =  0.700 |ddv_scf|^2 =  1.075E-16

     End of self-consistent calculation

     Convergence has been achieved 


     Representation #  5 mode #   5

     Self-consistent Calculation

      iter #   1 total cpu time :  1031.5 secs   av.it.:   5.4
      thresh= 1.000E-02 alpha_mix =  0.700 |ddv_scf|^2 =  4.135E-06

      iter #   2 total cpu time :  1040.6 secs   av.it.:   8.3
      thresh= 2.034E-04 alpha_mix =  0.700 |ddv_scf|^2 =  6.605E-08

      iter #   3 total cpu time :  1049.6 secs   av.it.:   8.5
      thresh= 2.570E-05 alpha_mix =  0.700 |ddv_scf|^2 =  2.915E-09

      iter #   4 total cpu time :  1059.9 secs   av.it.:   8.0
      thresh= 5.399E-06 alpha_mix =  0.700 |ddv_scf|^2 =  1.359E-11

      iter #   5 total cpu time :  1070.8 secs   av.it.:   8.3
      thresh= 3.686E-07 alpha_mix =  0.700 |ddv_scf|^2 =  9.743E-14

      iter #   6 total cpu time :  1082.5 secs   av.it.:   8.5
      thresh= 3.121E-08 alpha_mix =  0.700 |ddv_scf|^2 =  4.347E-16

     End of self-consistent calculation

     Convergence has been achieved 


     Representation #  6 mode #   6

     Self-consistent Calculation

      iter #   1 total cpu time :  1091.8 secs   av.it.:   5.4
      thresh= 1.000E-02 alpha_mix =  0.700 |ddv_scf|^2 =  4.135E-06

      iter #   2 total cpu time :  1100.6 secs   av.it.:   8.3
      thresh= 2.033E-04 alpha_mix =  0.700 |ddv_scf|^2 =  6.609E-08

      iter #   3 total cpu time :  1111.8 secs   av.it.:   8.5
      thresh= 2.571E-05 alpha_mix =  0.700 |ddv_scf|^2 =  2.923E-09

      iter #   4 total cpu time :  1122.4 secs   av.it.:   8.0
      thresh= 5.407E-06 alpha_mix =  0.700 |ddv_scf|^2 =  1.353E-11

      iter #   5 total cpu time :  1132.5 secs   av.it.:   8.3
      thresh= 3.679E-07 alpha_mix =  0.700 |ddv_scf|^2 =  9.728E-14

      iter #   6 total cpu time :  1144.7 secs   av.it.:   8.5
      thresh= 3.119E-08 alpha_mix =  0.700 |ddv_scf|^2 =  4.353E-16

     End of self-consistent calculation

     Convergence has been achieved 
 
     Number of q in the star =    6
     List of q in the star:
          1   0.000000000   0.288675135   0.153330962
          2   0.000000000   0.288675135  -0.153330962
          3   0.250000000  -0.144337567   0.153330962
          4  -0.250000000  -0.144337567   0.153330962
          5   0.250000000  -0.144337567  -0.153330962
          6  -0.250000000  -0.144337567  -0.153330962
     In addition there is the -q list: 
          1   0.000000000  -0.288675135  -0.153330962
          2   0.000000000  -0.288675135   0.153330962
          3  -0.250000000   0.144337567  -0.153330962
          4   0.250000000   0.144337567  -0.153330962
          5  -0.250000000   0.144337567   0.153330962
          6   0.250000000   0.144337567   0.153330962

     Diagonalizing the dynamical matrix

     q = (    0.000000000   0.288675135   0.153330962 ) 

 **************************************************************************
     freq (    1) =       1.442470 [THz] =      48.115610 [cm-1]
     freq (    2) =       1.696380 [THz] =      56.585160 [cm-1]
     freq (    3) =       2.363335 [THz] =      78.832379 [cm-1]
     freq (    4) =       2.946801 [THz] =      98.294712 [cm-1]
     freq (    5) =       3.064673 [THz] =     102.226490 [cm-1]
     freq (    6) =       3.847070 [THz] =     128.324433 [cm-1]
 **************************************************************************

     Mode symmetry, C_s (m)     point group:

     freq (  1 -  1) =         48.1  [cm-1]   --> A''                
     freq (  2 -  2) =         56.6  [cm-1]   --> A'                 
     freq (  3 -  3) =         78.8  [cm-1]   --> A''                
     freq (  4 -  4) =         98.3  [cm-1]   --> A'                 
     freq (  5 -  5) =        102.2  [cm-1]   --> A'                 
     freq (  6 -  6) =        128.3  [cm-1]   --> A'                 

     Calculation of q =    0.0000000   0.2886751  -0.3066619
 
     Parallelization info
     --------------------
     sticks:   dense  smooth     PW     G-vecs:    dense   smooth      PW
     Min         133      64     20                 5697     2003     366
     Max         134      65     21                 5700     2019     373
     Sum        1069     517    163                45593    16089    2947
 


     bravais-lattice index     =            4
     lattice parameter (alat)  =       6.9400  a.u.
     unit-cell volume          =     471.9752 (a.u.)^3
     number of atoms/cell      =            2
     number of atomic types    =            1
     number of electrons       =        18.00
     number of Kohn-Sham states=           13
     kinetic-energy cutoff     =      40.0000  Ry
     charge density cutoff     =     320.0000  Ry
     Exchange-correlation      = SLA  PW   PBE  PBE ( 1  4  3  4 0 0)

     celldm(1)=   6.940000  celldm(2)=   0.000000  celldm(3)=   1.630460
     celldm(4)=   0.000000  celldm(5)=   0.000000  celldm(6)=   0.000000

     crystal axes: (cart. coord. in units of alat)
               a(1) = (   1.000000   0.000000   0.000000 )  
               a(2) = (  -0.500000   0.866025   0.000000 )  
               a(3) = (   0.000000   0.000000   1.630460 )  

     reciprocal axes: (cart. coord. in units 2 pi/alat)
               b(1) = (  1.000000  0.577350  0.000000 )  
               b(2) = (  0.000000  1.154701  0.000000 )  
               b(3) = (  0.000000  0.000000  0.613324 )  


     PseudoPot. # 1 for Na read from file:
     ./Na_pbe_v1.uspp.F.UPF
     MD5 check sum: 76a99c7e9422403d3e93cbc85ab7bccb
     Pseudo is Ultrasoft, Zval =  9.0
     Generated by new atomic code, or converted to UPF format
     Using radial grid of  819 points,  5 beta functions with: 
                l(1) =   0
                l(2) =   0
                l(3) =   1
                l(4) =   1
                l(5) =   2
     Q(r) pseudized with  8 coefficients,  rinner =    1.250   1.250   1.250
                                                       1.250   1.250

     atomic species   valence    mass     pseudopotential
        Na             9.00    22.99000     Na( 1.00)

     12 Sym. Ops. (no inversion) found



   Cartesian axes

     site n.     atom                  positions (alat units)
         1           Na  tau(   1) = (   0.0000000   0.0000000   0.0000000  )
         2           Na  tau(   2) = (   0.4999999   0.2886751   0.8152300  )

     number of k points=  3600  Marzari-Vanderbilt smearing, width (Ry)=  0.0200

     Number of k-points >= 100: set verbosity='high' to print them.

     Dense  grid:    45593 G-vectors     FFT dimensions: (  40,  40,  72)

     Smooth grid:    16089 G-vectors     FFT dimensions: (  27,  27,  45)

     Largest allocated arrays     est. size (Mb)     dimensions
        Kohn-Sham Wavefunctions         0.05 Mb     (     261,   13)
        NL pseudopotentials             0.10 Mb     (     261,   26)
        Each V/rho on FFT grid          0.22 Mb     (   14400)
        Each G-vector array             0.04 Mb     (    5699)
        G-vector shells                 0.01 Mb     (    1669)
     Largest temporary arrays     est. size (Mb)     dimensions
        Auxiliary wavefunctions         0.21 Mb     (     261,   52)
        Each subspace H/S matrix        0.01 Mb     (      26,   26)
        Each <psi_i|beta_j> matrix      0.01 Mb     (      26,   13)

     The potential is recalculated from file :
     ./na_hcp_6.94/_ph0/na_hcp_6.94.save/charge-density.dat

     Starting wfc are   10 atomic +    3 random wfc

     Band Structure Calculation
     Davidson diagonalization with overlap

     ethr =  5.56E-11,  avg # of iterations = 22.5

     total cpu time spent up to now is       68.7 secs

     End of band structure calculation

     Number of k-points >= 100: set verbosity='high' to print the bands.

     the Fermi energy is     1.8543 ev

     Writing output data file na_hcp_6.94.save

                                                                                

     bravais-lattice index     =            4
     lattice parameter (alat)  =       6.9400  a.u.
     unit-cell volume          =     471.9752 (a.u.)^3
     number of atoms/cell      =            2
     number of atomic types    =            1
     kinetic-energy cut-off    =      40.0000  Ry
     charge density cut-off    =     320.0000  Ry
     convergence threshold     =      1.0E-15
     beta                      =       0.7000
     number of iterations used =            4
     Exchange-correlation      = SLA  PW   PBE  PBE ( 1  4  3  4 0 0)


     celldm(1)=    6.94000  celldm(2)=    0.00000  celldm(3)=    1.63046
     celldm(4)=    0.00000  celldm(5)=    0.00000  celldm(6)=    0.00000

     crystal axes: (cart. coord. in units of alat)
               a(1) = (  1.0000  0.0000  0.0000 )  
               a(2) = ( -0.5000  0.8660  0.0000 )  
               a(3) = (  0.0000  0.0000  1.6305 )  

     reciprocal axes: (cart. coord. in units 2 pi/alat)
               b(1) = (  1.0000  0.5774  0.0000 )  
               b(2) = (  0.0000  1.1547  0.0000 )  
               b(3) = (  0.0000  0.0000  0.6133 )  


     Atoms inside the unit cell: 

     Cartesian axes

     site n.  atom      mass           positions (alat units)
        1     Na  22.9900   tau(    1) = (    0.00000    0.00000    0.00000  )
        2     Na  22.9900   tau(    2) = (    0.50000    0.28868    0.81523  )

     Computing dynamical matrix for 
                    q = (   0.0000000   0.2886751  -0.3066619 )
 
      4 Sym.Ops. (no q -> -q+G )


     G cutoff =  390.3994  (   5699 G-vectors)     FFT grid: ( 40, 40, 72)
[...]
   Cartesian axes

     site n.     atom                  positions (alat units)
         1           Na  tau(   1) = (   0.0000000   0.0000000   0.0000000  )
         2           Na  tau(   2) = (   0.4999999   0.2886751   0.8152300  )

     number of k points=  6912  Marzari-Vanderbilt smearing, width (Ry)=  0.0200

     Number of k-points >= 100: set verbosity='high' to print them.

     Dense  grid:    45593 G-vectors     FFT dimensions: (  40,  40,  72)

     Smooth grid:    16089 G-vectors     FFT dimensions: (  27,  27,  45)

     Largest allocated arrays     est. size (Mb)     dimensions
        Kohn-Sham Wavefunctions         0.05 Mb     (     271,   13)
        NL pseudopotentials             0.11 Mb     (     271,   26)
        Each V/rho on FFT grid          0.22 Mb     (   14400)
        Each G-vector array             0.04 Mb     (    5699)
        G-vector shells                 0.01 Mb     (    1635)
     Largest temporary arrays     est. size (Mb)     dimensions
        Auxiliary wavefunctions         0.22 Mb     (     271,   52)
        Each subspace H/S matrix        0.01 Mb     (      26,   26)
        Each <psi_i|beta_j> matrix      0.01 Mb     (      26,   13)

     The potential is recalculated from file :
     ./na_hcp_6.94/_ph0/na_hcp_6.94.save/charge-density.dat

     Starting wfc are   10 atomic +    3 random wfc

     Band Structure Calculation
     Davidson diagonalization with overlap

     ethr =  5.56E-11,  avg # of iterations = 22.3

     total cpu time spent up to now is      242.9 secs

     End of band structure calculation

     Number of k-points >= 100: set verbosity='high' to print the bands.

     the Fermi energy is     1.8543 ev

     Writing output data file na_hcp_6.94.save

                                                                                

     bravais-lattice index     =            4
     lattice parameter (alat)  =       6.9400  a.u.
     unit-cell volume          =     471.9752 (a.u.)^3
     number of atoms/cell      =            2
     number of atomic types    =            1
     kinetic-energy cut-off    =      40.0000  Ry
     charge density cut-off    =     320.0000  Ry
     convergence threshold     =      1.0E-15
     beta                      =       0.7000
     number of iterations used =            4
     Exchange-correlation      = SLA  PW   PBE  PBE ( 1  4  3  4 0 0)


     celldm(1)=    6.94000  celldm(2)=    0.00000  celldm(3)=    1.63046
     celldm(4)=    0.00000  celldm(5)=    0.00000  celldm(6)=    0.00000

     crystal axes: (cart. coord. in units of alat)
               a(1) = (  1.0000  0.0000  0.0000 )  
               a(2) = ( -0.5000  0.8660  0.0000 )  
               a(3) = (  0.0000  0.0000  1.6305 )  

     reciprocal axes: (cart. coord. in units 2 pi/alat)
               b(1) = (  1.0000  0.5774  0.0000 )  
               b(2) = (  0.0000  1.1547  0.0000 )  
               b(3) = (  0.0000  0.0000  0.6133 )  


     Atoms inside the unit cell: 

     Cartesian axes

     site n.  atom      mass           positions (alat units)
        1     Na  22.9900   tau(    1) = (    0.00000    0.00000    0.00000  )
        2     Na  22.9900   tau(    2) = (    0.50000    0.28868    0.81523  )

     Computing dynamical matrix for 
                    q = (   0.2500000   0.4330127  -0.3066619 )
 
      2 Sym.Ops. (no q -> -q+G )


     G cutoff =  390.3994  (   5699 G-vectors)     FFT grid: ( 40, 40, 72)
     G cutoff =  195.1997  (   2005 G-vectors)  smooth grid: ( 27, 27, 45)

     number of k points=  6912  Marzari-Vanderbilt smearing, width (Ry)=  0.0200

     PseudoPot. # 1 for Na read from file:
     ./Na_pbe_v1.uspp.F.UPF
     MD5 check sum: 76a99c7e9422403d3e93cbc85ab7bccb
     Pseudo is Ultrasoft, Zval =  9.0
     Generated by new atomic code, or converted to UPF format
     Using radial grid of  819 points,  5 beta functions with: 
                l(1) =   0
                l(2) =   0
                l(3) =   1
                l(4) =   1
                l(5) =   2
     Q(r) pseudized with  8 coefficients,  rinner =    1.250   1.250   1.250
                                                       1.250   1.250

     Mode symmetry, C_s (m)     point group:


     Atomic displacements:
     There are   6 irreducible representations

     Representation     1      1 modes -A'  To be done

     Representation     2      1 modes -A'  To be done

     Representation     3      1 modes -A'  To be done

     Representation     4      1 modes -A''  To be done

     Representation     5      1 modes -A''  To be done

     Representation     6      1 modes -A''  To be done



     Alpha used in Ewald sum =   2.8000
     PHONON       :     0h56m CPU        1h 2m WALL



     Representation #  1 mode #   1

     Self-consistent Calculation

      iter #   1 total cpu time :  3770.5 secs   av.it.:   5.7
      thresh= 1.000E-02 alpha_mix =  0.700 |ddv_scf|^2 =  2.043E-05

      iter #   2 total cpu time :  3778.4 secs   av.it.:   8.4
      thresh= 4.520E-04 alpha_mix =  0.700 |ddv_scf|^2 =  1.246E-05

      iter #   3 total cpu time :  3785.8 secs   av.it.:   7.7
      thresh= 3.530E-04 alpha_mix =  0.700 |ddv_scf|^2 =  4.095E-08

      iter #   4 total cpu time :  3792.9 secs   av.it.:   8.8
      thresh= 2.024E-05 alpha_mix =  0.700 |ddv_scf|^2 =  1.566E-09

      iter #   5 total cpu time :  3799.7 secs   av.it.:   9.0
      thresh= 3.957E-06 alpha_mix =  0.700 |ddv_scf|^2 =  7.715E-11

      iter #   6 total cpu time :  3807.9 secs   av.it.:   9.0
      thresh= 8.784E-07 alpha_mix =  0.700 |ddv_scf|^2 =  5.507E-12

      iter #   7 total cpu time :  3816.5 secs   av.it.:   8.8
      thresh= 2.347E-07 alpha_mix =  0.700 |ddv_scf|^2 =  3.936E-14

      iter #   8 total cpu time :  3824.6 secs   av.it.:   8.7
      thresh= 1.984E-08 alpha_mix =  0.700 |ddv_scf|^2 =  1.010E-15

      iter #   9 total cpu time :  3832.8 secs   av.it.:   8.5
      thresh= 3.178E-09 alpha_mix =  0.700 |ddv_scf|^2 =  9.649E-17

     End of self-consistent calculation

     Convergence has been achieved 


     Representation #  2 mode #   2

     Self-consistent Calculation

      iter #   1 total cpu time :  3838.5 secs   av.it.:   5.6
      thresh= 1.000E-02 alpha_mix =  0.700 |ddv_scf|^2 =  1.102E-05

      iter #   2 total cpu time :  3847.5 secs   av.it.:   8.6
      thresh= 3.320E-04 alpha_mix =  0.700 |ddv_scf|^2 =  5.330E-06

      iter #   3 total cpu time :  3855.7 secs   av.it.:   7.8
      thresh= 2.309E-04 alpha_mix =  0.700 |ddv_scf|^2 =  6.470E-08

      iter #   4 total cpu time :  3863.5 secs   av.it.:   8.6
      thresh= 2.544E-05 alpha_mix =  0.700 |ddv_scf|^2 =  1.334E-09

      iter #   5 total cpu time :  3870.8 secs   av.it.:   8.6
      thresh= 3.652E-06 alpha_mix =  0.700 |ddv_scf|^2 =  1.125E-10

      iter #   6 total cpu time :  3879.1 secs   av.it.:   8.7
      thresh= 1.060E-06 alpha_mix =  0.700 |ddv_scf|^2 =  3.474E-12

      iter #   7 total cpu time :  3886.8 secs   av.it.:   9.0
      thresh= 1.864E-07 alpha_mix =  0.700 |ddv_scf|^2 =  7.061E-14

      iter #   8 total cpu time :  3895.0 secs   av.it.:   8.9
      thresh= 2.657E-08 alpha_mix =  0.700 |ddv_scf|^2 =  4.312E-15

      iter #   9 total cpu time :  3902.3 secs   av.it.:   8.8
      thresh= 6.566E-09 alpha_mix =  0.700 |ddv_scf|^2 =  1.620E-16

     End of self-consistent calculation

     Convergence has been achieved 


     Representation #  3 mode #   3

     Self-consistent Calculation

      iter #   1 total cpu time :  3909.1 secs   av.it.:   5.7
      thresh= 1.000E-02 alpha_mix =  0.700 |ddv_scf|^2 =  7.942E-06

      iter #   2 total cpu time :  3917.4 secs   av.it.:   8.7
      thresh= 2.818E-04 alpha_mix =  0.700 |ddv_scf|^2 =  1.383E-06

      iter #   3 total cpu time :  3925.7 secs   av.it.:   7.9
      thresh= 1.176E-04 alpha_mix =  0.700 |ddv_scf|^2 =  1.895E-07

      iter #   4 total cpu time :  3933.9 secs   av.it.:   8.0
      thresh= 4.354E-05 alpha_mix =  0.700 |ddv_scf|^2 =  2.625E-09

      iter #   5 total cpu time :  3941.9 secs   av.it.:   8.7
      thresh= 5.124E-06 alpha_mix =  0.700 |ddv_scf|^2 =  4.624E-11

      iter #   6 total cpu time :  3948.4 secs   av.it.:   8.7
      thresh= 6.800E-07 alpha_mix =  0.700 |ddv_scf|^2 =  2.036E-12

      iter #   7 total cpu time :  3956.4 secs   av.it.:   9.2
      thresh= 1.427E-07 alpha_mix =  0.700 |ddv_scf|^2 =  9.334E-14

      iter #   8 total cpu time :  3965.0 secs   av.it.:   9.2
      thresh= 3.055E-08 alpha_mix =  0.700 |ddv_scf|^2 =  9.179E-16

     End of self-consistent calculation

     Convergence has been achieved 


     Representation #  4 mode #   4

     Self-consistent Calculation

      iter #   1 total cpu time :  3973.3 secs   av.it.:   5.6
      thresh= 1.000E-02 alpha_mix =  0.700 |ddv_scf|^2 =  8.111E-06

      iter #   2 total cpu time :  3981.2 secs   av.it.:   8.7
      thresh= 2.848E-04 alpha_mix =  0.700 |ddv_scf|^2 =  1.544E-06

      iter #   3 total cpu time :  3989.1 secs   av.it.:   7.9
      thresh= 1.243E-04 alpha_mix =  0.700 |ddv_scf|^2 =  1.904E-07

      iter #   4 total cpu time :  3997.9 secs   av.it.:   8.0
      thresh= 4.364E-05 alpha_mix =  0.700 |ddv_scf|^2 =  2.537E-09

      iter #   5 total cpu time :  4005.8 secs   av.it.:   8.7
      thresh= 5.037E-06 alpha_mix =  0.700 |ddv_scf|^2 =  4.693E-11

      iter #   6 total cpu time :  4012.7 secs   av.it.:   8.7
      thresh= 6.850E-07 alpha_mix =  0.700 |ddv_scf|^2 =  2.206E-12

      iter #   7 total cpu time :  4021.2 secs   av.it.:   9.2
      thresh= 1.485E-07 alpha_mix =  0.700 |ddv_scf|^2 =  9.861E-14

      iter #   8 total cpu time :  4029.8 secs   av.it.:   9.2
      thresh= 3.140E-08 alpha_mix =  0.700 |ddv_scf|^2 =  9.398E-16

     End of self-consistent calculation

     Convergence has been achieved 


     Representation #  5 mode #   5

     Self-consistent Calculation

      iter #   1 total cpu time :  4038.9 secs   av.it.:   5.6
      thresh= 1.000E-02 alpha_mix =  0.700 |ddv_scf|^2 =  1.102E-05

      iter #   2 total cpu time :  4047.2 secs   av.it.:   8.6
      thresh= 3.320E-04 alpha_mix =  0.700 |ddv_scf|^2 =  5.330E-06

      iter #   3 total cpu time :  4056.8 secs   av.it.:   7.8
      thresh= 2.309E-04 alpha_mix =  0.700 |ddv_scf|^2 =  6.469E-08

      iter #   4 total cpu time :  4066.0 secs   av.it.:   8.6
      thresh= 2.543E-05 alpha_mix =  0.700 |ddv_scf|^2 =  1.335E-09

      iter #   5 total cpu time :  4076.8 secs   av.it.:   8.6
      thresh= 3.654E-06 alpha_mix =  0.700 |ddv_scf|^2 =  1.126E-10

      iter #   6 total cpu time :  4083.3 secs   av.it.:   8.7
      thresh= 1.061E-06 alpha_mix =  0.700 |ddv_scf|^2 =  3.476E-12

      iter #   7 total cpu time :  4093.3 secs   av.it.:   9.0
      thresh= 1.864E-07 alpha_mix =  0.700 |ddv_scf|^2 =  7.062E-14

      iter #   8 total cpu time :  4103.6 secs   av.it.:   8.9
      thresh= 2.657E-08 alpha_mix =  0.700 |ddv_scf|^2 =  4.313E-15

      iter #   9 total cpu time :  4111.7 secs   av.it.:   8.8
      thresh= 6.567E-09 alpha_mix =  0.700 |ddv_scf|^2 =  1.617E-16

     End of self-consistent calculation

     Convergence has been achieved 


     Representation #  6 mode #   6

     Self-consistent Calculation

      iter #   1 total cpu time :  4120.0 secs   av.it.:   5.7
      thresh= 1.000E-02 alpha_mix =  0.700 |ddv_scf|^2 =  2.026E-05

      iter #   2 total cpu time :  4128.4 secs   av.it.:   8.4
      thresh= 4.501E-04 alpha_mix =  0.700 |ddv_scf|^2 =  1.230E-05

      iter #   3 total cpu time :  4137.3 secs   av.it.:   7.7
      thresh= 3.507E-04 alpha_mix =  0.700 |ddv_scf|^2 =  4.164E-08

      iter #   4 total cpu time :  4145.5 secs   av.it.:   8.8
      thresh= 2.041E-05 alpha_mix =  0.700 |ddv_scf|^2 =  1.583E-09

      iter #   5 total cpu time :  4154.1 secs   av.it.:   8.9
      thresh= 3.979E-06 alpha_mix =  0.700 |ddv_scf|^2 =  7.642E-11

      iter #   6 total cpu time :  4162.8 secs   av.it.:   9.0
      thresh= 8.742E-07 alpha_mix =  0.700 |ddv_scf|^2 =  5.519E-12

      iter #   7 total cpu time :  4171.3 secs   av.it.:   8.8
      thresh= 2.349E-07 alpha_mix =  0.700 |ddv_scf|^2 =  3.976E-14

      iter #   8 total cpu time :  4180.6 secs   av.it.:   8.7
      thresh= 1.994E-08 alpha_mix =  0.700 |ddv_scf|^2 =  1.050E-15

      iter #   9 total cpu time :  4188.1 secs   av.it.:   8.5
      thresh= 3.240E-09 alpha_mix =  0.700 |ddv_scf|^2 =  9.387E-17

     End of self-consistent calculation

     Convergence has been achieved 
 
     Number of q in the star =    6
     List of q in the star:
          1   0.250000000   0.433012702  -0.306661924
          2  -0.250000000   0.433012702  -0.306661924
          3   0.250000000  -0.433012702  -0.306661924
          4  -0.500000000   0.000000000  -0.306661924
          5   0.500000000   0.000000000  -0.306661924
          6  -0.250000000  -0.433012702  -0.306661924

     Diagonalizing the dynamical matrix

     q = (    0.250000000   0.433012702  -0.306661924 ) 

 **************************************************************************
     freq (    1) =       2.121237 [THz] =      70.756865 [cm-1]
     freq (    2) =       2.127848 [THz] =      70.977358 [cm-1]
     freq (    3) =       3.197712 [THz] =     106.664193 [cm-1]
     freq (    4) =       3.204428 [THz] =     106.888225 [cm-1]
     freq (    5) =       3.985581 [THz] =     132.944664 [cm-1]
     freq (    6) =       3.992387 [THz] =     133.171712 [cm-1]
 **************************************************************************

     Mode symmetry, C_s (m)     point group:

     freq (  1 -  1) =         70.8  [cm-1]   --> A'                 
     freq (  2 -  2) =         71.0  [cm-1]   --> A''                
     freq (  3 -  3) =        106.7  [cm-1]   --> A'                 
     freq (  4 -  4) =        106.9  [cm-1]   --> A''                
     freq (  5 -  5) =        132.9  [cm-1]   --> A'                 
     freq (  6 -  6) =        133.2  [cm-1]   --> A''                
 
     init_run     :      1.49s CPU      1.67s WALL (      11 calls)
     electrons    :    175.48s CPU    179.60s WALL (      11 calls)

     Called by init_run:
     wfcinit      :      0.00s CPU      0.12s WALL (      11 calls)
     potinit      :      0.32s CPU      0.37s WALL (      11 calls)

     Called by electrons:
     c_bands      :    175.39s CPU    179.51s WALL (      11 calls)
     v_of_rho     :      0.09s CPU      0.09s WALL (      12 calls)
     newd         :      0.12s CPU      0.13s WALL (      12 calls)

     Called by c_bands:
     init_us_2    :      5.55s CPU      5.48s WALL (   80070 calls)
     cegterg      :    103.15s CPU    105.17s WALL (    4151 calls)

     Called by sum_band:

     Called by *egterg:
     h_psi        :     59.85s CPU     61.37s WALL (   67100 calls)
     s_psi        :     67.46s CPU     70.82s WALL ( 1870560 calls)
     g_psi        :      0.55s CPU      0.62s WALL (   60595 calls)
     cdiaghg      :     29.84s CPU     30.45s WALL (   62949 calls)

     Called by h_psi:
     add_vuspsi   :     42.16s CPU     43.61s WALL (  935352 calls)

     General routines
     calbec       :    101.25s CPU    106.75s WALL ( 1990008 calls)
     fft          :      2.71s CPU      2.76s WALL (    9743 calls)
     ffts         :      0.94s CPU      0.95s WALL (    9605 calls)
     fftw         :   2113.90s CPU   2153.22s WALL (14324259 calls)
     interpolate  :      0.57s CPU      0.60s WALL (    1339 calls)
     davcio       :     14.63s CPU    273.76s WALL (  347928 calls)
 
     Parallel routines
     fft_scatter  :   1523.87s CPU   1541.55s WALL (14343607 calls)
 
     PHONON       :     1h 3m CPU        1h 9m WALL

     INITIALIZATION: 
     phq_setup    :      0.36s CPU      0.66s WALL (      12 calls)
     phq_init     :     16.09s CPU     16.75s WALL (      12 calls)
 
     phq_init     :     16.09s CPU     16.75s WALL (      12 calls)
     init_vloc    :      0.11s CPU      0.12s WALL (      12 calls)
     init_us_1    :      0.44s CPU      0.45s WALL (      12 calls)
     newd         :      0.12s CPU      0.13s WALL (      12 calls)
     dvanqq       :      1.38s CPU      1.39s WALL (      12 calls)
     drho         :     11.20s CPU     11.54s WALL (      12 calls)
 
     DYNAMICAL MATRIX:
     dynmat0      :      2.14s CPU      2.31s WALL (      12 calls)
     phqscf       :   3559.37s CPU   3907.91s WALL (      12 calls)
     dynmatrix    :      0.02s CPU      0.21s WALL (      12 calls)
 
     phqscf       :   3559.37s CPU   3907.91s WALL (      12 calls)
     solve_linter :   3555.52s CPU   3901.96s WALL (      66 calls)
     drhodv       :      3.71s CPU      4.03s WALL (      66 calls)
 
     dynmat0      :      2.14s CPU      2.31s WALL (      12 calls)
     dynmat_us    :      2.09s CPU      2.15s WALL (      12 calls)
     d2ionq       :      0.03s CPU      0.03s WALL (      12 calls)
 
     dynmat_us    :      2.09s CPU      2.15s WALL (      12 calls)
     addusdynmat  :      0.00s CPU      0.00s WALL (      12 calls)
 
     phqscf       :   3559.37s CPU   3907.91s WALL (      12 calls)
     solve_linter :   3555.52s CPU   3901.96s WALL (      66 calls)
 
     solve_linter :   3555.52s CPU   3901.96s WALL (      66 calls)
     dvqpsi_us    :     16.42s CPU     17.32s WALL (    7158 calls)
     ortho        :     42.23s CPU     43.81s WALL (   66956 calls)
     cgsolve      :   1040.23s CPU   1079.21s WALL (   66956 calls)
     incdrhoscf   :   1370.69s CPU   1382.32s WALL (   66956 calls)
     addusddens   :      8.75s CPU      8.85s WALL (     650 calls)
     vpsifft      :     72.17s CPU     76.62s WALL (   59798 calls)
     dv_of_drho   :      3.24s CPU      3.27s WALL (     620 calls)
     mix_pot      :      2.75s CPU     13.65s WALL (     584 calls)
     ef_shift     :      0.04s CPU      0.65s WALL (      30 calls)
     localdos     :      0.13s CPU      0.14s WALL (       4 calls)
     psymdvscf    :     16.59s CPU     16.68s WALL (     521 calls)
     newdq        :      7.83s CPU      7.86s WALL (     584 calls)
     adddvscf     :      5.30s CPU      5.71s WALL (   59798 calls)
     drhodvus     :      0.07s CPU      0.07s WALL (      66 calls)
 
     dvqpsi_us    :     16.42s CPU     17.32s WALL (    7158 calls)
     dvqpsi_us_on :      4.17s CPU      4.33s WALL (    7158 calls)
 
     cgsolve      :   1040.23s CPU   1079.21s WALL (   66956 calls)
     ch_psi       :   1001.71s CPU   1038.95s WALL (  868252 calls)
 
     ch_psi       :   1001.71s CPU   1038.95s WALL (  868252 calls)
     h_psiq       :    868.92s CPU    901.08s WALL (  868252 calls)
     last         :    127.19s CPU    132.19s WALL (  868252 calls)
 
     h_psiq       :    868.92s CPU    901.08s WALL (  868252 calls)
     firstfft     :    407.52s CPU    420.65s WALL ( 5419726 calls)
     secondfft    :    309.22s CPU    320.76s WALL ( 5419726 calls)
     add_vuspsi   :     42.16s CPU     43.61s WALL (  935352 calls)
 
     incdrhoscf   :   1370.69s CPU   1382.32s WALL (   66956 calls)
     addusdbec    :      6.56s CPU      6.85s WALL (   74114 calls)
 
     drhodvus     :      0.07s CPU      0.07s WALL (      66 calls)
 
      General routines
     calbec       :    101.25s CPU    106.75s WALL ( 1990008 calls)
     fft          :      2.71s CPU      2.76s WALL (    9743 calls)
     ffts         :      0.94s CPU      0.95s WALL (    9605 calls)
     fftw         :   2113.90s CPU   2153.22s WALL (14324259 calls)
     davcio       :     14.63s CPU    273.76s WALL (  347928 calls)
     write_rec    :      1.24s CPU     19.31s WALL (     650 calls)
 
 
     PHONON       :     1h 3m CPU        1h 9m WALL

 
   This run was terminated on:   0:40:26  28Mar2018            

=------------------------------------------------------------------------------=
   JOB DONE.
=------------------------------------------------------------------------------=
Application 30377827 resources: utime ~740030s, stime ~11090s, Rss ~49864, inblocks ~5969456731, outblocks ~1869148040
