
     Program PHONON v.5.4.0 starts on 26Mar2018 at 23: 3:19 

     This program is part of the open-source Quantum ESPRESSO suite
     for quantum simulation of materials; please cite
         "P. Giannozzi et al., J. Phys.:Condens. Matter 21 395502 (2009);
          URL http://www.quantum-espresso.org", 
     in publications or presentations arising from this work. More details at
     http://www.quantum-espresso.org/quote

     Parallel version (MPI & OpenMP), running on     192 processor cores
     Number of MPI processes:               192
     Threads/MPI process:                     1
     K-points division:     npool     =      24
     R & G space division:  proc/nbgrp/npool/nimage =       8

     Reading data from directory:
     ./na_hcp_6.998233353524401/na_hcp_6.998233353524401.save

   Info: using nr1, nr2, nr3 values from input

   Info: using nr1, nr2, nr3 values from input

     IMPORTANT: XC functional enforced from input :
     Exchange-correlation      = SLA  PW   PBE  PBE ( 1  4  3  4 0 0)
     Any further DFT definition will be discarded
     Please, verify this is what you really want

 
     Parallelization info
     --------------------
     sticks:   dense  smooth     PW     G-vecs:    dense   smooth      PW
     Min         133      68     20                 5837     2054     346
     Max         134      69     21                 5846     2072     351
     Sum        1069     547    163                46733    16515    2779
 


     Dynamical matrices for ( 4, 4, 4)  uniform grid of q-points
     (  12q-points):
       N         xq(1)         xq(2)         xq(3) 
       1   0.000000000   0.000000000   0.000000000
       2   0.000000000   0.000000000   0.153246719
       3   0.000000000   0.000000000  -0.306493439
       4   0.000000000   0.288675135   0.000000000
       5   0.000000000   0.288675135   0.153246719
       6   0.000000000   0.288675135  -0.306493439
       7   0.000000000  -0.577350269   0.000000000
       8   0.000000000  -0.577350269   0.153246719
       9   0.000000000  -0.577350269  -0.306493439
      10   0.250000000   0.433012702   0.000000000
      11   0.250000000   0.433012702   0.153246719
      12   0.250000000   0.433012702  -0.306493439

     Calculation of q =    0.0000000   0.0000000   0.0000000

                                                                                

     bravais-lattice index     =            4
     lattice parameter (alat)  =       6.9982  a.u.
     unit-cell volume          =     484.2222 (a.u.)^3
     number of atoms/cell      =            2
     number of atomic types    =            1
     kinetic-energy cut-off    =      40.0000  Ry
     charge density cut-off    =     320.0000  Ry
     convergence threshold     =      1.0E-15
     beta                      =       0.7000
     number of iterations used =            4
     Exchange-correlation      = SLA  PW   PBE  PBE ( 1  4  3  4 0 0)


     celldm(1)=    6.99823  celldm(2)=    0.00000  celldm(3)=    1.63136
     celldm(4)=    0.00000  celldm(5)=    0.00000  celldm(6)=    0.00000

     crystal axes: (cart. coord. in units of alat)
               a(1) = (  1.0000  0.0000  0.0000 )  
               a(2) = ( -0.5000  0.8660  0.0000 )  
               a(3) = (  0.0000  0.0000  1.6314 )  

     reciprocal axes: (cart. coord. in units 2 pi/alat)
               b(1) = (  1.0000  0.5774  0.0000 )  
               b(2) = (  0.0000  1.1547  0.0000 )  
               b(3) = (  0.0000  0.0000  0.6130 )  


     Atoms inside the unit cell: 

     Cartesian axes

     site n.  atom      mass           positions (alat units)
        1     Na  22.9900   tau(    1) = (    0.00000    0.00000    0.00000  )
        2     Na  22.9900   tau(    2) = (    0.50000    0.28868    0.81568  )

     Computing dynamical matrix for 
                    q = (   0.0000000   0.0000000   0.0000000 )
 
     13 Sym.Ops. (with q -> -q+G )


     G cutoff =  396.9786  (   5844 G-vectors)     FFT grid: ( 40, 40, 72)
     G cutoff =  198.4893  (   2071 G-vectors)  smooth grid: ( 30, 30, 45)

     number of k points=   366  Marzari-Vanderbilt smearing, width (Ry)=  0.0200

     PseudoPot. # 1 for Na read from file:
     ./Na_pbe_v1.uspp.F.UPF
     MD5 check sum: 76a99c7e9422403d3e93cbc85ab7bccb
     Pseudo is Ultrasoft, Zval =  9.0
     Generated by new atomic code, or converted to UPF format
     Using radial grid of  819 points,  5 beta functions with: 
                l(1) =   0
                l(2) =   0
                l(3) =   1
                l(4) =   1
                l(5) =   2
     Q(r) pseudized with  8 coefficients,  rinner =    1.250   1.250   1.250
                                                       1.250   1.250

     Mode symmetry, D_3h (-62m) point group:


     Atomic displacements:
     There are   4 irreducible representations

     Representation     1      2 modes -E'  To be done

     Representation     2      2 modes -E'  To be done

     Representation     3      1 modes -A''2  To be done

     Representation     4      1 modes -A''2  To be done



     Alpha used in Ewald sum =   2.8000
     PHONON       :     5.62s CPU         8.74s WALL



     Representation #  1 modes #   1  2

     Self-consistent Calculation
 
     Pert. #  1: Fermi energy shift (Ry) =     0.0000E+00     0.0000E+00
     Pert. #  2: Fermi energy shift (Ry) =    -1.0842E-19     0.0000E+00

      iter #   1 total cpu time :    11.2 secs   av.it.:   5.2
      thresh= 1.000E-02 alpha_mix =  0.700 |ddv_scf|^2 =  9.390E-07
 
     Pert. #  1: Fermi energy shift (Ry) =     0.0000E+00     0.0000E+00
     Pert. #  2: Fermi energy shift (Ry) =     2.2588E-20     0.0000E+00

      iter #   2 total cpu time :    13.2 secs   av.it.:   8.7
      thresh= 9.690E-05 alpha_mix =  0.700 |ddv_scf|^2 =  1.683E-08
 
     Pert. #  1: Fermi energy shift (Ry) =     1.1294E-21     0.0000E+00
     Pert. #  2: Fermi energy shift (Ry) =     1.1294E-21     0.0000E+00

      iter #   3 total cpu time :    15.3 secs   av.it.:   8.9
      thresh= 1.297E-05 alpha_mix =  0.700 |ddv_scf|^2 =  4.438E-10
 
     Pert. #  1: Fermi energy shift (Ry) =    -1.1294E-21     0.0000E+00
     Pert. #  2: Fermi energy shift (Ry) =     3.3881E-21     0.0000E+00

      iter #   4 total cpu time :    18.0 secs   av.it.:   8.4
      thresh= 2.107E-06 alpha_mix =  0.700 |ddv_scf|^2 =  1.559E-12
 
     Pert. #  1: Fermi energy shift (Ry) =     5.6469E-22     0.0000E+00
     Pert. #  2: Fermi energy shift (Ry) =    -1.1294E-21     0.0000E+00

      iter #   5 total cpu time :    20.8 secs   av.it.:   8.9
      thresh= 1.249E-07 alpha_mix =  0.700 |ddv_scf|^2 =  5.849E-15
 
     Pert. #  1: Fermi energy shift (Ry) =    -1.6941E-21     0.0000E+00
     Pert. #  2: Fermi energy shift (Ry) =     0.0000E+00     0.0000E+00

      iter #   6 total cpu time :    23.7 secs   av.it.:   8.6
      thresh= 7.648E-09 alpha_mix =  0.700 |ddv_scf|^2 =  1.054E-16

     End of self-consistent calculation

     Convergence has been achieved 


     Representation #  2 modes #   3  4

     Self-consistent Calculation
 
     Pert. #  1: Fermi energy shift (Ry) =     0.0000E+00    -1.0031E-36
     Pert. #  2: Fermi energy shift (Ry) =     1.0842E-19     1.5046E-36

      iter #   1 total cpu time :    37.8 secs   av.it.:   5.2
      thresh= 1.000E-02 alpha_mix =  0.700 |ddv_scf|^2 =  9.389E-07
 
     Pert. #  1: Fermi energy shift (Ry) =    -9.0350E-21     1.3469E-39
     Pert. #  2: Fermi energy shift (Ry) =     3.6140E-20    -4.8979E-40

      iter #   2 total cpu time :    40.4 secs   av.it.:   8.7
      thresh= 9.690E-05 alpha_mix =  0.700 |ddv_scf|^2 =  1.683E-08
 
     Pert. #  1: Fermi energy shift (Ry) =    -7.9056E-21     3.0612E-41
     Pert. #  2: Fermi energy shift (Ry) =     1.1294E-20    -1.8367E-40

      iter #   3 total cpu time :    41.8 secs   av.it.:   8.9
      thresh= 1.297E-05 alpha_mix =  0.700 |ddv_scf|^2 =  4.451E-10
 
     Pert. #  1: Fermi energy shift (Ry) =    -7.9056E-21    -1.8367E-40
     Pert. #  2: Fermi energy shift (Ry) =     3.9528E-21     2.4489E-40

      iter #   4 total cpu time :    44.2 secs   av.it.:   8.5
      thresh= 2.110E-06 alpha_mix =  0.700 |ddv_scf|^2 =  1.552E-12
 
     Pert. #  1: Fermi energy shift (Ry) =    -2.2588E-21    -9.5662E-43
     Pert. #  2: Fermi energy shift (Ry) =     5.6469E-21     1.0762E-42

      iter #   5 total cpu time :    46.4 secs   av.it.:   8.9
      thresh= 1.246E-07 alpha_mix =  0.700 |ddv_scf|^2 =  5.850E-15
 
     Pert. #  1: Fermi energy shift (Ry) =    -5.0822E-21     5.7397E-42
     Pert. #  2: Fermi energy shift (Ry) =     7.9056E-21     9.5662E-43

      iter #   6 total cpu time :    49.9 secs   av.it.:   8.7
      thresh= 7.649E-09 alpha_mix =  0.700 |ddv_scf|^2 =  1.054E-16

     End of self-consistent calculation

     Convergence has been achieved 


     Representation #  3 mode #   5

     Self-consistent Calculation
 
     Pert. #  1: Fermi energy shift (Ry) =     0.0000E+00     0.0000E+00

      iter #   1 total cpu time :    52.3 secs   av.it.:   5.5
      thresh= 1.000E-02 alpha_mix =  0.700 |ddv_scf|^2 =  2.030E-05
 
     Pert. #  1: Fermi energy shift (Ry) =     1.1294E-21     0.0000E+00

      iter #   2 total cpu time :    54.1 secs   av.it.:   8.0
      thresh= 4.505E-04 alpha_mix =  0.700 |ddv_scf|^2 =  1.139E-05
 
     Pert. #  1: Fermi energy shift (Ry) =    -5.6469E-22     0.0000E+00

      iter #   3 total cpu time :    55.4 secs   av.it.:   7.0
      thresh= 3.375E-04 alpha_mix =  0.700 |ddv_scf|^2 =  1.909E-08
 
     Pert. #  1: Fermi energy shift (Ry) =     0.0000E+00     0.0000E+00

      iter #   4 total cpu time :    56.6 secs   av.it.:   8.4
      thresh= 1.382E-05 alpha_mix =  0.700 |ddv_scf|^2 =  4.008E-10
 
     Pert. #  1: Fermi energy shift (Ry) =     0.0000E+00     0.0000E+00

      iter #   5 total cpu time :    58.9 secs   av.it.:   7.9
      thresh= 2.002E-06 alpha_mix =  0.700 |ddv_scf|^2 =  3.081E-12
 
     Pert. #  1: Fermi energy shift (Ry) =     0.0000E+00     0.0000E+00

      iter #   6 total cpu time :    60.1 secs   av.it.:   8.0
      thresh= 1.755E-07 alpha_mix =  0.700 |ddv_scf|^2 =  3.147E-14
 
     Pert. #  1: Fermi energy shift (Ry) =     2.8234E-22     0.0000E+00

      iter #   7 total cpu time :    62.8 secs   av.it.:   8.2
      thresh= 1.774E-08 alpha_mix =  0.700 |ddv_scf|^2 =  6.050E-16

     End of self-consistent calculation

     Convergence has been achieved 


     Representation #  4 mode #   6

     Self-consistent Calculation
 
     Pert. #  1: Fermi energy shift (Ry) =     9.0350E-21     0.0000E+00

      iter #   1 total cpu time :    64.9 secs   av.it.:   5.5
      thresh= 1.000E-02 alpha_mix =  0.700 |ddv_scf|^2 =  2.030E-05
 
     Pert. #  1: Fermi energy shift (Ry) =     0.0000E+00     0.0000E+00

      iter #   2 total cpu time :    66.8 secs   av.it.:   8.0
      thresh= 4.505E-04 alpha_mix =  0.700 |ddv_scf|^2 =  1.139E-05
 
     Pert. #  1: Fermi energy shift (Ry) =    -5.6469E-22     0.0000E+00

      iter #   3 total cpu time :    68.2 secs   av.it.:   7.0
      thresh= 3.375E-04 alpha_mix =  0.700 |ddv_scf|^2 =  1.909E-08
 
     Pert. #  1: Fermi energy shift (Ry) =     1.4117E-22     0.0000E+00

      iter #   4 total cpu time :    69.7 secs   av.it.:   8.4
      thresh= 1.382E-05 alpha_mix =  0.700 |ddv_scf|^2 =  4.010E-10
 
     Pert. #  1: Fermi energy shift (Ry) =    -2.8234E-22     0.0000E+00

      iter #   5 total cpu time :    70.8 secs   av.it.:   7.9
      thresh= 2.002E-06 alpha_mix =  0.700 |ddv_scf|^2 =  3.081E-12
 
     Pert. #  1: Fermi energy shift (Ry) =    -2.8234E-22     0.0000E+00

      iter #   6 total cpu time :    72.4 secs   av.it.:   8.0
      thresh= 1.755E-07 alpha_mix =  0.700 |ddv_scf|^2 =  3.146E-14
 
     Pert. #  1: Fermi energy shift (Ry) =    -2.8234E-22     0.0000E+00

      iter #   7 total cpu time :    74.7 secs   av.it.:   8.2
      thresh= 1.774E-08 alpha_mix =  0.700 |ddv_scf|^2 =  6.049E-16

     End of self-consistent calculation

     Convergence has been achieved 
 
     Number of q in the star =    1
     List of q in the star:
          1   0.000000000   0.000000000   0.000000000

     Diagonalizing the dynamical matrix

     q = (    0.000000000   0.000000000   0.000000000 ) 

 **************************************************************************
     freq (    1) =      -0.554557 [THz] =     -18.498040 [cm-1]
     freq (    2) =      -0.554557 [THz] =     -18.498040 [cm-1]
     freq (    3) =       0.564111 [THz] =      18.816719 [cm-1]
     freq (    4) =       1.683758 [THz] =      56.164129 [cm-1]
     freq (    5) =       1.683758 [THz] =      56.164129 [cm-1]
     freq (    6) =       4.027648 [THz] =     134.347891 [cm-1]
 **************************************************************************

     Mode symmetry, D_3h (-62m) point group:

     freq (  1 -  2) =        -18.5  [cm-1]   --> E'              I+R
     freq (  3 -  3) =         18.8  [cm-1]   --> A''2            I  
     freq (  4 -  5) =         56.2  [cm-1]   --> E'              I+R
     freq (  6 -  6) =        134.3  [cm-1]   --> A''2            I  

     Calculation of q =    0.0000000   0.0000000   0.1532467
 
     Parallelization info
     --------------------
     sticks:   dense  smooth     PW     G-vecs:    dense   smooth      PW
     Min         133      68     20                 5837     2056     354
     Max         134      69     21                 5846     2072     361
     Sum        1069     547    163                46733    16515    2851
 


     bravais-lattice index     =            4
     lattice parameter (alat)  =       6.9982  a.u.
     unit-cell volume          =     484.2222 (a.u.)^3
     number of atoms/cell      =            2
     number of atomic types    =            1
     number of electrons       =        18.00
     number of Kohn-Sham states=           13
     kinetic-energy cutoff     =      40.0000  Ry
     charge density cutoff     =     320.0000  Ry
     Exchange-correlation      = SLA  PW   PBE  PBE ( 1  4  3  4 0 0)

     celldm(1)=   6.998233  celldm(2)=   0.000000  celldm(3)=   1.631356
     celldm(4)=   0.000000  celldm(5)=   0.000000  celldm(6)=   0.000000

     crystal axes: (cart. coord. in units of alat)
               a(1) = (   1.000000   0.000000   0.000000 )  
               a(2) = (  -0.500000   0.866025   0.000000 )  
               a(3) = (   0.000000   0.000000   1.631356 )  

     reciprocal axes: (cart. coord. in units 2 pi/alat)
               b(1) = (  1.000000  0.577350  0.000000 )  
               b(2) = (  0.000000  1.154701  0.000000 )  
               b(3) = (  0.000000  0.000000  0.612987 )  


     PseudoPot. # 1 for Na read from file:
     ./Na_pbe_v1.uspp.F.UPF
     MD5 check sum: 76a99c7e9422403d3e93cbc85ab7bccb
     Pseudo is Ultrasoft, Zval =  9.0
     Generated by new atomic code, or converted to UPF format
     Using radial grid of  819 points,  5 beta functions with: 
                l(1) =   0
                l(2) =   0
                l(3) =   1
                l(4) =   1
                l(5) =   2
     Q(r) pseudized with  8 coefficients,  rinner =    1.250   1.250   1.250
                                                       1.250   1.250

     atomic species   valence    mass     pseudopotential
        Na             9.00    22.99000     Na( 1.00)

     12 Sym. Ops. (no inversion) found



   Cartesian axes

     site n.     atom                  positions (alat units)
         1           Na  tau(   1) = (   0.0000000   0.0000000   0.0000000  )
         2           Na  tau(   2) = (   0.4999999   0.2886751   0.8156781  )

     number of k points=  2616  Marzari-Vanderbilt smearing, width (Ry)=  0.0200

     Number of k-points >= 100: set verbosity='high' to print them.

     Dense  grid:    46733 G-vectors     FFT dimensions: (  40,  40,  72)

     Smooth grid:    16515 G-vectors     FFT dimensions: (  30,  30,  45)

     Largest allocated arrays     est. size (Mb)     dimensions
        Kohn-Sham Wavefunctions         0.05 Mb     (     269,   13)
        NL pseudopotentials             0.11 Mb     (     269,   26)
        Each V/rho on FFT grid          0.22 Mb     (   14400)
        Each G-vector array             0.04 Mb     (    5844)
        G-vector shells                 0.01 Mb     (    1805)
     Largest temporary arrays     est. size (Mb)     dimensions
        Auxiliary wavefunctions         0.21 Mb     (     269,   52)
        Each subspace H/S matrix        0.01 Mb     (      26,   26)
        Each <psi_i|beta_j> matrix      0.01 Mb     (      26,   13)

     The potential is recalculated from file :
     ./na_hcp_6.998233353524401/_ph0/na_hcp_6.998233353524401.save/charge-density.dat

     Starting wfc are   10 atomic +    3 random wfc

     Band Structure Calculation
     Davidson diagonalization with overlap

     ethr =  5.56E-11,  avg # of iterations = 23.2

     total cpu time spent up to now is        8.0 secs

     End of band structure calculation

     Number of k-points >= 100: set verbosity='high' to print the bands.

     the Fermi energy is     1.7424 ev

     Writing output data file na_hcp_6.998233353524401.save

                                                                                

     bravais-lattice index     =            4
     lattice parameter (alat)  =       6.9982  a.u.
     unit-cell volume          =     484.2222 (a.u.)^3
     number of atoms/cell      =            2
     number of atomic types    =            1
     kinetic-energy cut-off    =      40.0000  Ry
     charge density cut-off    =     320.0000  Ry
     convergence threshold     =      1.0E-15
     beta                      =       0.7000
     number of iterations used =            4
     Exchange-correlation      = SLA  PW   PBE  PBE ( 1  4  3  4 0 0)


     celldm(1)=    6.99823  celldm(2)=    0.00000  celldm(3)=    1.63136
     celldm(4)=    0.00000  celldm(5)=    0.00000  celldm(6)=    0.00000

     crystal axes: (cart. coord. in units of alat)
               a(1) = (  1.0000  0.0000  0.0000 )  
               a(2) = ( -0.5000  0.8660  0.0000 )  
               a(3) = (  0.0000  0.0000  1.6314 )  

     reciprocal axes: (cart. coord. in units 2 pi/alat)
               b(1) = (  1.0000  0.5774  0.0000 )  
               b(2) = (  0.0000  1.1547  0.0000 )  
               b(3) = (  0.0000  0.0000  0.6130 )  


     Atoms inside the unit cell: 

     Cartesian axes

     site n.  atom      mass           positions (alat units)
        1     Na  22.9900   tau(    1) = (    0.00000    0.00000    0.00000  )
        2     Na  22.9900   tau(    2) = (    0.50000    0.28868    0.81568  )

     Computing dynamical matrix for 
                    q = (   0.0000000   0.0000000   0.1532467 )
 
      6 Sym.Ops. (no q -> -q+G )


     G cutoff =  396.9786  (   5844 G-vectors)     FFT grid: ( 40, 40, 72)
     G cutoff =  198.4893  (   2071 G-vectors)  smooth grid: ( 30, 30, 45)

     number of k points=  2616  Marzari-Vanderbilt smearing, width (Ry)=  0.0200

     PseudoPot. # 1 for Na read from file:
     ./Na_pbe_v1.uspp.F.UPF
     MD5 check sum: 76a99c7e9422403d3e93cbc85ab7bccb
     Pseudo is Ultrasoft, Zval =  9.0
     Generated by new atomic code, or converted to UPF format
     Using radial grid of  819 points,  5 beta functions with: 
                l(1) =   0
                l(2) =   0
                l(3) =   1
                l(4) =   1
                l(5) =   2
     Q(r) pseudized with  8 coefficients,  rinner =    1.250   1.250   1.250
                                                       1.250   1.250

     Mode symmetry, C_3v (3m)   point group:


     Atomic displacements:
     There are   4 irreducible representations

     Representation     1      1 modes -A_1  L_1  To be done

     Representation     2      1 modes -A_1  L_1  To be done

     Representation     3      2 modes -E    L_3  To be done

     Representation     4      2 modes -E    L_3  To be done



     Alpha used in Ewald sum =   2.8000
     PHONON       :  1m16.77s CPU     1m28.72s WALL



     Representation #  1 mode #   1

     Self-consistent Calculation

      iter #   1 total cpu time :    90.3 secs   av.it.:   5.8
      thresh= 1.000E-02 alpha_mix =  0.700 |ddv_scf|^2 =  3.064E-02

      iter #   2 total cpu time :    95.2 secs   av.it.:   6.8
      thresh= 1.000E-02 alpha_mix =  0.700 |ddv_scf|^2 =  1.683E+01

      iter #   3 total cpu time :   100.6 secs   av.it.:   6.7
      thresh= 1.000E-02 alpha_mix =  0.700 |ddv_scf|^2 =  2.001E-04

      iter #   4 total cpu time :   106.2 secs   av.it.:   7.3
      thresh= 1.415E-03 alpha_mix =  0.700 |ddv_scf|^2 =  3.606E-04

      iter #   5 total cpu time :   111.4 secs   av.it.:   6.4
      thresh= 1.899E-03 alpha_mix =  0.700 |ddv_scf|^2 =  1.253E-08

      iter #   6 total cpu time :   116.4 secs   av.it.:   8.3
      thresh= 1.119E-05 alpha_mix =  0.700 |ddv_scf|^2 =  1.526E-08

      iter #   7 total cpu time :   123.5 secs   av.it.:   5.5
      thresh= 1.235E-05 alpha_mix =  0.700 |ddv_scf|^2 =  9.910E-08

      iter #   8 total cpu time :   129.5 secs   av.it.:   6.2
      thresh= 3.148E-05 alpha_mix =  0.700 |ddv_scf|^2 =  3.850E-10

      iter #   9 total cpu time :   141.7 secs   av.it.:   7.4
      thresh= 1.962E-06 alpha_mix =  0.700 |ddv_scf|^2 =  6.299E-09

      iter #  10 total cpu time :   151.4 secs   av.it.:   6.0
      thresh= 7.937E-06 alpha_mix =  0.700 |ddv_scf|^2 =  2.341E-12

      iter #  11 total cpu time :   158.8 secs   av.it.:   8.0
      thresh= 1.530E-07 alpha_mix =  0.700 |ddv_scf|^2 =  8.130E-13

      iter #  12 total cpu time :   165.2 secs   av.it.:   7.2
      thresh= 9.017E-08 alpha_mix =  0.700 |ddv_scf|^2 =  5.828E-14

      iter #  13 total cpu time :   173.0 secs   av.it.:   8.3
      thresh= 2.414E-08 alpha_mix =  0.700 |ddv_scf|^2 =  4.313E-12

      iter #  14 total cpu time :   178.3 secs   av.it.:   3.5
      thresh= 2.077E-07 alpha_mix =  0.700 |ddv_scf|^2 =  8.548E-15

      iter #  15 total cpu time :   184.1 secs   av.it.:   7.9
      thresh= 9.245E-09 alpha_mix =  0.700 |ddv_scf|^2 =  1.040E-14

      iter #  16 total cpu time :   190.3 secs   av.it.:   6.0
      thresh= 1.020E-08 alpha_mix =  0.700 |ddv_scf|^2 =  6.460E-15

      iter #  17 total cpu time :   194.7 secs   av.it.:   6.7
      thresh= 8.037E-09 alpha_mix =  0.700 |ddv_scf|^2 =  2.827E-17

     End of self-consistent calculation

     Convergence has been achieved 


     Representation #  2 mode #   2

     Self-consistent Calculation

      iter #   1 total cpu time :   200.7 secs   av.it.:   5.8
      thresh= 1.000E-02 alpha_mix =  0.700 |ddv_scf|^2 =  3.064E-02

      iter #   2 total cpu time :   208.1 secs   av.it.:   6.8
      thresh= 1.000E-02 alpha_mix =  0.700 |ddv_scf|^2 =  1.683E+01

      iter #   3 total cpu time :   213.8 secs   av.it.:   6.7
      thresh= 1.000E-02 alpha_mix =  0.700 |ddv_scf|^2 =  2.001E-04

      iter #   4 total cpu time :   219.1 secs   av.it.:   7.3
      thresh= 1.415E-03 alpha_mix =  0.700 |ddv_scf|^2 =  3.606E-04

      iter #   5 total cpu time :   230.3 secs   av.it.:   6.4
      thresh= 1.899E-03 alpha_mix =  0.700 |ddv_scf|^2 =  1.287E-08

      iter #   6 total cpu time :   235.1 secs   av.it.:   8.3
      thresh= 1.135E-05 alpha_mix =  0.700 |ddv_scf|^2 =  2.146E-07

      iter #   7 total cpu time :   239.5 secs   av.it.:   3.6
      thresh= 4.632E-05 alpha_mix =  0.700 |ddv_scf|^2 =  8.888E-09

      iter #   8 total cpu time :   246.2 secs   av.it.:   7.4
      thresh= 9.428E-06 alpha_mix =  0.700 |ddv_scf|^2 =  3.803E-10

      iter #   9 total cpu time :   251.6 secs   av.it.:   7.4
      thresh= 1.950E-06 alpha_mix =  0.700 |ddv_scf|^2 =  6.279E-09

      iter #  10 total cpu time :   257.5 secs   av.it.:   6.0
      thresh= 7.924E-06 alpha_mix =  0.700 |ddv_scf|^2 =  2.507E-12

      iter #  11 total cpu time :   262.9 secs   av.it.:   8.0
      thresh= 1.583E-07 alpha_mix =  0.700 |ddv_scf|^2 =  5.117E-13

      iter #  12 total cpu time :   267.5 secs   av.it.:   7.3
      thresh= 7.153E-08 alpha_mix =  0.700 |ddv_scf|^2 =  2.031E-13

      iter #  13 total cpu time :   272.6 secs   av.it.:   7.3
      thresh= 4.506E-08 alpha_mix =  0.700 |ddv_scf|^2 =  1.839E-11

      iter #  14 total cpu time :   278.5 secs   av.it.:   5.2
      thresh= 4.289E-07 alpha_mix =  0.700 |ddv_scf|^2 =  1.380E-15

      iter #  15 total cpu time :   284.1 secs   av.it.:   8.8
      thresh= 3.714E-09 alpha_mix =  0.700 |ddv_scf|^2 =  1.253E-14

      iter #  16 total cpu time :   289.7 secs   av.it.:   5.9
      thresh= 1.119E-08 alpha_mix =  0.700 |ddv_scf|^2 =  7.526E-15

      iter #  17 total cpu time :   296.1 secs   av.it.:   6.7
      thresh= 8.675E-09 alpha_mix =  0.700 |ddv_scf|^2 =  2.331E-17

     End of self-consistent calculation

     Convergence has been achieved 


     Representation #  3 modes #   3  4

     Self-consistent Calculation

      iter #   1 total cpu time :   304.9 secs   av.it.:   5.2
      thresh= 1.000E-02 alpha_mix =  0.700 |ddv_scf|^2 =  9.379E-07

      iter #   2 total cpu time :   315.4 secs   av.it.:   8.7
      thresh= 9.685E-05 alpha_mix =  0.700 |ddv_scf|^2 =  1.684E-08

      iter #   3 total cpu time :   324.0 secs   av.it.:   9.0
      thresh= 1.298E-05 alpha_mix =  0.700 |ddv_scf|^2 =  4.368E-10

      iter #   4 total cpu time :   334.7 secs   av.it.:   8.6
      thresh= 2.090E-06 alpha_mix =  0.700 |ddv_scf|^2 =  1.491E-12

      iter #   5 total cpu time :   342.5 secs   av.it.:   9.0
      thresh= 1.221E-07 alpha_mix =  0.700 |ddv_scf|^2 =  4.330E-15

      iter #   6 total cpu time :   355.4 secs   av.it.:   8.6
      thresh= 6.580E-09 alpha_mix =  0.700 |ddv_scf|^2 =  1.005E-16

     End of self-consistent calculation

     Convergence has been achieved 


     Representation #  4 modes #   5  6

     Self-consistent Calculation

      iter #   1 total cpu time :   366.9 secs   av.it.:   5.2
      thresh= 1.000E-02 alpha_mix =  0.700 |ddv_scf|^2 =  9.379E-07

      iter #   2 total cpu time :   374.9 secs   av.it.:   8.7
      thresh= 9.684E-05 alpha_mix =  0.700 |ddv_scf|^2 =  1.685E-08

      iter #   3 total cpu time :   384.2 secs   av.it.:   9.0
      thresh= 1.298E-05 alpha_mix =  0.700 |ddv_scf|^2 =  4.382E-10

      iter #   4 total cpu time :   392.4 secs   av.it.:   8.5
      thresh= 2.093E-06 alpha_mix =  0.700 |ddv_scf|^2 =  1.484E-12

      iter #   5 total cpu time :   402.7 secs   av.it.:   9.0
      thresh= 1.218E-07 alpha_mix =  0.700 |ddv_scf|^2 =  4.334E-15

      iter #   6 total cpu time :   412.0 secs   av.it.:   8.6
      thresh= 6.583E-09 alpha_mix =  0.700 |ddv_scf|^2 =  1.006E-16

     End of self-consistent calculation

     Convergence has been achieved 
 
     Number of q in the star =    2
     List of q in the star:
          1   0.000000000   0.000000000   0.153246719
          2   0.000000000   0.000000000  -0.153246719

     Diagonalizing the dynamical matrix

     q = (    0.000000000   0.000000000   0.153246719 ) 

 **************************************************************************
     freq (    1) =       0.408165 [THz] =      13.614916 [cm-1]
     freq (    2) =       0.408165 [THz] =      13.614916 [cm-1]
     freq (    3) =       1.561158 [THz] =      52.074634 [cm-1]
     freq (    4) =       1.561158 [THz] =      52.074634 [cm-1]
     freq (    5) =       1.637759 [THz] =      54.629745 [cm-1]
     freq (    6) =       3.786660 [THz] =     126.309366 [cm-1]
 **************************************************************************

     Mode symmetry, C_3v (3m)   point group:

     freq (  1 -  2) =         13.6  [cm-1]   --> E    L_3           
     freq (  3 -  4) =         52.1  [cm-1]   --> E    L_3           
     freq (  5 -  5) =         54.6  [cm-1]   --> A_1  L_1           
     freq (  6 -  6) =        126.3  [cm-1]   --> A_1  L_1           

     Calculation of q =    0.0000000   0.0000000  -0.3064934
 
     Parallelization info
     --------------------
     sticks:   dense  smooth     PW     G-vecs:    dense   smooth      PW
     Min         133      68     20                 5837     2054     346
     Max         134      69     21                 5846     2072     351
     Sum        1069     547    163                46733    16515    2779
 


     bravais-lattice index     =            4
     lattice parameter (alat)  =       6.9982  a.u.
     unit-cell volume          =     484.2222 (a.u.)^3
     number of atoms/cell      =            2
     number of atomic types    =            1
     number of electrons       =        18.00
     number of Kohn-Sham states=           13
     kinetic-energy cutoff     =      40.0000  Ry
     charge density cutoff     =     320.0000  Ry
     Exchange-correlation      = SLA  PW   PBE  PBE ( 1  4  3  4 0 0)

     celldm(1)=   6.998233  celldm(2)=   0.000000  celldm(3)=   1.631356
     celldm(4)=   0.000000  celldm(5)=   0.000000  celldm(6)=   0.000000

     crystal axes: (cart. coord. in units of alat)
               a(1) = (   1.000000   0.000000   0.000000 )  
               a(2) = (  -0.500000   0.866025   0.000000 )  
               a(3) = (   0.000000   0.000000   1.631356 )  

     reciprocal axes: (cart. coord. in units 2 pi/alat)
               b(1) = (  1.000000  0.577350  0.000000 )  
               b(2) = (  0.000000  1.154701  0.000000 )  
               b(3) = (  0.000000  0.000000  0.612987 )  


     PseudoPot. # 1 for Na read from file:
     ./Na_pbe_v1.uspp.F.UPF
     MD5 check sum: 76a99c7e9422403d3e93cbc85ab7bccb
     Pseudo is Ultrasoft, Zval =  9.0
     Generated by new atomic code, or converted to UPF format
     Using radial grid of  819 points,  5 beta functions with: 
                l(1) =   0
                l(2) =   0
                l(3) =   1
                l(4) =   1
                l(5) =   2
     Q(r) pseudized with  8 coefficients,  rinner =    1.250   1.250   1.250
                                                       1.250   1.250

     atomic species   valence    mass     pseudopotential
        Na             9.00    22.99000     Na( 1.00)

     12 Sym. Ops. (no inversion) found



   Cartesian axes

     site n.     atom                  positions (alat units)
         1           Na  tau(   1) = (   0.0000000   0.0000000   0.0000000  )
         2           Na  tau(   2) = (   0.4999999   0.2886751   0.8156781  )

     number of k points=   732  Marzari-Vanderbilt smearing, width (Ry)=  0.0200

     Number of k-points >= 100: set verbosity='high' to print them.

     Dense  grid:    46733 G-vectors     FFT dimensions: (  40,  40,  72)

     Smooth grid:    16515 G-vectors     FFT dimensions: (  30,  30,  45)

     Largest allocated arrays     est. size (Mb)     dimensions
        Kohn-Sham Wavefunctions         0.06 Mb     (     280,   13)
        NL pseudopotentials             0.11 Mb     (     280,   26)
        Each V/rho on FFT grid          0.22 Mb     (   14400)
        Each G-vector array             0.04 Mb     (    5844)
        G-vector shells                 0.01 Mb     (    1748)
     Largest temporary arrays     est. size (Mb)     dimensions
        Auxiliary wavefunctions         0.22 Mb     (     280,   52)
        Each subspace H/S matrix        0.01 Mb     (      26,   26)
        Each <psi_i|beta_j> matrix      0.01 Mb     (      26,   13)

     The potential is recalculated from file :
     ./na_hcp_6.998233353524401/_ph0/na_hcp_6.998233353524401.save/charge-density.dat

     Starting wfc are   10 atomic +    3 random wfc

     Band Structure Calculation
     Davidson diagonalization with overlap

     ethr =  5.56E-11,  avg # of iterations = 23.4

     total cpu time spent up to now is       13.5 secs

     End of band structure calculation

     Number of k-points >= 100: set verbosity='high' to print the bands.

     the Fermi energy is     1.7424 ev

     Writing output data file na_hcp_6.998233353524401.save

                                                                                

     bravais-lattice index     =            4
     lattice parameter (alat)  =       6.9982  a.u.
     unit-cell volume          =     484.2222 (a.u.)^3
     number of atoms/cell      =            2
     number of atomic types    =            1
     kinetic-energy cut-off    =      40.0000  Ry
     charge density cut-off    =     320.0000  Ry
     convergence threshold     =      1.0E-15
     beta                      =       0.7000
     number of iterations used =            4
     Exchange-correlation      = SLA  PW   PBE  PBE ( 1  4  3  4 0 0)


     celldm(1)=    6.99823  celldm(2)=    0.00000  celldm(3)=    1.63136
     celldm(4)=    0.00000  celldm(5)=    0.00000  celldm(6)=    0.00000

     crystal axes: (cart. coord. in units of alat)
               a(1) = (  1.0000  0.0000  0.0000 )  
               a(2) = ( -0.5000  0.8660  0.0000 )  
               a(3) = (  0.0000  0.0000  1.6314 )  

     reciprocal axes: (cart. coord. in units 2 pi/alat)
               b(1) = (  1.0000  0.5774  0.0000 )  
               b(2) = (  0.0000  1.1547  0.0000 )  
               b(3) = (  0.0000  0.0000  0.6130 )  


     Atoms inside the unit cell: 

     Cartesian axes

     site n.  atom      mass           positions (alat units)
        1     Na  22.9900   tau(    1) = (    0.00000    0.00000    0.00000  )
        2     Na  22.9900   tau(    2) = (    0.50000    0.28868    0.81568  )

     Computing dynamical matrix for 
                    q = (   0.0000000   0.0000000  -0.3064934 )
 
     13 Sym.Ops. (with q -> -q+G )


     G cutoff =  396.9786  (   5844 G-vectors)     FFT grid: ( 40, 40, 72)
     G cutoff =  198.4893  (   2071 G-vectors)  smooth grid: ( 30, 30, 45)

     number of k points=   732  Marzari-Vanderbilt smearing, width (Ry)=  0.0200

     PseudoPot. # 1 for Na read from file:
     ./Na_pbe_v1.uspp.F.UPF
     MD5 check sum: 76a99c7e9422403d3e93cbc85ab7bccb
     Pseudo is Ultrasoft, Zval =  9.0
     Generated by new atomic code, or converted to UPF format
     Using radial grid of  819 points,  5 beta functions with: 
                l(1) =   0
                l(2) =   0
                l(3) =   1
                l(4) =   1
                l(5) =   2
     Q(r) pseudized with  8 coefficients,  rinner =    1.250   1.250   1.250
                                                       1.250   1.250

     Mode symmetry, D_3h (-62m) point group:


     Atomic displacements:
     There are   4 irreducible representations

     Representation     1      1 modes -A'_1  To be done

     Representation     2      2 modes -E'  To be done

     Representation     3      1 modes -A''2  To be done

     Representation     4      2 modes -E''  To be done



     Alpha used in Ewald sum =   2.8000
     PHONON       :  6m10.65s CPU     6m57.46s WALL



     Representation #  1 mode #   1

     Self-consistent Calculation

      iter #   1 total cpu time :   418.1 secs   av.it.:   5.7
      thresh= 1.000E-02 alpha_mix =  0.700 |ddv_scf|^2 =  9.741E-04

      iter #   2 total cpu time :   418.7 secs   av.it.:   7.0
      thresh= 3.121E-03 alpha_mix =  0.700 |ddv_scf|^2 =  2.620E-02

      iter #   3 total cpu time :   419.1 secs   av.it.:   5.9
      thresh= 1.000E-02 alpha_mix =  0.700 |ddv_scf|^2 =  7.083E-07

      iter #   4 total cpu time :   420.0 secs   av.it.:   7.9
      thresh= 8.416E-05 alpha_mix =  0.700 |ddv_scf|^2 =  3.488E-09

      iter #   5 total cpu time :   420.5 secs   av.it.:   8.7
      thresh= 5.906E-06 alpha_mix =  0.700 |ddv_scf|^2 =  2.579E-10

      iter #   6 total cpu time :   421.1 secs   av.it.:   8.5
      thresh= 1.606E-06 alpha_mix =  0.700 |ddv_scf|^2 =  6.981E-12

      iter #   7 total cpu time :   421.6 secs   av.it.:   8.9
      thresh= 2.642E-07 alpha_mix =  0.700 |ddv_scf|^2 =  9.624E-13

      iter #   8 total cpu time :   422.2 secs   av.it.:   7.6
      thresh= 9.810E-08 alpha_mix =  0.700 |ddv_scf|^2 =  4.191E-16

     End of self-consistent calculation

     Convergence has been achieved 


     Representation #  2 modes #   2  3

     Self-consistent Calculation

      iter #   1 total cpu time :   424.2 secs   av.it.:   5.2
      thresh= 1.000E-02 alpha_mix =  0.700 |ddv_scf|^2 =  9.369E-07

      iter #   2 total cpu time :   427.2 secs   av.it.:   8.7
      thresh= 9.680E-05 alpha_mix =  0.700 |ddv_scf|^2 =  1.684E-08

      iter #   3 total cpu time :   430.3 secs   av.it.:   9.0
      thresh= 1.298E-05 alpha_mix =  0.700 |ddv_scf|^2 =  4.289E-10

      iter #   4 total cpu time :   433.4 secs   av.it.:   8.5
      thresh= 2.071E-06 alpha_mix =  0.700 |ddv_scf|^2 =  1.433E-12

      iter #   5 total cpu time :   436.6 secs   av.it.:   8.9
      thresh= 1.197E-07 alpha_mix =  0.700 |ddv_scf|^2 =  2.731E-15

      iter #   6 total cpu time :   439.9 secs   av.it.:   8.2
      thresh= 5.226E-09 alpha_mix =  0.700 |ddv_scf|^2 =  9.184E-17

     End of self-consistent calculation

     Convergence has been achieved 


     Representation #  3 mode #   4

     Self-consistent Calculation

      iter #   1 total cpu time :   442.0 secs   av.it.:   5.7
      thresh= 1.000E-02 alpha_mix =  0.700 |ddv_scf|^2 =  9.741E-04

      iter #   2 total cpu time :   444.1 secs   av.it.:   7.0
      thresh= 3.121E-03 alpha_mix =  0.700 |ddv_scf|^2 =  2.620E-02

      iter #   3 total cpu time :   445.5 secs   av.it.:   5.9
      thresh= 1.000E-02 alpha_mix =  0.700 |ddv_scf|^2 =  7.084E-07

      iter #   4 total cpu time :   447.1 secs   av.it.:   7.9
      thresh= 8.417E-05 alpha_mix =  0.700 |ddv_scf|^2 =  3.492E-09

      iter #   5 total cpu time :   449.5 secs   av.it.:   8.7
      thresh= 5.909E-06 alpha_mix =  0.700 |ddv_scf|^2 =  2.583E-10

      iter #   6 total cpu time :   451.5 secs   av.it.:   8.5
      thresh= 1.607E-06 alpha_mix =  0.700 |ddv_scf|^2 =  6.981E-12

      iter #   7 total cpu time :   452.7 secs   av.it.:   8.9
      thresh= 2.642E-07 alpha_mix =  0.700 |ddv_scf|^2 =  9.645E-13

      iter #   8 total cpu time :   453.4 secs   av.it.:   7.6
      thresh= 9.821E-08 alpha_mix =  0.700 |ddv_scf|^2 =  4.317E-16

     End of self-consistent calculation

     Convergence has been achieved 


     Representation #  4 modes #   5  6

     Self-consistent Calculation

      iter #   1 total cpu time :   455.9 secs   av.it.:   5.2
      thresh= 1.000E-02 alpha_mix =  0.700 |ddv_scf|^2 =  9.369E-07

      iter #   2 total cpu time :   457.5 secs   av.it.:   8.7
      thresh= 9.679E-05 alpha_mix =  0.700 |ddv_scf|^2 =  1.685E-08

      iter #   3 total cpu time :   460.4 secs   av.it.:   9.0
      thresh= 1.298E-05 alpha_mix =  0.700 |ddv_scf|^2 =  4.302E-10

      iter #   4 total cpu time :   462.6 secs   av.it.:   8.5
      thresh= 2.074E-06 alpha_mix =  0.700 |ddv_scf|^2 =  1.425E-12

      iter #   5 total cpu time :   479.6 secs   av.it.:   9.0
      thresh= 1.194E-07 alpha_mix =  0.700 |ddv_scf|^2 =  2.737E-15

      iter #   6 total cpu time :   492.7 secs   av.it.:   8.3
      thresh= 5.231E-09 alpha_mix =  0.700 |ddv_scf|^2 =  9.190E-17

     End of self-consistent calculation

     Convergence has been achieved 
 
     Number of q in the star =    1
     List of q in the star:
          1   0.000000000   0.000000000  -0.306493439

     Diagonalizing the dynamical matrix

     q = (    0.000000000   0.000000000  -0.306493439 ) 

 **************************************************************************
     freq (    1) =       1.123803 [THz] =      37.486032 [cm-1]
     freq (    2) =       1.123803 [THz] =      37.486032 [cm-1]
     freq (    3) =       1.155732 [THz] =      38.551086 [cm-1]
     freq (    4) =       1.155732 [THz] =      38.551086 [cm-1]
     freq (    5) =       2.959585 [THz] =      98.721114 [cm-1]
     freq (    6) =       2.960283 [THz] =      98.744407 [cm-1]
 **************************************************************************

     Mode symmetry, D_3h (-62m) point group:

     freq (  1 -  2) =         37.5  [cm-1]   --> E'                 
     freq (  3 -  4) =         38.6  [cm-1]   --> E''                
     freq (  5 -  5) =         98.7  [cm-1]   --> A'_1               
     freq (  6 -  6) =         98.7  [cm-1]   --> A''2               

     Calculation of q =    0.0000000   0.2886751   0.0000000
 
     Parallelization info
     --------------------
     sticks:   dense  smooth     PW     G-vecs:    dense   smooth      PW
     Min         133      68     20                 5837     2060     374
     Max         134      69     22                 5846     2070     381
     Sum        1069     547    169                46733    16515    3015
 


     bravais-lattice index     =            4
     lattice parameter (alat)  =       6.9982  a.u.
     unit-cell volume          =     484.2222 (a.u.)^3
     number of atoms/cell      =            2
     number of atomic types    =            1
     number of electrons       =        18.00
     number of Kohn-Sham states=           13
     kinetic-energy cutoff     =      40.0000  Ry
     charge density cutoff     =     320.0000  Ry
     Exchange-correlation      = SLA  PW   PBE  PBE ( 1  4  3  4 0 0)

     celldm(1)=   6.998233  celldm(2)=   0.000000  celldm(3)=   1.631356
     celldm(4)=   0.000000  celldm(5)=   0.000000  celldm(6)=   0.000000

     crystal axes: (cart. coord. in units of alat)
               a(1) = (   1.000000   0.000000   0.000000 )  
               a(2) = (  -0.500000   0.866025   0.000000 )  
               a(3) = (   0.000000   0.000000   1.631356 )  

     reciprocal axes: (cart. coord. in units 2 pi/alat)
               b(1) = (  1.000000  0.577350  0.000000 )  
               b(2) = (  0.000000  1.154701  0.000000 )  
               b(3) = (  0.000000  0.000000  0.612987 )  


     PseudoPot. # 1 for Na read from file:
     ./Na_pbe_v1.uspp.F.UPF
     MD5 check sum: 76a99c7e9422403d3e93cbc85ab7bccb
     Pseudo is Ultrasoft, Zval =  9.0
     Generated by new atomic code, or converted to UPF format
     Using radial grid of  819 points,  5 beta functions with: 
                l(1) =   0
                l(2) =   0
                l(3) =   1
                l(4) =   1
                l(5) =   2
     Q(r) pseudized with  8 coefficients,  rinner =    1.250   1.250   1.250
                                                       1.250   1.250

     atomic species   valence    mass     pseudopotential
        Na             9.00    22.99000     Na( 1.00)

     12 Sym. Ops. (no inversion) found



   Cartesian axes

     site n.     atom                  positions (alat units)
         1           Na  tau(   1) = (   0.0000000   0.0000000   0.0000000  )
         2           Na  tau(   2) = (   0.4999999   0.2886751   0.8156781  )

     number of k points=  3600  Marzari-Vanderbilt smearing, width (Ry)=  0.0200

     Number of k-points >= 100: set verbosity='high' to print them.

     Dense  grid:    46733 G-vectors     FFT dimensions: (  40,  40,  72)

     Smooth grid:    16515 G-vectors     FFT dimensions: (  30,  30,  45)

     Largest allocated arrays     est. size (Mb)     dimensions
        Kohn-Sham Wavefunctions         0.05 Mb     (     275,   13)
        NL pseudopotentials             0.11 Mb     (     275,   26)
        Each V/rho on FFT grid          0.22 Mb     (   14400)
        Each G-vector array             0.04 Mb     (    5844)
        G-vector shells                 0.01 Mb     (    1806)
     Largest temporary arrays     est. size (Mb)     dimensions
        Auxiliary wavefunctions         0.22 Mb     (     275,   52)
        Each subspace H/S matrix        0.01 Mb     (      26,   26)
        Each <psi_i|beta_j> matrix      0.01 Mb     (      26,   13)

     The potential is recalculated from file :
     ./na_hcp_6.998233353524401/_ph0/na_hcp_6.998233353524401.save/charge-density.dat

     Starting wfc are   10 atomic +    3 random wfc

     Band Structure Calculation
     Davidson diagonalization with overlap

     ethr =  5.56E-11,  avg # of iterations = 22.7

     total cpu time spent up to now is       26.2 secs

     End of band structure calculation

     Number of k-points >= 100: set verbosity='high' to print the bands.

     the Fermi energy is     1.7424 ev

     Writing output data file na_hcp_6.998233353524401.save

                                                                                

     bravais-lattice index     =            4
     lattice parameter (alat)  =       6.9982  a.u.
     unit-cell volume          =     484.2222 (a.u.)^3
     number of atoms/cell      =            2
     number of atomic types    =            1
     kinetic-energy cut-off    =      40.0000  Ry
     charge density cut-off    =     320.0000  Ry
     convergence threshold     =      1.0E-15
     beta                      =       0.7000
     number of iterations used =            4
     Exchange-correlation      = SLA  PW   PBE  PBE ( 1  4  3  4 0 0)


     celldm(1)=    6.99823  celldm(2)=    0.00000  celldm(3)=    1.63136
     celldm(4)=    0.00000  celldm(5)=    0.00000  celldm(6)=    0.00000

     crystal axes: (cart. coord. in units of alat)
               a(1) = (  1.0000  0.0000  0.0000 )  
               a(2) = ( -0.5000  0.8660  0.0000 )  
               a(3) = (  0.0000  0.0000  1.6314 )  

     reciprocal axes: (cart. coord. in units 2 pi/alat)
               b(1) = (  1.0000  0.5774  0.0000 )  
               b(2) = (  0.0000  1.1547  0.0000 )  
               b(3) = (  0.0000  0.0000  0.6130 )  


     Atoms inside the unit cell: 

     Cartesian axes

     site n.  atom      mass           positions (alat units)
        1     Na  22.9900   tau(    1) = (    0.00000    0.00000    0.00000  )
        2     Na  22.9900   tau(    2) = (    0.50000    0.28868    0.81568  )

     Computing dynamical matrix for 
                    q = (   0.0000000   0.2886751   0.0000000 )
 
      4 Sym.Ops. (no q -> -q+G )


     G cutoff =  396.9786  (   5844 G-vectors)     FFT grid: ( 40, 40, 72)
     G cutoff =  198.4893  (   2067 G-vectors)  smooth grid: ( 30, 30, 45)

     number of k points=  3600  Marzari-Vanderbilt smearing, width (Ry)=  0.0200

     PseudoPot. # 1 for Na read from file:
     ./Na_pbe_v1.uspp.F.UPF
     MD5 check sum: 76a99c7e9422403d3e93cbc85ab7bccb
     Pseudo is Ultrasoft, Zval =  9.0
     Generated by new atomic code, or converted to UPF format
     Using radial grid of  819 points,  5 beta functions with: 
                l(1) =   0
                l(2) =   0
                l(3) =   1
                l(4) =   1
                l(5) =   2
     Q(r) pseudized with  8 coefficients,  rinner =    1.250   1.250   1.250
                                                       1.250   1.250

     Mode symmetry, C_2v (mm2)  point group:


     Atomic displacements:
     There are   6 irreducible representations

     Representation     1      1 modes -A_1  D_1  S_1  To be done

     Representation     2      1 modes -A_1  D_1  S_1  To be done

     Representation     3      1 modes -B_1  D_3  S_3  To be done

     Representation     4      1 modes -B_1  D_3  S_3  To be done

     Representation     5      1 modes -B_2  D_4  S_4  To be done

     Representation     6      1 modes -B_2  D_4  S_4  To be done



     Alpha used in Ewald sum =   2.8000
     PHONON       :  7m35.99s CPU     8m31.31s WALL



     Representation #  1 mode #   1

     Self-consistent Calculation

      iter #   1 total cpu time :   514.1 secs   av.it.:   5.7
      thresh= 1.000E-02 alpha_mix =  0.700 |ddv_scf|^2 =  7.013E-04

      iter #   2 total cpu time :   520.1 secs   av.it.:   7.2
      thresh= 2.648E-03 alpha_mix =  0.700 |ddv_scf|^2 =  2.482E-02

      iter #   3 total cpu time :   525.6 secs   av.it.:   5.4
      thresh= 1.000E-02 alpha_mix =  0.700 |ddv_scf|^2 =  6.021E-07

      iter #   4 total cpu time :   530.4 secs   av.it.:   8.1
      thresh= 7.759E-05 alpha_mix =  0.700 |ddv_scf|^2 =  3.351E-08

      iter #   5 total cpu time :   539.6 secs   av.it.:   8.2
      thresh= 1.831E-05 alpha_mix =  0.700 |ddv_scf|^2 =  8.231E-10

      iter #   6 total cpu time :   559.2 secs   av.it.:   8.7
      thresh= 2.869E-06 alpha_mix =  0.700 |ddv_scf|^2 =  1.552E-10

      iter #   7 total cpu time :   565.0 secs   av.it.:   7.9
      thresh= 1.246E-06 alpha_mix =  0.700 |ddv_scf|^2 =  1.836E-09

      iter #   8 total cpu time :   570.3 secs   av.it.:   6.5
      thresh= 4.285E-06 alpha_mix =  0.700 |ddv_scf|^2 =  3.861E-12

      iter #   9 total cpu time :   575.7 secs   av.it.:   8.6
      thresh= 1.965E-07 alpha_mix =  0.700 |ddv_scf|^2 =  7.319E-13

      iter #  10 total cpu time :   580.4 secs   av.it.:   7.6
      thresh= 8.555E-08 alpha_mix =  0.700 |ddv_scf|^2 =  2.218E-12

      iter #  11 total cpu time :   584.9 secs   av.it.:   7.0
      thresh= 1.489E-07 alpha_mix =  0.700 |ddv_scf|^2 =  2.010E-15

      iter #  12 total cpu time :   589.9 secs   av.it.:   8.8
      thresh= 4.484E-09 alpha_mix =  0.700 |ddv_scf|^2 =  1.208E-16

     End of self-consistent calculation

     Convergence has been achieved 


     Representation #  2 mode #   2

     Self-consistent Calculation

      iter #   1 total cpu time :   595.8 secs   av.it.:   5.7
      thresh= 1.000E-02 alpha_mix =  0.700 |ddv_scf|^2 =  7.013E-04

      iter #   2 total cpu time :   601.7 secs   av.it.:   7.2
      thresh= 2.648E-03 alpha_mix =  0.700 |ddv_scf|^2 =  2.482E-02

      iter #   3 total cpu time :   608.9 secs   av.it.:   5.4
      thresh= 1.000E-02 alpha_mix =  0.700 |ddv_scf|^2 =  6.021E-07

      iter #   4 total cpu time :   613.9 secs   av.it.:   8.1
      thresh= 7.760E-05 alpha_mix =  0.700 |ddv_scf|^2 =  3.355E-08

      iter #   5 total cpu time :   618.9 secs   av.it.:   8.2
      thresh= 1.832E-05 alpha_mix =  0.700 |ddv_scf|^2 =  8.255E-10

      iter #   6 total cpu time :   624.2 secs   av.it.:   8.7
      thresh= 2.873E-06 alpha_mix =  0.700 |ddv_scf|^2 =  1.412E-10

      iter #   7 total cpu time :   629.9 secs   av.it.:   8.0
      thresh= 1.188E-06 alpha_mix =  0.700 |ddv_scf|^2 =  1.795E-09

      iter #   8 total cpu time :   636.1 secs   av.it.:   6.4
      thresh= 4.237E-06 alpha_mix =  0.700 |ddv_scf|^2 =  4.045E-12

      iter #   9 total cpu time :   640.9 secs   av.it.:   8.6
      thresh= 2.011E-07 alpha_mix =  0.700 |ddv_scf|^2 =  7.291E-13

      iter #  10 total cpu time :   645.7 secs   av.it.:   7.6
      thresh= 8.539E-08 alpha_mix =  0.700 |ddv_scf|^2 =  2.223E-12

      iter #  11 total cpu time :   649.8 secs   av.it.:   7.0
      thresh= 1.491E-07 alpha_mix =  0.700 |ddv_scf|^2 =  2.007E-15

      iter #  12 total cpu time :   655.5 secs   av.it.:   8.8
      thresh= 4.481E-09 alpha_mix =  0.700 |ddv_scf|^2 =  1.208E-16

     End of self-consistent calculation

     Convergence has been achieved 


     Representation #  3 mode #   3

     Self-consistent Calculation

      iter #   1 total cpu time :   661.6 secs   av.it.:   5.3
      thresh= 1.000E-02 alpha_mix =  0.700 |ddv_scf|^2 =  4.066E-06

      iter #   2 total cpu time :   666.5 secs   av.it.:   8.3
      thresh= 2.016E-04 alpha_mix =  0.700 |ddv_scf|^2 =  6.514E-08

      iter #   3 total cpu time :   671.1 secs   av.it.:   8.5
      thresh= 2.552E-05 alpha_mix =  0.700 |ddv_scf|^2 =  2.921E-09

      iter #   4 total cpu time :   676.7 secs   av.it.:   8.1
      thresh= 5.404E-06 alpha_mix =  0.700 |ddv_scf|^2 =  1.746E-11

      iter #   5 total cpu time :   681.9 secs   av.it.:   8.1
      thresh= 4.178E-07 alpha_mix =  0.700 |ddv_scf|^2 =  1.294E-13

      iter #   6 total cpu time :   686.6 secs   av.it.:   8.5
      thresh= 3.598E-08 alpha_mix =  0.700 |ddv_scf|^2 =  4.561E-16

     End of self-consistent calculation

     Convergence has been achieved 


     Representation #  4 mode #   4

     Self-consistent Calculation

      iter #   1 total cpu time :   694.9 secs   av.it.:   5.3
      thresh= 1.000E-02 alpha_mix =  0.700 |ddv_scf|^2 =  4.066E-06

      iter #   2 total cpu time :   700.6 secs   av.it.:   8.3
      thresh= 2.016E-04 alpha_mix =  0.700 |ddv_scf|^2 =  6.518E-08

      iter #   3 total cpu time :   705.2 secs   av.it.:   8.5
      thresh= 2.553E-05 alpha_mix =  0.700 |ddv_scf|^2 =  2.929E-09

      iter #   4 total cpu time :   709.8 secs   av.it.:   8.1
      thresh= 5.412E-06 alpha_mix =  0.700 |ddv_scf|^2 =  1.742E-11

      iter #   5 total cpu time :   715.3 secs   av.it.:   8.1
      thresh= 4.174E-07 alpha_mix =  0.700 |ddv_scf|^2 =  1.290E-13

      iter #   6 total cpu time :   722.2 secs   av.it.:   8.5
      thresh= 3.592E-08 alpha_mix =  0.700 |ddv_scf|^2 =  4.562E-16

     End of self-consistent calculation

     Convergence has been achieved 


     Representation #  5 mode #   5

     Self-consistent Calculation

      iter #   1 total cpu time :   728.8 secs   av.it.:   5.5
      thresh= 1.000E-02 alpha_mix =  0.700 |ddv_scf|^2 =  1.123E-05

      iter #   2 total cpu time :   735.0 secs   av.it.:   8.4
      thresh= 3.352E-04 alpha_mix =  0.700 |ddv_scf|^2 =  2.371E-06

      iter #   3 total cpu time :   742.3 secs   av.it.:   7.6
      thresh= 1.540E-04 alpha_mix =  0.700 |ddv_scf|^2 =  1.372E-08

      iter #   4 total cpu time :   748.5 secs   av.it.:   8.6
      thresh= 1.172E-05 alpha_mix =  0.700 |ddv_scf|^2 =  4.656E-10

      iter #   5 total cpu time :   754.7 secs   av.it.:   8.1
      thresh= 2.158E-06 alpha_mix =  0.700 |ddv_scf|^2 =  2.727E-12

      iter #   6 total cpu time :   759.7 secs   av.it.:   8.5
      thresh= 1.651E-07 alpha_mix =  0.700 |ddv_scf|^2 =  1.424E-14

      iter #   7 total cpu time :   765.8 secs   av.it.:   8.2
      thresh= 1.193E-08 alpha_mix =  0.700 |ddv_scf|^2 =  6.598E-16

     End of self-consistent calculation

     Convergence has been achieved 


     Representation #  6 mode #   6

     Self-consistent Calculation

      iter #   1 total cpu time :   773.9 secs   av.it.:   5.5
      thresh= 1.000E-02 alpha_mix =  0.700 |ddv_scf|^2 =  1.123E-05

      iter #   2 total cpu time :   778.9 secs   av.it.:   8.4
      thresh= 3.352E-04 alpha_mix =  0.700 |ddv_scf|^2 =  2.371E-06

      iter #   3 total cpu time :   784.2 secs   av.it.:   7.6
      thresh= 1.540E-04 alpha_mix =  0.700 |ddv_scf|^2 =  1.373E-08

      iter #   4 total cpu time :   789.3 secs   av.it.:   8.6
      thresh= 1.172E-05 alpha_mix =  0.700 |ddv_scf|^2 =  4.658E-10

      iter #   5 total cpu time :   794.0 secs   av.it.:   8.1
      thresh= 2.158E-06 alpha_mix =  0.700 |ddv_scf|^2 =  2.727E-12

      iter #   6 total cpu time :   800.2 secs   av.it.:   8.5
      thresh= 1.651E-07 alpha_mix =  0.700 |ddv_scf|^2 =  1.424E-14

      iter #   7 total cpu time :   806.4 secs   av.it.:   8.2
      thresh= 1.193E-08 alpha_mix =  0.700 |ddv_scf|^2 =  6.597E-16

     End of self-consistent calculation

     Convergence has been achieved 
 
     Number of q in the star =    3
     List of q in the star:
          1   0.000000000   0.288675135   0.000000000
          2   0.250000000  -0.144337567   0.000000000
          3  -0.250000000  -0.144337567   0.000000000
     In addition there is the -q list: 
          1   0.000000000  -0.288675135   0.000000000
          2  -0.250000000   0.144337567   0.000000000
          3   0.250000000   0.144337567   0.000000000

     Diagonalizing the dynamical matrix

     q = (    0.000000000   0.288675135   0.000000000 ) 

 **************************************************************************
     freq (    1) =       1.162382 [THz] =      38.772899 [cm-1]
     freq (    2) =       1.438642 [THz] =      47.987925 [cm-1]
     freq (    3) =       2.429364 [THz] =      81.034858 [cm-1]
     freq (    4) =       2.593637 [THz] =      86.514407 [cm-1]
     freq (    5) =       3.167153 [THz] =     105.644845 [cm-1]
     freq (    6) =       3.787249 [THz] =     126.329025 [cm-1]
 **************************************************************************

     Mode symmetry, C_2v (mm2)  point group:

     freq (  1 -  1) =         38.8  [cm-1]   --> B_1  D_3  S_3      
     freq (  2 -  2) =         48.0  [cm-1]   --> B_2  D_4  S_4      
     freq (  3 -  3) =         81.0  [cm-1]   --> B_1  D_3  S_3      
     freq (  4 -  4) =         86.5  [cm-1]   --> A_1  D_1  S_1      
     freq (  5 -  5) =        105.6  [cm-1]   --> A_1  D_1  S_1      
     freq (  6 -  6) =        126.3  [cm-1]   --> B_2  D_4  S_4      

     Calculation of q =    0.0000000   0.2886751   0.1532467
 
     Parallelization info
     --------------------
     sticks:   dense  smooth     PW     G-vecs:    dense   smooth      PW
     Min         133      68     21                 5837     2060     377
     Max         134      69     22                 5846     2070     383
     Sum        1069     547    169                46733    16515    3039
 


     bravais-lattice index     =            4
     lattice parameter (alat)  =       6.9982  a.u.
     unit-cell volume          =     484.2222 (a.u.)^3
     number of atoms/cell      =            2
     number of atomic types    =            1
     number of electrons       =        18.00
     number of Kohn-Sham states=           13
     kinetic-energy cutoff     =      40.0000  Ry
     charge density cutoff     =     320.0000  Ry
     Exchange-correlation      = SLA  PW   PBE  PBE ( 1  4  3  4 0 0)

     celldm(1)=   6.998233  celldm(2)=   0.000000  celldm(3)=   1.631356
     celldm(4)=   0.000000  celldm(5)=   0.000000  celldm(6)=   0.000000

     crystal axes: (cart. coord. in units of alat)
               a(1) = (   1.000000   0.000000   0.000000 )  
               a(2) = (  -0.500000   0.866025   0.000000 )  
               a(3) = (   0.000000   0.000000   1.631356 )  

     reciprocal axes: (cart. coord. in units 2 pi/alat)
               b(1) = (  1.000000  0.577350  0.000000 )  
               b(2) = (  0.000000  1.154701  0.000000 )  
               b(3) = (  0.000000  0.000000  0.612987 )  


     PseudoPot. # 1 for Na read from file:
     ./Na_pbe_v1.uspp.F.UPF
     MD5 check sum: 76a99c7e9422403d3e93cbc85ab7bccb
     Pseudo is Ultrasoft, Zval =  9.0
     Generated by new atomic code, or converted to UPF format
     Using radial grid of  819 points,  5 beta functions with: 
                l(1) =   0
                l(2) =   0
                l(3) =   1
                l(4) =   1
                l(5) =   2
     Q(r) pseudized with  8 coefficients,  rinner =    1.250   1.250   1.250
                                                       1.250   1.250

     atomic species   valence    mass     pseudopotential
        Na             9.00    22.99000     Na( 1.00)

     12 Sym. Ops. (no inversion) found



   Cartesian axes

     site n.     atom                  positions (alat units)
         1           Na  tau(   1) = (   0.0000000   0.0000000   0.0000000  )
         2           Na  tau(   2) = (   0.4999999   0.2886751   0.8156781  )

     number of k points=  7200  Marzari-Vanderbilt smearing, width (Ry)=  0.0200

     Number of k-points >= 100: set verbosity='high' to print them.

     Dense  grid:    46733 G-vectors     FFT dimensions: (  40,  40,  72)

     Smooth grid:    16515 G-vectors     FFT dimensions: (  30,  30,  45)

     Largest allocated arrays     est. size (Mb)     dimensions
        Kohn-Sham Wavefunctions         0.05 Mb     (     277,   13)
        NL pseudopotentials             0.11 Mb     (     277,   26)
        Each V/rho on FFT grid          0.22 Mb     (   14400)
        Each G-vector array             0.04 Mb     (    5844)
        G-vector shells                 0.01 Mb     (    1869)
     Largest temporary arrays     est. size (Mb)     dimensions
        Auxiliary wavefunctions         0.22 Mb     (     277,   52)
        Each subspace H/S matrix        0.01 Mb     (      26,   26)
        Each <psi_i|beta_j> matrix      0.01 Mb     (      26,   13)

     The potential is recalculated from file :
     ./na_hcp_6.998233353524401/_ph0/na_hcp_6.998233353524401.save/charge-density.dat

     Starting wfc are   10 atomic +    3 random wfc

     Band Structure Calculation
     Davidson diagonalization with overlap

     ethr =  5.56E-11,  avg # of iterations = 22.7

     total cpu time spent up to now is       56.7 secs

     End of band structure calculation

     Number of k-points >= 100: set verbosity='high' to print the bands.

     the Fermi energy is     1.7424 ev

     Writing output data file na_hcp_6.998233353524401.save

                                                                                

     bravais-lattice index     =            4
     lattice parameter (alat)  =       6.9982  a.u.
     unit-cell volume          =     484.2222 (a.u.)^3
     number of atoms/cell      =            2
     number of atomic types    =            1
     kinetic-energy cut-off    =      40.0000  Ry
     charge density cut-off    =     320.0000  Ry
     convergence threshold     =      1.0E-15
     beta                      =       0.7000
     number of iterations used =            4
     Exchange-correlation      = SLA  PW   PBE  PBE ( 1  4  3  4 0 0)


     celldm(1)=    6.99823  celldm(2)=    0.00000  celldm(3)=    1.63136
     celldm(4)=    0.00000  celldm(5)=    0.00000  celldm(6)=    0.00000

     crystal axes: (cart. coord. in units of alat)
               a(1) = (  1.0000  0.0000  0.0000 )  
               a(2) = ( -0.5000  0.8660  0.0000 )  
               a(3) = (  0.0000  0.0000  1.6314 )  

     reciprocal axes: (cart. coord. in units 2 pi/alat)
               b(1) = (  1.0000  0.5774  0.0000 )  
               b(2) = (  0.0000  1.1547  0.0000 )  
               b(3) = (  0.0000  0.0000  0.6130 )  


     Atoms inside the unit cell: 

     Cartesian axes

     site n.  atom      mass           positions (alat units)
        1     Na  22.9900   tau(    1) = (    0.00000    0.00000    0.00000  )
        2     Na  22.9900   tau(    2) = (    0.50000    0.28868    0.81568  )

     Computing dynamical matrix for 
                    q = (   0.0000000   0.2886751   0.1532467 )
 
      2 Sym.Ops. (no q -> -q+G )


     G cutoff =  396.9786  (   5844 G-vectors)     FFT grid: ( 40, 40, 72)
     G cutoff =  198.4893  (   2067 G-vectors)  smooth grid: ( 30, 30, 45)

     number of k points=  7200  Marzari-Vanderbilt smearing, width (Ry)=  0.0200

     PseudoPot. # 1 for Na read from file:
     ./Na_pbe_v1.uspp.F.UPF
     MD5 check sum: 76a99c7e9422403d3e93cbc85ab7bccb
     Pseudo is Ultrasoft, Zval =  9.0
     Generated by new atomic code, or converted to UPF format
     Using radial grid of  819 points,  5 beta functions with: 
                l(1) =   0
                l(2) =   0
                l(3) =   1
                l(4) =   1
                l(5) =   2
     Q(r) pseudized with  8 coefficients,  rinner =    1.250   1.250   1.250
                                                       1.250   1.250

     Mode symmetry, C_s (m)     point group:


     Atomic displacements:
     There are   6 irreducible representations

     Representation     1      1 modes -A'  To be done

     Representation     2      1 modes -A'  To be done

     Representation     3      1 modes -A'  To be done

     Representation     4      1 modes -A'  To be done

     Representation     5      1 modes -A''  To be done

     Representation     6      1 modes -A''  To be done



     Alpha used in Ewald sum =   2.8000
     PHONON       : 12m59.52s CPU    14m18.58s WALL



     Representation #  1 mode #   1

     Self-consistent Calculation

      iter #   1 total cpu time :   863.1 secs   av.it.:   5.7
      thresh= 1.000E-02 alpha_mix =  0.700 |ddv_scf|^2 =  2.750E-04

      iter #   2 total cpu time :   873.4 secs   av.it.:   7.5
      thresh= 1.658E-03 alpha_mix =  0.700 |ddv_scf|^2 =  5.395E-03

      iter #   3 total cpu time :   881.8 secs   av.it.:   5.4
      thresh= 7.345E-03 alpha_mix =  0.700 |ddv_scf|^2 =  2.480E-06

      iter #   4 total cpu time :   889.8 secs   av.it.:   7.7
      thresh= 1.575E-04 alpha_mix =  0.700 |ddv_scf|^2 =  3.485E-07

      iter #   5 total cpu time :   899.7 secs   av.it.:   7.7
      thresh= 5.904E-05 alpha_mix =  0.700 |ddv_scf|^2 =  1.569E-09

      iter #   6 total cpu time :   920.8 secs   av.it.:   8.7
      thresh= 3.961E-06 alpha_mix =  0.700 |ddv_scf|^2 =  7.794E-11

      iter #   7 total cpu time :   930.5 secs   av.it.:   8.6
      thresh= 8.828E-07 alpha_mix =  0.700 |ddv_scf|^2 =  9.016E-11

      iter #   8 total cpu time :   945.2 secs   av.it.:   7.1
      thresh= 9.495E-07 alpha_mix =  0.700 |ddv_scf|^2 =  4.335E-11

      iter #   9 total cpu time :   954.6 secs   av.it.:   7.6
      thresh= 6.584E-07 alpha_mix =  0.700 |ddv_scf|^2 =  8.381E-13

      iter #  10 total cpu time :   966.2 secs   av.it.:   7.8
      thresh= 9.155E-08 alpha_mix =  0.700 |ddv_scf|^2 =  9.030E-13

      iter #  11 total cpu time :   975.9 secs   av.it.:   7.5
      thresh= 9.503E-08 alpha_mix =  0.700 |ddv_scf|^2 =  7.848E-15

      iter #  12 total cpu time :   987.2 secs   av.it.:   8.4
      thresh= 8.859E-09 alpha_mix =  0.700 |ddv_scf|^2 =  2.584E-15

      iter #  13 total cpu time :   997.2 secs   av.it.:   8.2
      thresh= 5.083E-09 alpha_mix =  0.700 |ddv_scf|^2 =  8.967E-16

     End of self-consistent calculation

     Convergence has been achieved 


     Representation #  2 mode #   2

     Self-consistent Calculation

      iter #   1 total cpu time :  1009.2 secs   av.it.:   5.7
      thresh= 1.000E-02 alpha_mix =  0.700 |ddv_scf|^2 =  4.715E-05

      iter #   2 total cpu time :  1019.1 secs   av.it.:   7.8
      thresh= 6.866E-04 alpha_mix =  0.700 |ddv_scf|^2 =  5.641E-04

      iter #   3 total cpu time :  1037.9 secs   av.it.:   5.8
      thresh= 2.375E-03 alpha_mix =  0.700 |ddv_scf|^2 =  1.824E-05

      iter #   4 total cpu time :  1047.7 secs   av.it.:   7.1
      thresh= 4.271E-04 alpha_mix =  0.700 |ddv_scf|^2 =  8.621E-08

      iter #   5 total cpu time :  1057.5 secs   av.it.:   8.5
      thresh= 2.936E-05 alpha_mix =  0.700 |ddv_scf|^2 =  9.873E-10

      iter #   6 total cpu time :  1065.9 secs   av.it.:   8.8
      thresh= 3.142E-06 alpha_mix =  0.700 |ddv_scf|^2 =  8.174E-11

      iter #   7 total cpu time :  1075.4 secs   av.it.:   8.7
      thresh= 9.041E-07 alpha_mix =  0.700 |ddv_scf|^2 =  5.261E-11

      iter #   8 total cpu time :  1085.4 secs   av.it.:   7.7
      thresh= 7.253E-07 alpha_mix =  0.700 |ddv_scf|^2 =  1.881E-10

      iter #   9 total cpu time :  1095.4 secs   av.it.:   6.8
      thresh= 1.371E-06 alpha_mix =  0.700 |ddv_scf|^2 =  4.271E-12

      iter #  10 total cpu time :  1105.1 secs   av.it.:   7.6
      thresh= 2.067E-07 alpha_mix =  0.700 |ddv_scf|^2 =  3.907E-12

      iter #  11 total cpu time :  1115.3 secs   av.it.:   7.5
      thresh= 1.977E-07 alpha_mix =  0.700 |ddv_scf|^2 =  1.389E-14

      iter #  12 total cpu time :  1126.7 secs   av.it.:   8.2
      thresh= 1.179E-08 alpha_mix =  0.700 |ddv_scf|^2 =  3.280E-15

      iter #  13 total cpu time :  1135.7 secs   av.it.:   8.5
      thresh= 5.727E-09 alpha_mix =  0.700 |ddv_scf|^2 =  8.555E-17

     End of self-consistent calculation

     Convergence has been achieved 


     Representation #  3 mode #   3

     Self-consistent Calculation

      iter #   1 total cpu time :  1145.0 secs   av.it.:   5.8
      thresh= 1.000E-02 alpha_mix =  0.700 |ddv_scf|^2 =  3.149E-04

      iter #   2 total cpu time :  1156.5 secs   av.it.:   7.5
      thresh= 1.774E-03 alpha_mix =  0.700 |ddv_scf|^2 =  6.262E-03

      iter #   3 total cpu time :  1165.4 secs   av.it.:   5.4
      thresh= 7.913E-03 alpha_mix =  0.700 |ddv_scf|^2 =  8.094E-07

      iter #   4 total cpu time :  1176.6 secs   av.it.:   7.9
      thresh= 8.997E-05 alpha_mix =  0.700 |ddv_scf|^2 =  3.655E-07

      iter #   5 total cpu time :  1185.9 secs   av.it.:   7.6
      thresh= 6.045E-05 alpha_mix =  0.700 |ddv_scf|^2 =  1.935E-09

      iter #   6 total cpu time :  1197.2 secs   av.it.:   8.7
      thresh= 4.398E-06 alpha_mix =  0.700 |ddv_scf|^2 =  9.416E-11

      iter #   7 total cpu time :  1219.7 secs   av.it.:   8.5
      thresh= 9.704E-07 alpha_mix =  0.700 |ddv_scf|^2 =  3.014E-12

      iter #   8 total cpu time :  1227.7 secs   av.it.:   8.9
      thresh= 1.736E-07 alpha_mix =  0.700 |ddv_scf|^2 =  1.219E-11

      iter #   9 total cpu time :  1239.8 secs   av.it.:   7.1
      thresh= 3.492E-07 alpha_mix =  0.700 |ddv_scf|^2 =  2.469E-12

      iter #  10 total cpu time :  1250.7 secs   av.it.:   7.7
      thresh= 1.571E-07 alpha_mix =  0.700 |ddv_scf|^2 =  5.289E-13

      iter #  11 total cpu time :  1259.5 secs   av.it.:   7.1
      thresh= 7.272E-08 alpha_mix =  0.700 |ddv_scf|^2 =  2.134E-14

      iter #  12 total cpu time :  1268.8 secs   av.it.:   8.1
      thresh= 1.461E-08 alpha_mix =  0.700 |ddv_scf|^2 =  1.773E-15

      iter #  13 total cpu time :  1277.9 secs   av.it.:   8.1
      thresh= 4.211E-09 alpha_mix =  0.700 |ddv_scf|^2 =  2.107E-16

     End of self-consistent calculation

     Convergence has been achieved 


     Representation #  4 mode #   4

     Self-consistent Calculation

      iter #   1 total cpu time :  1289.2 secs   av.it.:   5.7
      thresh= 1.000E-02 alpha_mix =  0.700 |ddv_scf|^2 =  8.697E-05

      iter #   2 total cpu time :  1297.4 secs   av.it.:   7.8
      thresh= 9.326E-04 alpha_mix =  0.700 |ddv_scf|^2 =  1.430E-03

      iter #   3 total cpu time :  1306.3 secs   av.it.:   5.6
      thresh= 3.781E-03 alpha_mix =  0.700 |ddv_scf|^2 =  9.079E-06

      iter #   4 total cpu time :  1318.2 secs   av.it.:   7.4
      thresh= 3.013E-04 alpha_mix =  0.700 |ddv_scf|^2 =  1.364E-07

      iter #   5 total cpu time :  1329.2 secs   av.it.:   8.1
      thresh= 3.693E-05 alpha_mix =  0.700 |ddv_scf|^2 =  1.122E-09

      iter #   6 total cpu time :  1344.0 secs   av.it.:   8.8
      thresh= 3.350E-06 alpha_mix =  0.700 |ddv_scf|^2 =  9.594E-11

      iter #   7 total cpu time :  1354.9 secs   av.it.:   8.7
      thresh= 9.795E-07 alpha_mix =  0.700 |ddv_scf|^2 =  3.461E-11

      iter #   8 total cpu time :  1364.4 secs   av.it.:   8.0
      thresh= 5.883E-07 alpha_mix =  0.700 |ddv_scf|^2 =  2.848E-10

      iter #   9 total cpu time :  1374.1 secs   av.it.:   6.6
      thresh= 1.688E-06 alpha_mix =  0.700 |ddv_scf|^2 =  3.773E-12

      iter #  10 total cpu time :  1382.6 secs   av.it.:   7.7
      thresh= 1.942E-07 alpha_mix =  0.700 |ddv_scf|^2 =  3.771E-12

      iter #  11 total cpu time :  1392.1 secs   av.it.:   7.5
      thresh= 1.942E-07 alpha_mix =  0.700 |ddv_scf|^2 =  1.360E-14

      iter #  12 total cpu time :  1405.9 secs   av.it.:   8.3
      thresh= 1.166E-08 alpha_mix =  0.700 |ddv_scf|^2 =  3.694E-15

      iter #  13 total cpu time :  1423.0 secs   av.it.:   8.4
      thresh= 6.077E-09 alpha_mix =  0.700 |ddv_scf|^2 =  1.047E-16

     End of self-consistent calculation

     Convergence has been achieved 


     Representation #  5 mode #   5

     Self-consistent Calculation

      iter #   1 total cpu time :  1439.1 secs   av.it.:   5.3
      thresh= 1.000E-02 alpha_mix =  0.700 |ddv_scf|^2 =  4.057E-06

      iter #   2 total cpu time :  1455.0 secs   av.it.:   8.3
      thresh= 2.014E-04 alpha_mix =  0.700 |ddv_scf|^2 =  6.493E-08

      iter #   3 total cpu time :  1475.6 secs   av.it.:   8.5
      thresh= 2.548E-05 alpha_mix =  0.700 |ddv_scf|^2 =  2.935E-09

      iter #   4 total cpu time :  1489.5 secs   av.it.:   8.0
      thresh= 5.417E-06 alpha_mix =  0.700 |ddv_scf|^2 =  1.354E-11

      iter #   5 total cpu time :  1499.6 secs   av.it.:   8.3
      thresh= 3.680E-07 alpha_mix =  0.700 |ddv_scf|^2 =  9.645E-14

      iter #   6 total cpu time :  1508.8 secs   av.it.:   8.5
      thresh= 3.106E-08 alpha_mix =  0.700 |ddv_scf|^2 =  4.360E-16

     End of self-consistent calculation

     Convergence has been achieved 


     Representation #  6 mode #   6

     Self-consistent Calculation

      iter #   1 total cpu time :  1520.1 secs   av.it.:   5.3
      thresh= 1.000E-02 alpha_mix =  0.700 |ddv_scf|^2 =  4.057E-06

      iter #   2 total cpu time :  1530.2 secs   av.it.:   8.3
      thresh= 2.014E-04 alpha_mix =  0.700 |ddv_scf|^2 =  6.496E-08

      iter #   3 total cpu time :  1539.4 secs   av.it.:   8.5
      thresh= 2.549E-05 alpha_mix =  0.700 |ddv_scf|^2 =  2.944E-09

      iter #   4 total cpu time :  1551.7 secs   av.it.:   8.0
      thresh= 5.426E-06 alpha_mix =  0.700 |ddv_scf|^2 =  1.350E-11

      iter #   5 total cpu time :  1561.1 secs   av.it.:   8.3
      thresh= 3.675E-07 alpha_mix =  0.700 |ddv_scf|^2 =  9.623E-14

      iter #   6 total cpu time :  1569.8 secs   av.it.:   8.5
      thresh= 3.102E-08 alpha_mix =  0.700 |ddv_scf|^2 =  4.360E-16

     End of self-consistent calculation

     Convergence has been achieved 
 
     Number of q in the star =    6
     List of q in the star:
          1   0.000000000   0.288675135   0.153246719
          2   0.000000000   0.288675135  -0.153246719
          3   0.250000000  -0.144337567   0.153246719
          4  -0.250000000  -0.144337567   0.153246719
          5   0.250000000  -0.144337567  -0.153246719
          6  -0.250000000  -0.144337567  -0.153246719
     In addition there is the -q list: 
          1   0.000000000  -0.288675135  -0.153246719
          2   0.000000000  -0.288675135   0.153246719
          3  -0.250000000   0.144337567  -0.153246719
          4   0.250000000   0.144337567  -0.153246719
          5  -0.250000000   0.144337567   0.153246719
          6   0.250000000   0.144337567   0.153246719

     Diagonalizing the dynamical matrix

     q = (    0.000000000   0.288675135   0.153246719 ) 

 **************************************************************************
     freq (    1) =       1.412124 [THz] =      47.103402 [cm-1]
     freq (    2) =       1.661502 [THz] =      55.421746 [cm-1]
     freq (    3) =       2.297755 [THz] =      76.644850 [cm-1]
     freq (    4) =       2.846516 [THz] =      94.949560 [cm-1]
     freq (    5) =       2.965077 [THz] =      98.904317 [cm-1]
     freq (    6) =       3.691923 [THz] =     123.149297 [cm-1]
 **************************************************************************

     Mode symmetry, C_s (m)     point group:

     freq (  1 -  1) =         47.1  [cm-1]   --> A''                
     freq (  2 -  2) =         55.4  [cm-1]   --> A'                 
     freq (  3 -  3) =         76.6  [cm-1]   --> A''                
     freq (  4 -  4) =         94.9  [cm-1]   --> A'                 
     freq (  5 -  5) =         98.9  [cm-1]   --> A'                 
     freq (  6 -  6) =        123.1  [cm-1]   --> A'                 

     Calculation of q =    0.0000000   0.2886751  -0.3064934
 
     Parallelization info
     --------------------
     sticks:   dense  smooth     PW     G-vecs:    dense   smooth      PW
     Min         133      68     20                 5837     2060     374
     Max         134      69     22                 5846     2070     381
     Sum        1069     547    169                46733    16515    3015
 


     bravais-lattice index     =            4
     lattice parameter (alat)  =       6.9982  a.u.
     unit-cell volume          =     484.2222 (a.u.)^3
     number of atoms/cell      =            2
     number of atomic types    =            1
     number of electrons       =        18.00
     number of Kohn-Sham states=           13
     kinetic-energy cutoff     =      40.0000  Ry
     charge density cutoff     =     320.0000  Ry
     Exchange-correlation      = SLA  PW   PBE  PBE ( 1  4  3  4 0 0)

     celldm(1)=   6.998233  celldm(2)=   0.000000  celldm(3)=   1.631356
     celldm(4)=   0.000000  celldm(5)=   0.000000  celldm(6)=   0.000000

     crystal axes: (cart. coord. in units of alat)
               a(1) = (   1.000000   0.000000   0.000000 )  
               a(2) = (  -0.500000   0.866025   0.000000 )  
               a(3) = (   0.000000   0.000000   1.631356 )  

     reciprocal axes: (cart. coord. in units 2 pi/alat)
               b(1) = (  1.000000  0.577350  0.000000 )  
               b(2) = (  0.000000  1.154701  0.000000 )  
               b(3) = (  0.000000  0.000000  0.612987 )  


     PseudoPot. # 1 for Na read from file:
     ./Na_pbe_v1.uspp.F.UPF
     MD5 check sum: 76a99c7e9422403d3e93cbc85ab7bccb
     Pseudo is Ultrasoft, Zval =  9.0
     Generated by new atomic code, or converted to UPF format
     Using radial grid of  819 points,  5 beta functions with: 
                l(1) =   0
                l(2) =   0
                l(3) =   1
                l(4) =   1
                l(5) =   2
     Q(r) pseudized with  8 coefficients,  rinner =    1.250   1.250   1.250
                                                       1.250   1.250

     atomic species   valence    mass     pseudopotential
        Na             9.00    22.99000     Na( 1.00)

     12 Sym. Ops. (no inversion) found



   Cartesian axes

     site n.     atom                  positions (alat units)
         1           Na  tau(   1) = (   0.0000000   0.0000000   0.0000000  )
         2           Na  tau(   2) = (   0.4999999   0.2886751   0.8156781  )

     number of k points=  3600  Marzari-Vanderbilt smearing, width (Ry)=  0.0200

     Number of k-points >= 100: set verbosity='high' to print them.

     Dense  grid:    46733 G-vectors     FFT dimensions: (  40,  40,  72)

     Smooth grid:    16515 G-vectors     FFT dimensions: (  30,  30,  45)

     Largest allocated arrays     est. size (Mb)     dimensions
        Kohn-Sham Wavefunctions         0.05 Mb     (     275,   13)
        NL pseudopotentials             0.11 Mb     (     275,   26)
        Each V/rho on FFT grid          0.22 Mb     (   14400)
        Each G-vector array             0.04 Mb     (    5844)
        G-vector shells                 0.01 Mb     (    1806)
     Largest temporary arrays     est. size (Mb)     dimensions
        Auxiliary wavefunctions         0.22 Mb     (     275,   52)
        Each subspace H/S matrix        0.01 Mb     (      26,   26)
        Each <psi_i|beta_j> matrix      0.01 Mb     (      26,   13)

     The potential is recalculated from file :
     ./na_hcp_6.998233353524401/_ph0/na_hcp_6.998233353524401.save/charge-density.dat

     Starting wfc are   10 atomic +    3 random wfc

     Band Structure Calculation
     Davidson diagonalization with overlap

     ethr =  5.56E-11,  avg # of iterations = 22.7

     total cpu time spent up to now is       79.2 secs

     End of band structure calculation

     Number of k-points >= 100: set verbosity='high' to print the bands.

     the Fermi energy is     1.7424 ev

     Writing output data file na_hcp_6.998233353524401.save

                                                                                

     bravais-lattice index     =            4
     lattice parameter (alat)  =       6.9982  a.u.
     unit-cell volume          =     484.2222 (a.u.)^3
     number of atoms/cell      =            2
     number of atomic types    =            1
     kinetic-energy cut-off    =      40.0000  Ry
     charge density cut-off    =     320.0000  Ry
     convergence threshold     =      1.0E-15
     beta                      =       0.7000
     number of iterations used =            4
     Exchange-correlation      = SLA  PW   PBE  PBE ( 1  4  3  4 0 0)


     celldm(1)=    6.99823  celldm(2)=    0.00000  celldm(3)=    1.63136
     celldm(4)=    0.00000  celldm(5)=    0.00000  celldm(6)=    0.00000

     crystal axes: (cart. coord. in units of alat)
               a(1) = (  1.0000  0.0000  0.0000 )  
               a(2) = ( -0.5000  0.8660  0.0000 )  
               a(3) = (  0.0000  0.0000  1.6314 )  

     reciprocal axes: (cart. coord. in units 2 pi/alat)
               b(1) = (  1.0000  0.5774  0.0000 )  
               b(2) = (  0.0000  1.1547  0.0000 )  
               b(3) = (  0.0000  0.0000  0.6130 )  


     Atoms inside the unit cell: 

     Cartesian axes

     site n.  atom      mass           positions (alat units)
[...]
         1           Na  tau(   1) = (   0.0000000   0.0000000   0.0000000  )
         2           Na  tau(   2) = (   0.4999999   0.2886751   0.8156781  )

     number of k points=  6912  Marzari-Vanderbilt smearing, width (Ry)=  0.0200

     Number of k-points >= 100: set verbosity='high' to print them.

     Dense  grid:    46733 G-vectors     FFT dimensions: (  40,  40,  72)

     Smooth grid:    16515 G-vectors     FFT dimensions: (  30,  30,  45)

     Largest allocated arrays     est. size (Mb)     dimensions
        Kohn-Sham Wavefunctions         0.05 Mb     (     276,   13)
        NL pseudopotentials             0.11 Mb     (     276,   26)
        Each V/rho on FFT grid          0.22 Mb     (   14400)
        Each G-vector array             0.04 Mb     (    5844)
        G-vector shells                 0.01 Mb     (    1662)
     Largest temporary arrays     est. size (Mb)     dimensions
        Auxiliary wavefunctions         0.22 Mb     (     276,   52)
        Each subspace H/S matrix        0.01 Mb     (      26,   26)
        Each <psi_i|beta_j> matrix      0.01 Mb     (      26,   13)

     The potential is recalculated from file :
     ./na_hcp_6.998233353524401/_ph0/na_hcp_6.998233353524401.save/charge-density.dat

     Starting wfc are   10 atomic +    3 random wfc

     Band Structure Calculation
     Davidson diagonalization with overlap

     ethr =  5.56E-11,  avg # of iterations = 22.5

     total cpu time spent up to now is      264.0 secs

     End of band structure calculation

     Number of k-points >= 100: set verbosity='high' to print the bands.

     the Fermi energy is     1.7424 ev

     Writing output data file na_hcp_6.998233353524401.save

                                                                                

     bravais-lattice index     =            4
     lattice parameter (alat)  =       6.9982  a.u.
     unit-cell volume          =     484.2222 (a.u.)^3
     number of atoms/cell      =            2
     number of atomic types    =            1
     kinetic-energy cut-off    =      40.0000  Ry
     charge density cut-off    =     320.0000  Ry
     convergence threshold     =      1.0E-15
     beta                      =       0.7000
     number of iterations used =            4
     Exchange-correlation      = SLA  PW   PBE  PBE ( 1  4  3  4 0 0)


     celldm(1)=    6.99823  celldm(2)=    0.00000  celldm(3)=    1.63136
     celldm(4)=    0.00000  celldm(5)=    0.00000  celldm(6)=    0.00000

     crystal axes: (cart. coord. in units of alat)
               a(1) = (  1.0000  0.0000  0.0000 )  
               a(2) = ( -0.5000  0.8660  0.0000 )  
               a(3) = (  0.0000  0.0000  1.6314 )  

     reciprocal axes: (cart. coord. in units 2 pi/alat)
               b(1) = (  1.0000  0.5774  0.0000 )  
               b(2) = (  0.0000  1.1547  0.0000 )  
               b(3) = (  0.0000  0.0000  0.6130 )  


     Atoms inside the unit cell: 

     Cartesian axes

     site n.  atom      mass           positions (alat units)
        1     Na  22.9900   tau(    1) = (    0.00000    0.00000    0.00000  )
        2     Na  22.9900   tau(    2) = (    0.50000    0.28868    0.81568  )

     Computing dynamical matrix for 
                    q = (   0.2500000   0.4330127  -0.3064934 )
 
      2 Sym.Ops. (no q -> -q+G )


     G cutoff =  396.9786  (   5844 G-vectors)     FFT grid: ( 40, 40, 72)
     G cutoff =  198.4893  (   2065 G-vectors)  smooth grid: ( 30, 30, 45)

     number of k points=  6912  Marzari-Vanderbilt smearing, width (Ry)=  0.0200

     PseudoPot. # 1 for Na read from file:
     ./Na_pbe_v1.uspp.F.UPF
     MD5 check sum: 76a99c7e9422403d3e93cbc85ab7bccb
     Pseudo is Ultrasoft, Zval =  9.0
     Generated by new atomic code, or converted to UPF format
     Using radial grid of  819 points,  5 beta functions with: 
                l(1) =   0
                l(2) =   0
                l(3) =   1
                l(4) =   1
                l(5) =   2
     Q(r) pseudized with  8 coefficients,  rinner =    1.250   1.250   1.250
                                                       1.250   1.250

     Mode symmetry, C_s (m)     point group:


     Atomic displacements:
     There are   6 irreducible representations

     Representation     1      1 modes -A'  To be done

     Representation     2      1 modes -A'  To be done

     Representation     3      1 modes -A'  To be done

     Representation     4      1 modes -A''  To be done

     Representation     5      1 modes -A''  To be done

     Representation     6      1 modes -A''  To be done



     Alpha used in Ewald sum =   2.8000
     PHONON       :     1h11m CPU        1h17m WALL



     Representation #  1 mode #   1

     Self-consistent Calculation

      iter #   1 total cpu time :  4632.9 secs   av.it.:   5.7
      thresh= 1.000E-02 alpha_mix =  0.700 |ddv_scf|^2 =  1.994E-05

      iter #   2 total cpu time :  4641.7 secs   av.it.:   8.4
      thresh= 4.466E-04 alpha_mix =  0.700 |ddv_scf|^2 =  1.229E-05

      iter #   3 total cpu time :  4649.5 secs   av.it.:   7.7
      thresh= 3.505E-04 alpha_mix =  0.700 |ddv_scf|^2 =  4.105E-08

      iter #   4 total cpu time :  4658.0 secs   av.it.:   8.8
      thresh= 2.026E-05 alpha_mix =  0.700 |ddv_scf|^2 =  1.562E-09

      iter #   5 total cpu time :  4664.5 secs   av.it.:   8.9
      thresh= 3.952E-06 alpha_mix =  0.700 |ddv_scf|^2 =  7.591E-11

      iter #   6 total cpu time :  4672.7 secs   av.it.:   9.0
      thresh= 8.713E-07 alpha_mix =  0.700 |ddv_scf|^2 =  5.509E-12

      iter #   7 total cpu time :  4681.3 secs   av.it.:   8.8
      thresh= 2.347E-07 alpha_mix =  0.700 |ddv_scf|^2 =  3.934E-14

      iter #   8 total cpu time :  4693.3 secs   av.it.:   8.8
      thresh= 1.983E-08 alpha_mix =  0.700 |ddv_scf|^2 =  1.017E-15

      iter #   9 total cpu time :  4699.7 secs   av.it.:   8.5
      thresh= 3.189E-09 alpha_mix =  0.700 |ddv_scf|^2 =  1.062E-16

     End of self-consistent calculation

     Convergence has been achieved 


     Representation #  2 mode #   2

     Self-consistent Calculation

      iter #   1 total cpu time :  4717.6 secs   av.it.:   5.6
      thresh= 1.000E-02 alpha_mix =  0.700 |ddv_scf|^2 =  1.076E-05

      iter #   2 total cpu time :  4726.6 secs   av.it.:   8.6
      thresh= 3.281E-04 alpha_mix =  0.700 |ddv_scf|^2 =  5.250E-06

      iter #   3 total cpu time :  4734.8 secs   av.it.:   7.8
      thresh= 2.291E-04 alpha_mix =  0.700 |ddv_scf|^2 =  6.486E-08

      iter #   4 total cpu time :  4744.6 secs   av.it.:   8.6
      thresh= 2.547E-05 alpha_mix =  0.700 |ddv_scf|^2 =  1.337E-09

      iter #   5 total cpu time :  4753.8 secs   av.it.:   8.7
      thresh= 3.657E-06 alpha_mix =  0.700 |ddv_scf|^2 =  1.120E-10

      iter #   6 total cpu time :  4762.8 secs   av.it.:   8.7
      thresh= 1.058E-06 alpha_mix =  0.700 |ddv_scf|^2 =  3.422E-12

      iter #   7 total cpu time :  4769.6 secs   av.it.:   9.1
      thresh= 1.850E-07 alpha_mix =  0.700 |ddv_scf|^2 =  7.067E-14

      iter #   8 total cpu time :  4781.8 secs   av.it.:   8.9
      thresh= 2.658E-08 alpha_mix =  0.700 |ddv_scf|^2 =  4.247E-15

      iter #   9 total cpu time :  4791.3 secs   av.it.:   8.9
      thresh= 6.517E-09 alpha_mix =  0.700 |ddv_scf|^2 =  1.646E-16

     End of self-consistent calculation

     Convergence has been achieved 


     Representation #  3 mode #   3

     Self-consistent Calculation

      iter #   1 total cpu time :  4804.5 secs   av.it.:   5.7
      thresh= 1.000E-02 alpha_mix =  0.700 |ddv_scf|^2 =  7.760E-06

      iter #   2 total cpu time :  4813.1 secs   av.it.:   8.6
      thresh= 2.786E-04 alpha_mix =  0.700 |ddv_scf|^2 =  1.356E-06

      iter #   3 total cpu time :  4830.2 secs   av.it.:   7.9
      thresh= 1.164E-04 alpha_mix =  0.700 |ddv_scf|^2 =  1.888E-07

      iter #   4 total cpu time :  4838.8 secs   av.it.:   8.0
      thresh= 4.345E-05 alpha_mix =  0.700 |ddv_scf|^2 =  2.626E-09

      iter #   5 total cpu time :  4852.7 secs   av.it.:   8.7
      thresh= 5.124E-06 alpha_mix =  0.700 |ddv_scf|^2 =  4.624E-11

      iter #   6 total cpu time :  4862.8 secs   av.it.:   8.7
      thresh= 6.800E-07 alpha_mix =  0.700 |ddv_scf|^2 =  1.960E-12

      iter #   7 total cpu time :  4872.1 secs   av.it.:   9.2
      thresh= 1.400E-07 alpha_mix =  0.700 |ddv_scf|^2 =  9.102E-14

      iter #   8 total cpu time :  4879.6 secs   av.it.:   9.2
      thresh= 3.017E-08 alpha_mix =  0.700 |ddv_scf|^2 =  9.190E-16

     End of self-consistent calculation

     Convergence has been achieved 


     Representation #  4 mode #   4

     Self-consistent Calculation

      iter #   1 total cpu time :  4889.6 secs   av.it.:   5.6
      thresh= 1.000E-02 alpha_mix =  0.700 |ddv_scf|^2 =  7.926E-06

      iter #   2 total cpu time :  4898.8 secs   av.it.:   8.7
      thresh= 2.815E-04 alpha_mix =  0.700 |ddv_scf|^2 =  1.516E-06

      iter #   3 total cpu time :  4907.5 secs   av.it.:   7.9
      thresh= 1.231E-04 alpha_mix =  0.700 |ddv_scf|^2 =  1.898E-07

      iter #   4 total cpu time :  4915.4 secs   av.it.:   8.0
      thresh= 4.356E-05 alpha_mix =  0.700 |ddv_scf|^2 =  2.538E-09

      iter #   5 total cpu time :  4924.7 secs   av.it.:   8.7
      thresh= 5.038E-06 alpha_mix =  0.700 |ddv_scf|^2 =  4.697E-11

      iter #   6 total cpu time :  4933.7 secs   av.it.:   8.7
      thresh= 6.854E-07 alpha_mix =  0.700 |ddv_scf|^2 =  2.133E-12

      iter #   7 total cpu time :  4944.1 secs   av.it.:   9.2
      thresh= 1.460E-07 alpha_mix =  0.700 |ddv_scf|^2 =  9.645E-14

      iter #   8 total cpu time :  4960.6 secs   av.it.:   9.2
      thresh= 3.106E-08 alpha_mix =  0.700 |ddv_scf|^2 =  9.416E-16

     End of self-consistent calculation

     Convergence has been achieved 


     Representation #  5 mode #   5

     Self-consistent Calculation

      iter #   1 total cpu time :  4973.4 secs   av.it.:   5.6
      thresh= 1.000E-02 alpha_mix =  0.700 |ddv_scf|^2 =  1.077E-05

      iter #   2 total cpu time :  4981.5 secs   av.it.:   8.6
      thresh= 3.281E-04 alpha_mix =  0.700 |ddv_scf|^2 =  5.251E-06

      iter #   3 total cpu time :  4992.0 secs   av.it.:   7.8
      thresh= 2.291E-04 alpha_mix =  0.700 |ddv_scf|^2 =  6.485E-08

      iter #   4 total cpu time :  5001.8 secs   av.it.:   8.6
      thresh= 2.547E-05 alpha_mix =  0.700 |ddv_scf|^2 =  1.338E-09

      iter #   5 total cpu time :  5011.5 secs   av.it.:   8.7
      thresh= 3.658E-06 alpha_mix =  0.700 |ddv_scf|^2 =  1.121E-10

      iter #   6 total cpu time :  5018.5 secs   av.it.:   8.7
      thresh= 1.059E-06 alpha_mix =  0.700 |ddv_scf|^2 =  3.425E-12

      iter #   7 total cpu time :  5028.0 secs   av.it.:   9.1
      thresh= 1.851E-07 alpha_mix =  0.700 |ddv_scf|^2 =  7.073E-14

      iter #   8 total cpu time :  5038.3 secs   av.it.:   8.9
      thresh= 2.659E-08 alpha_mix =  0.700 |ddv_scf|^2 =  4.249E-15

      iter #   9 total cpu time :  5047.3 secs   av.it.:   8.9
      thresh= 6.518E-09 alpha_mix =  0.700 |ddv_scf|^2 =  1.650E-16

     End of self-consistent calculation

     Convergence has been achieved 


     Representation #  6 mode #   6

     Self-consistent Calculation

      iter #   1 total cpu time :  5070.8 secs   av.it.:   5.7
      thresh= 1.000E-02 alpha_mix =  0.700 |ddv_scf|^2 =  1.978E-05

      iter #   2 total cpu time :  5078.9 secs   av.it.:   8.4
      thresh= 4.447E-04 alpha_mix =  0.700 |ddv_scf|^2 =  1.213E-05

      iter #   3 total cpu time :  5086.0 secs   av.it.:   7.7
      thresh= 3.483E-04 alpha_mix =  0.700 |ddv_scf|^2 =  4.175E-08

      iter #   4 total cpu time :  5094.3 secs   av.it.:   8.8
      thresh= 2.043E-05 alpha_mix =  0.700 |ddv_scf|^2 =  1.581E-09

      iter #   5 total cpu time :  5102.7 secs   av.it.:   8.9
      thresh= 3.977E-06 alpha_mix =  0.700 |ddv_scf|^2 =  7.524E-11

      iter #   6 total cpu time :  5112.1 secs   av.it.:   9.0
      thresh= 8.674E-07 alpha_mix =  0.700 |ddv_scf|^2 =  5.522E-12

      iter #   7 total cpu time :  5119.6 secs   av.it.:   8.8
      thresh= 2.350E-07 alpha_mix =  0.700 |ddv_scf|^2 =  3.944E-14

      iter #   8 total cpu time :  5129.8 secs   av.it.:   8.8
      thresh= 1.986E-08 alpha_mix =  0.700 |ddv_scf|^2 =  1.056E-15

      iter #   9 total cpu time :  5139.0 secs   av.it.:   8.6
      thresh= 3.250E-09 alpha_mix =  0.700 |ddv_scf|^2 =  1.020E-16

     End of self-consistent calculation

     Convergence has been achieved 
 
     Number of q in the star =    6
     List of q in the star:
          1   0.250000000   0.433012702  -0.306493439
          2  -0.250000000   0.433012702  -0.306493439
          3   0.250000000  -0.433012702  -0.306493439
          4  -0.500000000   0.000000000  -0.306493439
          5   0.500000000  -0.000000000  -0.306493439
          6  -0.250000000  -0.433012702  -0.306493439

     Diagonalizing the dynamical matrix

     q = (    0.250000000   0.433012702  -0.306493439 ) 

 **************************************************************************
     freq (    1) =       2.065415 [THz] =      68.894840 [cm-1]
     freq (    2) =       2.072429 [THz] =      69.128780 [cm-1]
     freq (    3) =       3.099097 [THz] =     103.374762 [cm-1]
     freq (    4) =       3.106227 [THz] =     103.612593 [cm-1]
     freq (    5) =       3.838188 [THz] =     128.028183 [cm-1]
     freq (    6) =       3.845619 [THz] =     128.276054 [cm-1]
 **************************************************************************

     Mode symmetry, C_s (m)     point group:

     freq (  1 -  1) =         68.9  [cm-1]   --> A'                 
     freq (  2 -  2) =         69.1  [cm-1]   --> A''                
     freq (  3 -  3) =        103.4  [cm-1]   --> A'                 
     freq (  4 -  4) =        103.6  [cm-1]   --> A''                
     freq (  5 -  5) =        128.0  [cm-1]   --> A'                 
     freq (  6 -  6) =        128.3  [cm-1]   --> A''                
 
     init_run     :      1.52s CPU      1.69s WALL (      11 calls)
     electrons    :    192.50s CPU    196.43s WALL (      11 calls)

     Called by init_run:
     wfcinit      :      0.01s CPU      0.12s WALL (      11 calls)
     potinit      :      0.29s CPU      0.34s WALL (      11 calls)

     Called by electrons:
     c_bands      :    192.40s CPU    196.34s WALL (      11 calls)
     v_of_rho     :      0.09s CPU      0.09s WALL (      12 calls)
     newd         :      0.12s CPU      0.14s WALL (      12 calls)

     Called by c_bands:
     init_us_2    :      5.24s CPU      5.49s WALL (   80220 calls)
     cegterg      :    101.98s CPU    103.77s WALL (    4201 calls)

     Called by sum_band:

     Called by *egterg:
     h_psi        :     59.92s CPU     60.63s WALL (   67913 calls)
     s_psi        :     68.69s CPU     71.48s WALL ( 1873551 calls)
     g_psi        :      0.67s CPU      0.62s WALL (   61358 calls)
     cdiaghg      :     29.05s CPU     29.80s WALL (   63712 calls)

     Called by h_psi:
     add_vuspsi   :     39.75s CPU     41.33s WALL (  937179 calls)

     General routines
     calbec       :    101.80s CPU    106.31s WALL ( 1993149 calls)
     fft          :      2.51s CPU      2.60s WALL (    9758 calls)
     ffts         :      1.30s CPU      1.27s WALL (    9607 calls)
     fftw         :   2365.58s CPU   2406.51s WALL (14366987 calls)
     interpolate  :      0.78s CPU      0.88s WALL (    1341 calls)
     davcio       :     15.12s CPU    224.57s WALL (  348691 calls)
 
     Parallel routines
     fft_scatter  :   1776.08s CPU   1794.42s WALL (14386352 calls)
 
     PHONON       :     1h19m CPU        1h25m WALL

     INITIALIZATION: 
     phq_setup    :      0.32s CPU      1.17s WALL (      12 calls)
     phq_init     :     33.69s CPU     34.40s WALL (      12 calls)
 
     phq_init     :     33.69s CPU     34.40s WALL (      12 calls)
     init_vloc    :      0.12s CPU      0.12s WALL (      12 calls)
     init_us_1    :      0.46s CPU      0.46s WALL (      12 calls)
     newd         :      0.12s CPU      0.14s WALL (      12 calls)
     dvanqq       :      1.38s CPU      1.39s WALL (      12 calls)
     drho         :     27.21s CPU     27.64s WALL (      12 calls)
 
     DYNAMICAL MATRIX:
     dynmat0      :      3.91s CPU      4.02s WALL (      12 calls)
     phqscf       :   4504.22s CPU   4818.82s WALL (      12 calls)
     dynmatrix    :      0.08s CPU      0.23s WALL (      12 calls)
 
     phqscf       :   4504.22s CPU   4818.82s WALL (      12 calls)
     solve_linter :   4500.35s CPU   4811.72s WALL (      66 calls)
     drhodv       :      3.68s CPU      4.05s WALL (      66 calls)
 
     dynmat0      :      3.91s CPU      4.02s WALL (      12 calls)
     dynmat_us    :      3.86s CPU      3.91s WALL (      12 calls)
     d2ionq       :      0.03s CPU      0.03s WALL (      12 calls)
 
     dynmat_us    :      3.86s CPU      3.91s WALL (      12 calls)
     addusdynmat  :      0.00s CPU      0.00s WALL (      12 calls)
 
     phqscf       :   4504.22s CPU   4818.82s WALL (      12 calls)
     solve_linter :   4500.35s CPU   4811.72s WALL (      66 calls)
 
     solve_linter :   4500.35s CPU   4811.72s WALL (      66 calls)
     dvqpsi_us    :     16.11s CPU     17.33s WALL (    7158 calls)
     ortho        :     51.23s CPU     52.23s WALL (   67106 calls)
     cgsolve      :   1033.44s CPU   1071.18s WALL (   67106 calls)
     incdrhoscf   :   1633.66s CPU   1647.23s WALL (   67106 calls)
     addusddens   :      8.77s CPU      8.83s WALL (     651 calls)
     vpsifft      :     72.72s CPU     77.06s WALL (   59948 calls)
     dv_of_drho   :      3.30s CPU      3.26s WALL (     621 calls)
     mix_pot      :      2.78s CPU     13.66s WALL (     585 calls)
     ef_shift     :      0.03s CPU      0.69s WALL (      30 calls)
     localdos     :      0.87s CPU      0.88s WALL (       4 calls)
     psymdvscf    :     16.23s CPU     16.36s WALL (     522 calls)
     newdq        :      7.80s CPU      7.87s WALL (     585 calls)
     adddvscf     :      5.57s CPU      5.85s WALL (   59948 calls)
     drhodvus     :      0.06s CPU      0.07s WALL (      66 calls)
 
     dvqpsi_us    :     16.11s CPU     17.33s WALL (    7158 calls)
     dvqpsi_us_on :      4.18s CPU      4.27s WALL (    7158 calls)
 
     cgsolve      :   1033.44s CPU   1071.18s WALL (   67106 calls)
     ch_psi       :    995.37s CPU   1031.27s WALL (  869266 calls)
 
     ch_psi       :    995.37s CPU   1031.27s WALL (  869266 calls)
     h_psiq       :    862.63s CPU    893.99s WALL (  869266 calls)
     last         :    127.20s CPU    131.76s WALL (  869266 calls)
 
     h_psiq       :    862.63s CPU    893.99s WALL (  869266 calls)
     firstfft     :    401.52s CPU    414.56s WALL ( 5435141 calls)
     secondfft    :    304.82s CPU    317.34s WALL ( 5435141 calls)
     add_vuspsi   :     39.75s CPU     41.33s WALL (  937179 calls)
 
     incdrhoscf   :   1633.66s CPU   1647.23s WALL (   67106 calls)
     addusdbec    :      6.66s CPU      6.83s WALL (   74264 calls)
 
     drhodvus     :      0.06s CPU      0.07s WALL (      66 calls)
 
      General routines
     calbec       :    101.80s CPU    106.31s WALL ( 1993149 calls)
     fft          :      2.51s CPU      2.60s WALL (    9758 calls)
     ffts         :      1.30s CPU      1.27s WALL (    9607 calls)
     fftw         :   2365.58s CPU   2406.51s WALL (14366987 calls)
     davcio       :     15.12s CPU    224.57s WALL (  348691 calls)
     write_rec    :      1.28s CPU     31.77s WALL (     651 calls)
 
 
     PHONON       :     1h19m CPU        1h25m WALL

 
   This run was terminated on:   0:28:59  27Mar2018            

=------------------------------------------------------------------------------=
   JOB DONE.
=------------------------------------------------------------------------------=
Application 30369735 resources: utime ~916977s, stime ~11640s, Rss ~49344, inblocks ~6137841199, outblocks ~1917145006
