
     Program PWSCF v.5.4.0 starts on 28Mar2018 at  5:30:14 

     This program is part of the open-source Quantum ESPRESSO suite
     for quantum simulation of materials; please cite
         "P. Giannozzi et al., J. Phys.:Condens. Matter 21 395502 (2009);
          URL http://www.quantum-espresso.org", 
     in publications or presentations arising from this work. More details at
     http://www.quantum-espresso.org/quote

     Parallel version (MPI & OpenMP), running on      24 processor cores
     Number of MPI processes:                24
     Threads/MPI process:                     1
     R & G space division:  proc/nbgrp/npool/nimage =      24
     Waiting for input...
     Reading input from standard input

     Current dimensions of program PWSCF are:
     Max number of different atomic species (ntypx) = 10
     Max number of k-points (npk) =  40000
     Max angular momentum in pseudopotentials (lmaxx) =  3

     Subspace diagonalization in iterative solution of the eigenvalue problem:
     one sub-group per band group will be used
     scalapack distributed-memory algorithm (size of sub-group:  3*  3 procs)

 
     Parallelization info
     --------------------
     sticks:   dense  smooth     PW     G-vecs:    dense   smooth      PW
     Min          45      22      6                 1984      684     112
     Max          47      23      7                 1987      707     119
     Sum        1099     547    163                47663    16769    2803
 


     bravais-lattice index     =            4
     lattice parameter (alat)  =       7.0400  a.u.
     unit-cell volume          =     492.6730 (a.u.)^3
     number of atoms/cell      =            2
     number of atomic types    =            1
     number of electrons       =        18.00
     number of Kohn-Sham states=           13
     kinetic-energy cutoff     =      40.0000  Ry
     charge density cutoff     =     320.0000  Ry
     convergence threshold     =      1.0E-10
     mixing beta               =       0.7000
     number of iterations used =            8  plain     mixing
     Exchange-correlation      = SLA  PW   PBE  PBE ( 1  4  3  4 0 0)

     celldm(1)=   7.040000  celldm(2)=   0.000000  celldm(3)=   1.630460
     celldm(4)=   0.000000  celldm(5)=   0.000000  celldm(6)=   0.000000

     crystal axes: (cart. coord. in units of alat)
               a(1) = (   1.000000   0.000000   0.000000 )  
               a(2) = (  -0.500000   0.866025   0.000000 )  
               a(3) = (   0.000000   0.000000   1.630460 )  

     reciprocal axes: (cart. coord. in units 2 pi/alat)
               b(1) = (  1.000000  0.577350  0.000000 )  
               b(2) = (  0.000000  1.154701  0.000000 )  
               b(3) = (  0.000000  0.000000  0.613324 )  


     PseudoPot. # 1 for Na read from file:
     ./Na_pbe_v1.uspp.F.UPF
     MD5 check sum: 76a99c7e9422403d3e93cbc85ab7bccb
     Pseudo is Ultrasoft, Zval =  9.0
     Generated by new atomic code, or converted to UPF format
     Using radial grid of  819 points,  5 beta functions with: 
                l(1) =   0
                l(2) =   0
                l(3) =   1
                l(4) =   1
                l(5) =   2
     Q(r) pseudized with  8 coefficients,  rinner =    1.250   1.250   1.250
                                                       1.250   1.250

     atomic species   valence    mass     pseudopotential
        Na             9.00    22.99000     Na( 1.00)

     24 Sym. Ops., with inversion, found (12 have fractional translation)



   Cartesian axes

     site n.     atom                  positions (alat units)
         1           Na  tau(   1) = (   0.0000000   0.0000000   0.0000000  )
         2           Na  tau(   2) = (   0.4999999   0.2886751   0.8152300  )

     number of k points=   366  Marzari-Vanderbilt smearing, width (Ry)=  0.0200

     Number of k-points >= 100: set verbosity='high' to print them.

     Dense  grid:    47663 G-vectors     FFT dimensions: (  45,  45,  72)

     Smooth grid:    16769 G-vectors     FFT dimensions: (  30,  30,  48)

     Largest allocated arrays     est. size (Mb)     dimensions
        Kohn-Sham Wavefunctions         0.02 Mb     (     103,   13)
        NL pseudopotentials             0.04 Mb     (     103,   26)
        Each V/rho on FFT grid          0.09 Mb     (    6075)
        Each G-vector array             0.02 Mb     (    1987)
        G-vector shells                 0.01 Mb     (     937)
     Largest temporary arrays     est. size (Mb)     dimensions
        Auxiliary wavefunctions         0.08 Mb     (     103,   52)
        Each subspace H/S matrix        0.00 Mb     (      17,   17)
        Each <psi_i|beta_j> matrix      0.01 Mb     (      26,   13)
        Arrays for rho mixing           0.74 Mb     (    6075,    8)

     Initial potential from superposition of free atoms

     starting charge   17.98742, renormalised to   18.00000
     Starting wfc are   10 randomized atomic wfcs +    3 random wfc

     total cpu time spent up to now is        1.1 secs

     per-process dynamical memory:    12.6 Mb

     Self-consistent Calculation

     iteration #  1     ecut=    40.00 Ry     beta=0.70
     Davidson diagonalization with overlap
     ethr =  1.00E-02,  avg # of iterations =  5.9

     Threshold (ethr) on eigenvalues was too large:
     Diagonalizing with lowered threshold

     Davidson diagonalization with overlap
     c_bands:  1 eigenvalues not converged
     ethr =  9.38E-06,  avg # of iterations =  6.8

     total cpu time spent up to now is       15.1 secs

     total energy              =    -190.21293689 Ry
     Harris-Foulkes estimate   =    -190.21334679 Ry
     estimated scf accuracy    <       0.00173958 Ry

     iteration #  2     ecut=    40.00 Ry     beta=0.70
     Davidson diagonalization with overlap
     ethr =  9.66E-06,  avg # of iterations =  2.0

     total cpu time spent up to now is       18.5 secs

     total energy              =    -190.21312778 Ry
     Harris-Foulkes estimate   =    -190.21316558 Ry
     estimated scf accuracy    <       0.00018585 Ry

     iteration #  3     ecut=    40.00 Ry     beta=0.70
     Davidson diagonalization with overlap
     ethr =  1.03E-06,  avg # of iterations =  2.1

     total cpu time spent up to now is       22.0 secs

     total energy              =    -190.21314602 Ry
     Harris-Foulkes estimate   =    -190.21314847 Ry
     estimated scf accuracy    <       0.00001171 Ry

     iteration #  4     ecut=    40.00 Ry     beta=0.70
     Davidson diagonalization with overlap
     ethr =  6.51E-08,  avg # of iterations =  2.0

     total cpu time spent up to now is       25.2 secs

     total energy              =    -190.21314727 Ry
     Harris-Foulkes estimate   =    -190.21314717 Ry
     estimated scf accuracy    <       0.00000002 Ry

     iteration #  5     ecut=    40.00 Ry     beta=0.70
     Davidson diagonalization with overlap
     ethr =  1.22E-10,  avg # of iterations =  3.2

     total cpu time spent up to now is       29.8 secs

     total energy              =    -190.21314733 Ry
     Harris-Foulkes estimate   =    -190.21314732 Ry
     estimated scf accuracy    <          2.5E-09 Ry

     iteration #  6     ecut=    40.00 Ry     beta=0.70
     Davidson diagonalization with overlap
     ethr =  1.39E-11,  avg # of iterations =  1.8

     total cpu time spent up to now is       32.8 secs

     End of self-consistent calculation

     Number of k-points >= 100: set verbosity='high' to print the bands.

     the Fermi energy is     1.6686 ev

!    total energy              =    -190.21314733 Ry
     Harris-Foulkes estimate   =    -190.21314733 Ry
     estimated scf accuracy    <          7.8E-11 Ry

     The total energy is the sum of the following terms:

     one-electron contribution =    -175.62572728 Ry
     hartree contribution      =      88.59188065 Ry
     xc contribution           =     -28.54104988 Ry
     ewald contribution        =     -74.63812333 Ry
     smearing contrib. (-TS)   =      -0.00012750 Ry

     convergence has been achieved in   6 iterations


     entering subroutine stress ...

          total   stress  (Ry/bohr**3)                   (kbar)     P=   -1.59
  -0.00001108  -0.00000000   0.00000000         -1.63     -0.00      0.00
  -0.00000000  -0.00001108   0.00000000         -0.00     -1.63      0.00
   0.00000000   0.00000000  -0.00001028          0.00      0.00     -1.51


     Writing output data file na_hcp_7.04.save
 
     init_run     :      0.99s CPU      1.03s WALL (       1 calls)
     electrons    :     30.84s CPU     31.69s WALL (       1 calls)
     stress       :      0.28s CPU      0.28s WALL (       1 calls)

     Called by init_run:
     wfcinit      :      0.93s CPU      0.96s WALL (       1 calls)
     potinit      :      0.02s CPU      0.02s WALL (       1 calls)

     Called by electrons:
     c_bands      :     28.85s CPU     29.62s WALL (       7 calls)
     sum_band     :      1.93s CPU      1.99s WALL (       7 calls)
     v_of_rho     :      0.03s CPU      0.02s WALL (       7 calls)
     newd         :      0.03s CPU      0.03s WALL (       7 calls)
     mix_rho      :      0.00s CPU      0.00s WALL (       7 calls)

     Called by c_bands:
     init_us_2    :      0.17s CPU      0.17s WALL (    5856 calls)
     cegterg      :     28.38s CPU     28.99s WALL (    2562 calls)

     Called by sum_band:
     sum_band:bec :      0.02s CPU      0.03s WALL (    2562 calls)
     addusdens    :      0.04s CPU      0.04s WALL (       7 calls)

     Called by *egterg:
     h_psi        :      9.22s CPU      9.30s WALL (   11606 calls)
     s_psi        :      0.26s CPU      0.25s WALL (   11606 calls)
     g_psi        :      0.05s CPU      0.04s WALL (    8678 calls)
     cdiaghg      :     16.96s CPU     17.40s WALL (   10874 calls)

     Called by h_psi:
     add_vuspsi   :      0.26s CPU      0.28s WALL (   11606 calls)

     General routines
     calbec       :      0.59s CPU      0.70s WALL (   14534 calls)
     fft          :      0.01s CPU      0.02s WALL (     117 calls)
     ffts         :      0.00s CPU      0.00s WALL (      14 calls)
     fftw         :      8.79s CPU      8.77s WALL (  217322 calls)
     interpolate  :      0.00s CPU      0.00s WALL (      14 calls)
 
     Parallel routines
     fft_scatter  :      5.00s CPU      4.95s WALL (  217453 calls)
 
     PWSCF        :    33.82s CPU        44.49s WALL

 
   This run was terminated on:   5:30:58  28Mar2018            

=------------------------------------------------------------------------------=
   JOB DONE.
=------------------------------------------------------------------------------=
Application 30379138 resources: utime ~1043s, stime ~18s, Rss ~41084, inblocks ~180122, outblocks ~521363
