
     Program PHONON v.5.4.0 starts on 26Mar2018 at 20:55:32 

     This program is part of the open-source Quantum ESPRESSO suite
     for quantum simulation of materials; please cite
         "P. Giannozzi et al., J. Phys.:Condens. Matter 21 395502 (2009);
          URL http://www.quantum-espresso.org", 
     in publications or presentations arising from this work. More details at
     http://www.quantum-espresso.org/quote

     Parallel version (MPI & OpenMP), running on     192 processor cores
     Number of MPI processes:               192
     Threads/MPI process:                     1
     K-points division:     npool     =      24
     R & G space division:  proc/nbgrp/npool/nimage =       8

     Reading data from directory:
     ./na_hcp_6.976382950545051/na_hcp_6.976382950545051.save

   Info: using nr1, nr2, nr3 values from input

   Info: using nr1, nr2, nr3 values from input

     IMPORTANT: XC functional enforced from input :
     Exchange-correlation      = SLA  PW   PBE  PBE ( 1  4  3  4 0 0)
     Any further DFT definition will be discarded
     Please, verify this is what you really want

 
     Parallelization info
     --------------------
     sticks:   dense  smooth     PW     G-vecs:    dense   smooth      PW
     Min         133      66     20                 5793     2033     344
     Max         134      67     21                 5800     2041     349
     Sum        1069     535    163                46373    16299    2767
 


     Dynamical matrices for ( 4, 4, 4)  uniform grid of q-points
     (  12q-points):
       N         xq(1)         xq(2)         xq(3) 
       1   0.000000000   0.000000000   0.000000000
       2   0.000000000   0.000000000   0.153203096
       3   0.000000000   0.000000000  -0.306406192
       4   0.000000000   0.288675135   0.000000000
       5   0.000000000   0.288675135   0.153203096
       6   0.000000000   0.288675135  -0.306406192
       7   0.000000000  -0.577350269   0.000000000
       8   0.000000000  -0.577350269   0.153203096
       9   0.000000000  -0.577350269  -0.306406192
      10   0.250000000   0.433012702   0.000000000
      11   0.250000000   0.433012702   0.153203096
      12   0.250000000   0.433012702  -0.306406192

     Calculation of q =    0.0000000   0.0000000   0.0000000

                                                                                

     bravais-lattice index     =            4
     lattice parameter (alat)  =       6.9764  a.u.
     unit-cell volume          =     479.8373 (a.u.)^3
     number of atoms/cell      =            2
     number of atomic types    =            1
     kinetic-energy cut-off    =      40.0000  Ry
     charge density cut-off    =     320.0000  Ry
     convergence threshold     =      1.0E-15
     beta                      =       0.7000
     number of iterations used =            4
     Exchange-correlation      = SLA  PW   PBE  PBE ( 1  4  3  4 0 0)


     celldm(1)=    6.97638  celldm(2)=    0.00000  celldm(3)=    1.63182
     celldm(4)=    0.00000  celldm(5)=    0.00000  celldm(6)=    0.00000

     crystal axes: (cart. coord. in units of alat)
               a(1) = (  1.0000  0.0000  0.0000 )  
               a(2) = ( -0.5000  0.8660  0.0000 )  
               a(3) = (  0.0000  0.0000  1.6318 )  

     reciprocal axes: (cart. coord. in units 2 pi/alat)
               b(1) = (  1.0000  0.5774  0.0000 )  
               b(2) = (  0.0000  1.1547  0.0000 )  
               b(3) = (  0.0000  0.0000  0.6128 )  


     Atoms inside the unit cell: 

     Cartesian axes

     site n.  atom      mass           positions (alat units)
        1     Na  22.9900   tau(    1) = (    0.00000    0.00000    0.00000  )
        2     Na  22.9900   tau(    2) = (    0.50000    0.28868    0.81591  )

     Computing dynamical matrix for 
                    q = (   0.0000000   0.0000000   0.0000000 )
 
     13 Sym.Ops. (with q -> -q+G )


     G cutoff =  394.5035  (   5800 G-vectors)     FFT grid: ( 40, 40, 72)
     G cutoff =  197.2518  (   2039 G-vectors)  smooth grid: ( 30, 30, 45)

     number of k points=   366  Marzari-Vanderbilt smearing, width (Ry)=  0.0200

     PseudoPot. # 1 for Na read from file:
     ./Na_pbe_v1.uspp.F.UPF
     MD5 check sum: 76a99c7e9422403d3e93cbc85ab7bccb
     Pseudo is Ultrasoft, Zval =  9.0
     Generated by new atomic code, or converted to UPF format
     Using radial grid of  819 points,  5 beta functions with: 
                l(1) =   0
                l(2) =   0
                l(3) =   1
                l(4) =   1
                l(5) =   2
     Q(r) pseudized with  8 coefficients,  rinner =    1.250   1.250   1.250
                                                       1.250   1.250

     Mode symmetry, D_3h (-62m) point group:


     Atomic displacements:
     There are   4 irreducible representations

     Representation     1      2 modes -E'  To be done

     Representation     2      2 modes -E'  To be done

     Representation     3      1 modes -A''2  To be done

     Representation     4      1 modes -A''2  To be done



     Alpha used in Ewald sum =   2.8000
     PHONON       :    16.36s CPU        20.26s WALL



     Representation #  1 modes #   1  2

     Self-consistent Calculation
 
     Pert. #  1: Fermi energy shift (Ry) =     0.0000E+00     0.0000E+00
     Pert. #  2: Fermi energy shift (Ry) =    -1.0842E-19     0.0000E+00

      iter #   1 total cpu time :    23.6 secs   av.it.:   5.2
      thresh= 1.000E-02 alpha_mix =  0.700 |ddv_scf|^2 =  9.450E-07
 
     Pert. #  1: Fermi energy shift (Ry) =     0.0000E+00     0.0000E+00
     Pert. #  2: Fermi energy shift (Ry) =     0.0000E+00     0.0000E+00

      iter #   2 total cpu time :    25.7 secs   av.it.:   8.7
      thresh= 9.721E-05 alpha_mix =  0.700 |ddv_scf|^2 =  1.694E-08
 
     Pert. #  1: Fermi energy shift (Ry) =    -1.1294E-21     0.0000E+00
     Pert. #  2: Fermi energy shift (Ry) =    -5.6469E-22     0.0000E+00

      iter #   3 total cpu time :    28.1 secs   av.it.:   8.9
      thresh= 1.302E-05 alpha_mix =  0.700 |ddv_scf|^2 =  4.411E-10
 
     Pert. #  1: Fermi energy shift (Ry) =     5.6469E-22     0.0000E+00
     Pert. #  2: Fermi energy shift (Ry) =    -5.6469E-21     0.0000E+00

      iter #   4 total cpu time :    31.0 secs   av.it.:   8.5
      thresh= 2.100E-06 alpha_mix =  0.700 |ddv_scf|^2 =  1.552E-12
 
     Pert. #  1: Fermi energy shift (Ry) =     5.6469E-22     0.0000E+00
     Pert. #  2: Fermi energy shift (Ry) =     0.0000E+00     0.0000E+00

      iter #   5 total cpu time :    33.2 secs   av.it.:   8.9
      thresh= 1.246E-07 alpha_mix =  0.700 |ddv_scf|^2 =  5.865E-15
 
     Pert. #  1: Fermi energy shift (Ry) =     1.6941E-21     0.0000E+00
     Pert. #  2: Fermi energy shift (Ry) =    -5.6469E-22     0.0000E+00

      iter #   6 total cpu time :    36.0 secs   av.it.:   8.6
      thresh= 7.658E-09 alpha_mix =  0.700 |ddv_scf|^2 =  1.052E-16

     End of self-consistent calculation

     Convergence has been achieved 


     Representation #  2 modes #   3  4

     Self-consistent Calculation
 
     Pert. #  1: Fermi energy shift (Ry) =     7.2280E-20     1.8808E-37
     Pert. #  2: Fermi energy shift (Ry) =    -1.0842E-19     3.7616E-37

      iter #   1 total cpu time :    38.9 secs   av.it.:   5.2
      thresh= 1.000E-02 alpha_mix =  0.700 |ddv_scf|^2 =  9.450E-07
 
     Pert. #  1: Fermi energy shift (Ry) =     9.0350E-21    -4.8979E-40
     Pert. #  2: Fermi energy shift (Ry) =     9.0350E-21     2.4489E-40

      iter #   2 total cpu time :    41.4 secs   av.it.:   8.7
      thresh= 9.721E-05 alpha_mix =  0.700 |ddv_scf|^2 =  1.695E-08
 
     Pert. #  1: Fermi energy shift (Ry) =    -4.5175E-21     3.0612E-41
     Pert. #  2: Fermi energy shift (Ry) =    -6.2116E-21    -6.1224E-41

      iter #   3 total cpu time :    44.2 secs   av.it.:   8.9
      thresh= 1.302E-05 alpha_mix =  0.700 |ddv_scf|^2 =  4.424E-10
 
     Pert. #  1: Fermi energy shift (Ry) =    -2.2588E-21    -6.1224E-41
     Pert. #  2: Fermi energy shift (Ry) =    -1.1294E-21    -1.5306E-40

      iter #   4 total cpu time :    46.9 secs   av.it.:   8.5
      thresh= 2.103E-06 alpha_mix =  0.700 |ddv_scf|^2 =  1.545E-12
 
     Pert. #  1: Fermi energy shift (Ry) =    -1.6941E-21     0.0000E+00
     Pert. #  2: Fermi energy shift (Ry) =     1.6941E-21     6.2180E-42

      iter #   5 total cpu time :    49.6 secs   av.it.:   8.9
      thresh= 1.243E-07 alpha_mix =  0.700 |ddv_scf|^2 =  5.869E-15
 
     Pert. #  1: Fermi energy shift (Ry) =    -1.1294E-21    -3.8265E-42
     Pert. #  2: Fermi energy shift (Ry) =     1.1294E-21    -1.1479E-41

      iter #   6 total cpu time :    52.9 secs   av.it.:   8.7
      thresh= 7.661E-09 alpha_mix =  0.700 |ddv_scf|^2 =  1.053E-16

     End of self-consistent calculation

     Convergence has been achieved 


     Representation #  3 mode #   5

     Self-consistent Calculation
 
     Pert. #  1: Fermi energy shift (Ry) =     0.0000E+00     0.0000E+00

      iter #   1 total cpu time :    54.7 secs   av.it.:   5.5
      thresh= 1.000E-02 alpha_mix =  0.700 |ddv_scf|^2 =  2.050E-05
 
     Pert. #  1: Fermi energy shift (Ry) =     0.0000E+00     0.0000E+00

      iter #   2 total cpu time :    55.2 secs   av.it.:   8.0
      thresh= 4.527E-04 alpha_mix =  0.700 |ddv_scf|^2 =  1.150E-05
 
     Pert. #  1: Fermi energy shift (Ry) =    -5.6469E-22     0.0000E+00

      iter #   3 total cpu time :    55.7 secs   av.it.:   7.0
      thresh= 3.391E-04 alpha_mix =  0.700 |ddv_scf|^2 =  1.921E-08
 
     Pert. #  1: Fermi energy shift (Ry) =    -1.4117E-22     0.0000E+00

      iter #   4 total cpu time :    56.2 secs   av.it.:   8.4
      thresh= 1.386E-05 alpha_mix =  0.700 |ddv_scf|^2 =  3.992E-10
 
     Pert. #  1: Fermi energy shift (Ry) =    -2.8234E-22     0.0000E+00

      iter #   5 total cpu time :    56.7 secs   av.it.:   7.9
      thresh= 1.998E-06 alpha_mix =  0.700 |ddv_scf|^2 =  3.092E-12
 
     Pert. #  1: Fermi energy shift (Ry) =     0.0000E+00     0.0000E+00

      iter #   6 total cpu time :    57.2 secs   av.it.:   8.0
      thresh= 1.758E-07 alpha_mix =  0.700 |ddv_scf|^2 =  3.158E-14
 
     Pert. #  1: Fermi energy shift (Ry) =    -2.8234E-22     0.0000E+00

      iter #   7 total cpu time :    58.0 secs   av.it.:   8.2
      thresh= 1.777E-08 alpha_mix =  0.700 |ddv_scf|^2 =  6.028E-16

     End of self-consistent calculation

     Convergence has been achieved 


     Representation #  4 mode #   6

     Self-consistent Calculation
 
     Pert. #  1: Fermi energy shift (Ry) =     0.0000E+00     0.0000E+00

      iter #   1 total cpu time :    58.7 secs   av.it.:   5.5
      thresh= 1.000E-02 alpha_mix =  0.700 |ddv_scf|^2 =  2.050E-05
 
     Pert. #  1: Fermi energy shift (Ry) =    -1.1294E-21     0.0000E+00

      iter #   2 total cpu time :    59.6 secs   av.it.:   8.0
      thresh= 4.527E-04 alpha_mix =  0.700 |ddv_scf|^2 =  1.150E-05
 
     Pert. #  1: Fermi energy shift (Ry) =     5.6469E-22     0.0000E+00

      iter #   3 total cpu time :    60.1 secs   av.it.:   7.0
      thresh= 3.391E-04 alpha_mix =  0.700 |ddv_scf|^2 =  1.921E-08
 
     Pert. #  1: Fermi energy shift (Ry) =    -1.4117E-22     0.0000E+00

      iter #   4 total cpu time :    60.6 secs   av.it.:   8.4
      thresh= 1.386E-05 alpha_mix =  0.700 |ddv_scf|^2 =  3.994E-10
 
     Pert. #  1: Fermi energy shift (Ry) =    -2.8234E-22     0.0000E+00

      iter #   5 total cpu time :    61.2 secs   av.it.:   7.9
      thresh= 1.998E-06 alpha_mix =  0.700 |ddv_scf|^2 =  3.092E-12
 
     Pert. #  1: Fermi energy shift (Ry) =    -2.8234E-22     0.0000E+00

      iter #   6 total cpu time :    61.9 secs   av.it.:   8.0
      thresh= 1.758E-07 alpha_mix =  0.700 |ddv_scf|^2 =  3.158E-14
 
     Pert. #  1: Fermi energy shift (Ry) =    -2.8234E-22     0.0000E+00

      iter #   7 total cpu time :    62.4 secs   av.it.:   8.2
      thresh= 1.777E-08 alpha_mix =  0.700 |ddv_scf|^2 =  6.028E-16

     End of self-consistent calculation

     Convergence has been achieved 
 
     Number of q in the star =    1
     List of q in the star:
          1   0.000000000   0.000000000   0.000000000

     Diagonalizing the dynamical matrix

     q = (    0.000000000   0.000000000   0.000000000 ) 

 **************************************************************************
     freq (    1) =      -0.546746 [THz] =     -18.237492 [cm-1]
     freq (    2) =      -0.546746 [THz] =     -18.237492 [cm-1]
     freq (    3) =       0.574577 [THz] =      19.165815 [cm-1]
     freq (    4) =       1.689917 [THz] =      56.369557 [cm-1]
     freq (    5) =       1.689917 [THz] =      56.369557 [cm-1]
     freq (    6) =       4.080771 [THz] =     136.119862 [cm-1]
 **************************************************************************

     Mode symmetry, D_3h (-62m) point group:

     freq (  1 -  2) =        -18.2  [cm-1]   --> E'              I+R
     freq (  3 -  3) =         19.2  [cm-1]   --> A''2            I  
     freq (  4 -  5) =         56.4  [cm-1]   --> E'              I+R
     freq (  6 -  6) =        136.1  [cm-1]   --> A''2            I  

     Calculation of q =    0.0000000   0.0000000   0.1532031
 
     Parallelization info
     --------------------
     sticks:   dense  smooth     PW     G-vecs:    dense   smooth      PW
     Min         133      66     20                 5793     2033     348
     Max         134      67     21                 5800     2041     355
     Sum        1069     535    163                46373    16299    2803
 


     bravais-lattice index     =            4
     lattice parameter (alat)  =       6.9764  a.u.
     unit-cell volume          =     479.8373 (a.u.)^3
     number of atoms/cell      =            2
     number of atomic types    =            1
     number of electrons       =        18.00
     number of Kohn-Sham states=           13
     kinetic-energy cutoff     =      40.0000  Ry
     charge density cutoff     =     320.0000  Ry
     Exchange-correlation      = SLA  PW   PBE  PBE ( 1  4  3  4 0 0)

     celldm(1)=   6.976383  celldm(2)=   0.000000  celldm(3)=   1.631821
     celldm(4)=   0.000000  celldm(5)=   0.000000  celldm(6)=   0.000000

     crystal axes: (cart. coord. in units of alat)
               a(1) = (   1.000000   0.000000   0.000000 )  
               a(2) = (  -0.500000   0.866025   0.000000 )  
               a(3) = (   0.000000   0.000000   1.631821 )  

     reciprocal axes: (cart. coord. in units 2 pi/alat)
               b(1) = (  1.000000  0.577350  0.000000 )  
               b(2) = (  0.000000  1.154701  0.000000 )  
               b(3) = (  0.000000  0.000000  0.612812 )  


     PseudoPot. # 1 for Na read from file:
     ./Na_pbe_v1.uspp.F.UPF
     MD5 check sum: 76a99c7e9422403d3e93cbc85ab7bccb
     Pseudo is Ultrasoft, Zval =  9.0
     Generated by new atomic code, or converted to UPF format
     Using radial grid of  819 points,  5 beta functions with: 
                l(1) =   0
                l(2) =   0
                l(3) =   1
                l(4) =   1
                l(5) =   2
     Q(r) pseudized with  8 coefficients,  rinner =    1.250   1.250   1.250
                                                       1.250   1.250

     atomic species   valence    mass     pseudopotential
        Na             9.00    22.99000     Na( 1.00)

     12 Sym. Ops. (no inversion) found



   Cartesian axes

     site n.     atom                  positions (alat units)
         1           Na  tau(   1) = (   0.0000000   0.0000000   0.0000000  )
         2           Na  tau(   2) = (   0.5000000   0.2886751   0.8159104  )

     number of k points=  2616  Marzari-Vanderbilt smearing, width (Ry)=  0.0200

     Number of k-points >= 100: set verbosity='high' to print them.

     Dense  grid:    46373 G-vectors     FFT dimensions: (  40,  40,  72)

     Smooth grid:    16299 G-vectors     FFT dimensions: (  30,  30,  45)

     Largest allocated arrays     est. size (Mb)     dimensions
        Kohn-Sham Wavefunctions         0.05 Mb     (     271,   13)
        NL pseudopotentials             0.11 Mb     (     271,   26)
        Each V/rho on FFT grid          0.22 Mb     (   14400)
        Each G-vector array             0.04 Mb     (    5800)
        G-vector shells                 0.01 Mb     (    1716)
     Largest temporary arrays     est. size (Mb)     dimensions
        Auxiliary wavefunctions         0.22 Mb     (     271,   52)
        Each subspace H/S matrix        0.01 Mb     (      26,   26)
        Each <psi_i|beta_j> matrix      0.01 Mb     (      26,   13)

     The potential is recalculated from file :
     ./na_hcp_6.976382950545051/_ph0/na_hcp_6.976382950545051.save/charge-density.dat

     Starting wfc are   10 atomic +    3 random wfc

     Band Structure Calculation
     Davidson diagonalization with overlap

     ethr =  5.56E-11,  avg # of iterations = 23.2

     total cpu time spent up to now is        8.4 secs

     End of band structure calculation

     Number of k-points >= 100: set verbosity='high' to print the bands.

     the Fermi energy is     1.7818 ev

     Writing output data file na_hcp_6.976382950545051.save

                                                                                

     bravais-lattice index     =            4
     lattice parameter (alat)  =       6.9764  a.u.
     unit-cell volume          =     479.8373 (a.u.)^3
     number of atoms/cell      =            2
     number of atomic types    =            1
     kinetic-energy cut-off    =      40.0000  Ry
     charge density cut-off    =     320.0000  Ry
     convergence threshold     =      1.0E-15
     beta                      =       0.7000
     number of iterations used =            4
     Exchange-correlation      = SLA  PW   PBE  PBE ( 1  4  3  4 0 0)


     celldm(1)=    6.97638  celldm(2)=    0.00000  celldm(3)=    1.63182
     celldm(4)=    0.00000  celldm(5)=    0.00000  celldm(6)=    0.00000

     crystal axes: (cart. coord. in units of alat)
               a(1) = (  1.0000  0.0000  0.0000 )  
               a(2) = ( -0.5000  0.8660  0.0000 )  
               a(3) = (  0.0000  0.0000  1.6318 )  

     reciprocal axes: (cart. coord. in units 2 pi/alat)
               b(1) = (  1.0000  0.5774  0.0000 )  
               b(2) = (  0.0000  1.1547  0.0000 )  
               b(3) = (  0.0000  0.0000  0.6128 )  


     Atoms inside the unit cell: 

     Cartesian axes

     site n.  atom      mass           positions (alat units)
        1     Na  22.9900   tau(    1) = (    0.00000    0.00000    0.00000  )
        2     Na  22.9900   tau(    2) = (    0.50000    0.28868    0.81591  )

     Computing dynamical matrix for 
                    q = (   0.0000000   0.0000000   0.1532031 )
 
      6 Sym.Ops. (no q -> -q+G )


     G cutoff =  394.5035  (   5800 G-vectors)     FFT grid: ( 40, 40, 72)
     G cutoff =  197.2518  (   2041 G-vectors)  smooth grid: ( 30, 30, 45)

     number of k points=  2616  Marzari-Vanderbilt smearing, width (Ry)=  0.0200

     PseudoPot. # 1 for Na read from file:
     ./Na_pbe_v1.uspp.F.UPF
     MD5 check sum: 76a99c7e9422403d3e93cbc85ab7bccb
     Pseudo is Ultrasoft, Zval =  9.0
     Generated by new atomic code, or converted to UPF format
     Using radial grid of  819 points,  5 beta functions with: 
                l(1) =   0
                l(2) =   0
                l(3) =   1
                l(4) =   1
                l(5) =   2
     Q(r) pseudized with  8 coefficients,  rinner =    1.250   1.250   1.250
                                                       1.250   1.250

     Mode symmetry, C_3v (3m)   point group:


     Atomic displacements:
     There are   4 irreducible representations

     Representation     1      1 modes -A_1  L_1  To be done

     Representation     2      1 modes -A_1  L_1  To be done

     Representation     3      2 modes -E    L_3  To be done

     Representation     4      2 modes -E    L_3  To be done



     Alpha used in Ewald sum =   2.8000
     PHONON       :  1m 5.07s CPU     1m17.20s WALL



     Representation #  1 mode #   1

     Self-consistent Calculation

      iter #   1 total cpu time :    78.6 secs   av.it.:   5.8
      thresh= 1.000E-02 alpha_mix =  0.700 |ddv_scf|^2 =  3.092E-02

      iter #   2 total cpu time :    86.3 secs   av.it.:   6.8
      thresh= 1.000E-02 alpha_mix =  0.700 |ddv_scf|^2 =  1.693E+01

      iter #   3 total cpu time :    92.8 secs   av.it.:   6.7
      thresh= 1.000E-02 alpha_mix =  0.700 |ddv_scf|^2 =  2.010E-04

      iter #   4 total cpu time :   100.4 secs   av.it.:   7.3
      thresh= 1.418E-03 alpha_mix =  0.700 |ddv_scf|^2 =  3.615E-04

      iter #   5 total cpu time :   123.0 secs   av.it.:   6.4
      thresh= 1.901E-03 alpha_mix =  0.700 |ddv_scf|^2 =  1.270E-08

      iter #   6 total cpu time :   127.5 secs   av.it.:   8.3
      thresh= 1.127E-05 alpha_mix =  0.700 |ddv_scf|^2 =  1.048E-08

      iter #   7 total cpu time :   131.0 secs   av.it.:   6.0
      thresh= 1.024E-05 alpha_mix =  0.700 |ddv_scf|^2 =  1.326E-07

      iter #   8 total cpu time :   137.4 secs   av.it.:   6.1
      thresh= 3.642E-05 alpha_mix =  0.700 |ddv_scf|^2 =  3.893E-10

      iter #   9 total cpu time :   143.2 secs   av.it.:   7.4
      thresh= 1.973E-06 alpha_mix =  0.700 |ddv_scf|^2 =  6.230E-09

      iter #  10 total cpu time :   147.8 secs   av.it.:   6.0
      thresh= 7.893E-06 alpha_mix =  0.700 |ddv_scf|^2 =  2.403E-12

      iter #  11 total cpu time :   154.5 secs   av.it.:   8.0
      thresh= 1.550E-07 alpha_mix =  0.700 |ddv_scf|^2 =  9.848E-13

      iter #  12 total cpu time :   158.3 secs   av.it.:   7.2
      thresh= 9.923E-08 alpha_mix =  0.700 |ddv_scf|^2 =  5.411E-14

      iter #  13 total cpu time :   162.9 secs   av.it.:   8.4
      thresh= 2.326E-08 alpha_mix =  0.700 |ddv_scf|^2 =  3.080E-12

      iter #  14 total cpu time :   167.8 secs   av.it.:   4.0
      thresh= 1.755E-07 alpha_mix =  0.700 |ddv_scf|^2 =  1.189E-14

      iter #  15 total cpu time :   172.5 secs   av.it.:   7.8
      thresh= 1.090E-08 alpha_mix =  0.700 |ddv_scf|^2 =  1.012E-14

      iter #  16 total cpu time :   178.5 secs   av.it.:   6.0
      thresh= 1.006E-08 alpha_mix =  0.700 |ddv_scf|^2 =  6.356E-15

      iter #  17 total cpu time :   184.3 secs   av.it.:   6.7
      thresh= 7.972E-09 alpha_mix =  0.700 |ddv_scf|^2 =  3.025E-17

     End of self-consistent calculation

     Convergence has been achieved 


     Representation #  2 mode #   2

     Self-consistent Calculation

      iter #   1 total cpu time :   191.2 secs   av.it.:   5.8
      thresh= 1.000E-02 alpha_mix =  0.700 |ddv_scf|^2 =  3.092E-02

      iter #   2 total cpu time :   202.9 secs   av.it.:   6.8
      thresh= 1.000E-02 alpha_mix =  0.700 |ddv_scf|^2 =  1.693E+01

      iter #   3 total cpu time :   210.9 secs   av.it.:   6.7
      thresh= 1.000E-02 alpha_mix =  0.700 |ddv_scf|^2 =  2.010E-04

      iter #   4 total cpu time :   216.3 secs   av.it.:   7.3
      thresh= 1.418E-03 alpha_mix =  0.700 |ddv_scf|^2 =  3.615E-04

      iter #   5 total cpu time :   237.1 secs   av.it.:   6.4
      thresh= 1.901E-03 alpha_mix =  0.700 |ddv_scf|^2 =  1.271E-08

      iter #   6 total cpu time :   248.3 secs   av.it.:   8.3
      thresh= 1.127E-05 alpha_mix =  0.700 |ddv_scf|^2 =  1.292E-08

      iter #   7 total cpu time :   257.0 secs   av.it.:   5.7
      thresh= 1.137E-05 alpha_mix =  0.700 |ddv_scf|^2 =  1.133E-07

      iter #   8 total cpu time :   262.5 secs   av.it.:   6.2
      thresh= 3.366E-05 alpha_mix =  0.700 |ddv_scf|^2 =  3.880E-10

      iter #   9 total cpu time :   268.3 secs   av.it.:   7.4
      thresh= 1.970E-06 alpha_mix =  0.700 |ddv_scf|^2 =  6.204E-09

      iter #  10 total cpu time :   273.5 secs   av.it.:   6.0
      thresh= 7.877E-06 alpha_mix =  0.700 |ddv_scf|^2 =  2.395E-12

      iter #  11 total cpu time :   277.7 secs   av.it.:   8.0
      thresh= 1.547E-07 alpha_mix =  0.700 |ddv_scf|^2 =  9.219E-13

      iter #  12 total cpu time :   282.7 secs   av.it.:   7.2
      thresh= 9.602E-08 alpha_mix =  0.700 |ddv_scf|^2 =  5.642E-14

      iter #  13 total cpu time :   303.5 secs   av.it.:   8.3
      thresh= 2.375E-08 alpha_mix =  0.700 |ddv_scf|^2 =  3.789E-12

      iter #  14 total cpu time :   307.2 secs   av.it.:   3.7
      thresh= 1.946E-07 alpha_mix =  0.700 |ddv_scf|^2 =  9.835E-15

      iter #  15 total cpu time :   312.0 secs   av.it.:   7.9
      thresh= 9.917E-09 alpha_mix =  0.700 |ddv_scf|^2 =  1.024E-14

      iter #  16 total cpu time :   315.9 secs   av.it.:   6.0
      thresh= 1.012E-08 alpha_mix =  0.700 |ddv_scf|^2 =  6.446E-15

      iter #  17 total cpu time :   320.6 secs   av.it.:   6.7
      thresh= 8.029E-09 alpha_mix =  0.700 |ddv_scf|^2 =  2.974E-17

     End of self-consistent calculation

     Convergence has been achieved 


     Representation #  3 modes #   3  4

     Self-consistent Calculation

      iter #   1 total cpu time :   327.5 secs   av.it.:   5.3
      thresh= 1.000E-02 alpha_mix =  0.700 |ddv_scf|^2 =  9.440E-07

      iter #   2 total cpu time :   336.9 secs   av.it.:   8.7
      thresh= 9.716E-05 alpha_mix =  0.700 |ddv_scf|^2 =  1.696E-08

      iter #   3 total cpu time :   344.9 secs   av.it.:   9.0
      thresh= 1.302E-05 alpha_mix =  0.700 |ddv_scf|^2 =  4.341E-10

      iter #   4 total cpu time :   354.4 secs   av.it.:   8.6
      thresh= 2.084E-06 alpha_mix =  0.700 |ddv_scf|^2 =  1.484E-12

      iter #   5 total cpu time :   365.1 secs   av.it.:   9.0
      thresh= 1.218E-07 alpha_mix =  0.700 |ddv_scf|^2 =  4.344E-15

      iter #   6 total cpu time :   374.1 secs   av.it.:   8.6
      thresh= 6.591E-09 alpha_mix =  0.700 |ddv_scf|^2 =  1.003E-16

     End of self-consistent calculation

     Convergence has been achieved 


     Representation #  4 modes #   5  6

     Self-consistent Calculation

      iter #   1 total cpu time :   383.6 secs   av.it.:   5.2
      thresh= 1.000E-02 alpha_mix =  0.700 |ddv_scf|^2 =  9.439E-07

      iter #   2 total cpu time :   394.2 secs   av.it.:   8.7
      thresh= 9.715E-05 alpha_mix =  0.700 |ddv_scf|^2 =  1.697E-08

      iter #   3 total cpu time :   403.0 secs   av.it.:   9.0
      thresh= 1.303E-05 alpha_mix =  0.700 |ddv_scf|^2 =  4.355E-10

      iter #   4 total cpu time :   410.6 secs   av.it.:   8.5
      thresh= 2.087E-06 alpha_mix =  0.700 |ddv_scf|^2 =  1.477E-12

      iter #   5 total cpu time :   419.4 secs   av.it.:   8.9
      thresh= 1.215E-07 alpha_mix =  0.700 |ddv_scf|^2 =  4.350E-15

      iter #   6 total cpu time :   428.3 secs   av.it.:   8.6
      thresh= 6.596E-09 alpha_mix =  0.700 |ddv_scf|^2 =  1.004E-16

     End of self-consistent calculation

     Convergence has been achieved 
 
     Number of q in the star =    2
     List of q in the star:
          1   0.000000000   0.000000000   0.153203096
          2   0.000000000   0.000000000  -0.153203096

     Diagonalizing the dynamical matrix

     q = (    0.000000000   0.000000000   0.153203096 ) 

 **************************************************************************
     freq (    1) =       0.418360 [THz] =      13.954971 [cm-1]
     freq (    2) =       0.418360 [THz] =      13.954971 [cm-1]
     freq (    3) =       1.564648 [THz] =      52.191048 [cm-1]
     freq (    4) =       1.564648 [THz] =      52.191048 [cm-1]
     freq (    5) =       1.658697 [THz] =      55.328163 [cm-1]
     freq (    6) =       3.833031 [THz] =     127.856148 [cm-1]
 **************************************************************************

     Mode symmetry, C_3v (3m)   point group:

     freq (  1 -  2) =         14.0  [cm-1]   --> E    L_3           
     freq (  3 -  4) =         52.2  [cm-1]   --> E    L_3           
     freq (  5 -  5) =         55.3  [cm-1]   --> A_1  L_1           
     freq (  6 -  6) =        127.9  [cm-1]   --> A_1  L_1           

     Calculation of q =    0.0000000   0.0000000  -0.3064062
 
     Parallelization info
     --------------------
     sticks:   dense  smooth     PW     G-vecs:    dense   smooth      PW
     Min         133      66     20                 5793     2033     344
     Max         134      67     21                 5800     2041     349
     Sum        1069     535    163                46373    16299    2767
 


     bravais-lattice index     =            4
     lattice parameter (alat)  =       6.9764  a.u.
     unit-cell volume          =     479.8373 (a.u.)^3
     number of atoms/cell      =            2
     number of atomic types    =            1
     number of electrons       =        18.00
     number of Kohn-Sham states=           13
     kinetic-energy cutoff     =      40.0000  Ry
     charge density cutoff     =     320.0000  Ry
     Exchange-correlation      = SLA  PW   PBE  PBE ( 1  4  3  4 0 0)

     celldm(1)=   6.976383  celldm(2)=   0.000000  celldm(3)=   1.631821
     celldm(4)=   0.000000  celldm(5)=   0.000000  celldm(6)=   0.000000

     crystal axes: (cart. coord. in units of alat)
               a(1) = (   1.000000   0.000000   0.000000 )  
               a(2) = (  -0.500000   0.866025   0.000000 )  
               a(3) = (   0.000000   0.000000   1.631821 )  

     reciprocal axes: (cart. coord. in units 2 pi/alat)
               b(1) = (  1.000000  0.577350  0.000000 )  
               b(2) = (  0.000000  1.154701  0.000000 )  
               b(3) = (  0.000000  0.000000  0.612812 )  


     PseudoPot. # 1 for Na read from file:
     ./Na_pbe_v1.uspp.F.UPF
     MD5 check sum: 76a99c7e9422403d3e93cbc85ab7bccb
     Pseudo is Ultrasoft, Zval =  9.0
     Generated by new atomic code, or converted to UPF format
     Using radial grid of  819 points,  5 beta functions with: 
                l(1) =   0
                l(2) =   0
                l(3) =   1
                l(4) =   1
                l(5) =   2
     Q(r) pseudized with  8 coefficients,  rinner =    1.250   1.250   1.250
                                                       1.250   1.250

     atomic species   valence    mass     pseudopotential
        Na             9.00    22.99000     Na( 1.00)

     12 Sym. Ops. (no inversion) found



   Cartesian axes

     site n.     atom                  positions (alat units)
         1           Na  tau(   1) = (   0.0000000   0.0000000   0.0000000  )
         2           Na  tau(   2) = (   0.5000000   0.2886751   0.8159104  )

     number of k points=   732  Marzari-Vanderbilt smearing, width (Ry)=  0.0200

     Number of k-points >= 100: set verbosity='high' to print them.

     Dense  grid:    46373 G-vectors     FFT dimensions: (  40,  40,  72)

     Smooth grid:    16299 G-vectors     FFT dimensions: (  30,  30,  45)

     Largest allocated arrays     est. size (Mb)     dimensions
        Kohn-Sham Wavefunctions         0.05 Mb     (     269,   13)
        NL pseudopotentials             0.11 Mb     (     269,   26)
        Each V/rho on FFT grid          0.22 Mb     (   14400)
        Each G-vector array             0.04 Mb     (    5800)
        G-vector shells                 0.01 Mb     (    1746)
     Largest temporary arrays     est. size (Mb)     dimensions
        Auxiliary wavefunctions         0.21 Mb     (     269,   52)
        Each subspace H/S matrix        0.01 Mb     (      26,   26)
        Each <psi_i|beta_j> matrix      0.01 Mb     (      26,   13)

     The potential is recalculated from file :
     ./na_hcp_6.976382950545051/_ph0/na_hcp_6.976382950545051.save/charge-density.dat

     Starting wfc are   10 atomic +    3 random wfc

     Band Structure Calculation
     Davidson diagonalization with overlap

     ethr =  5.56E-11,  avg # of iterations = 23.3

     total cpu time spent up to now is       14.7 secs

     End of band structure calculation

     Number of k-points >= 100: set verbosity='high' to print the bands.

     the Fermi energy is     1.7818 ev

     Writing output data file na_hcp_6.976382950545051.save

                                                                                

     bravais-lattice index     =            4
     lattice parameter (alat)  =       6.9764  a.u.
     unit-cell volume          =     479.8373 (a.u.)^3
     number of atoms/cell      =            2
     number of atomic types    =            1
     kinetic-energy cut-off    =      40.0000  Ry
     charge density cut-off    =     320.0000  Ry
     convergence threshold     =      1.0E-15
     beta                      =       0.7000
     number of iterations used =            4
     Exchange-correlation      = SLA  PW   PBE  PBE ( 1  4  3  4 0 0)


     celldm(1)=    6.97638  celldm(2)=    0.00000  celldm(3)=    1.63182
     celldm(4)=    0.00000  celldm(5)=    0.00000  celldm(6)=    0.00000

     crystal axes: (cart. coord. in units of alat)
               a(1) = (  1.0000  0.0000  0.0000 )  
               a(2) = ( -0.5000  0.8660  0.0000 )  
               a(3) = (  0.0000  0.0000  1.6318 )  

     reciprocal axes: (cart. coord. in units 2 pi/alat)
               b(1) = (  1.0000  0.5774  0.0000 )  
               b(2) = (  0.0000  1.1547  0.0000 )  
               b(3) = (  0.0000  0.0000  0.6128 )  


     Atoms inside the unit cell: 

     Cartesian axes

     site n.  atom      mass           positions (alat units)
        1     Na  22.9900   tau(    1) = (    0.00000    0.00000    0.00000  )
        2     Na  22.9900   tau(    2) = (    0.50000    0.28868    0.81591  )

     Computing dynamical matrix for 
                    q = (   0.0000000   0.0000000  -0.3064062 )
 
     13 Sym.Ops. (with q -> -q+G )


     G cutoff =  394.5035  (   5800 G-vectors)     FFT grid: ( 40, 40, 72)
     G cutoff =  197.2518  (   2039 G-vectors)  smooth grid: ( 30, 30, 45)

     number of k points=   732  Marzari-Vanderbilt smearing, width (Ry)=  0.0200

     PseudoPot. # 1 for Na read from file:
     ./Na_pbe_v1.uspp.F.UPF
     MD5 check sum: 76a99c7e9422403d3e93cbc85ab7bccb
     Pseudo is Ultrasoft, Zval =  9.0
     Generated by new atomic code, or converted to UPF format
     Using radial grid of  819 points,  5 beta functions with: 
                l(1) =   0
                l(2) =   0
                l(3) =   1
                l(4) =   1
                l(5) =   2
     Q(r) pseudized with  8 coefficients,  rinner =    1.250   1.250   1.250
                                                       1.250   1.250

     Mode symmetry, D_3h (-62m) point group:


     Atomic displacements:
     There are   4 irreducible representations

     Representation     1      1 modes -A'_1  To be done

     Representation     2      2 modes -E'  To be done

     Representation     3      1 modes -A''2  To be done

     Representation     4      2 modes -E''  To be done



     Alpha used in Ewald sum =   2.8000
     PHONON       :  6m15.85s CPU     7m12.77s WALL



     Representation #  1 mode #   1

     Self-consistent Calculation

      iter #   1 total cpu time :   433.5 secs   av.it.:   5.7
      thresh= 1.000E-02 alpha_mix =  0.700 |ddv_scf|^2 =  9.830E-04

      iter #   2 total cpu time :   434.3 secs   av.it.:   7.0
      thresh= 3.135E-03 alpha_mix =  0.700 |ddv_scf|^2 =  2.634E-02

      iter #   3 total cpu time :   434.8 secs   av.it.:   5.9
      thresh= 1.000E-02 alpha_mix =  0.700 |ddv_scf|^2 =  7.175E-07

      iter #   4 total cpu time :   435.2 secs   av.it.:   7.9
      thresh= 8.470E-05 alpha_mix =  0.700 |ddv_scf|^2 =  3.493E-09

      iter #   5 total cpu time :   435.9 secs   av.it.:   8.7
      thresh= 5.910E-06 alpha_mix =  0.700 |ddv_scf|^2 =  2.641E-10

      iter #   6 total cpu time :   436.4 secs   av.it.:   8.5
      thresh= 1.625E-06 alpha_mix =  0.700 |ddv_scf|^2 =  6.970E-12

      iter #   7 total cpu time :   437.0 secs   av.it.:   8.9
      thresh= 2.640E-07 alpha_mix =  0.700 |ddv_scf|^2 =  9.729E-13

      iter #   8 total cpu time :   438.1 secs   av.it.:   7.6
      thresh= 9.863E-08 alpha_mix =  0.700 |ddv_scf|^2 =  4.545E-16

     End of self-consistent calculation

     Convergence has been achieved 


     Representation #  2 modes #   2  3

     Self-consistent Calculation

      iter #   1 total cpu time :   439.7 secs   av.it.:   5.2
      thresh= 1.000E-02 alpha_mix =  0.700 |ddv_scf|^2 =  9.430E-07

      iter #   2 total cpu time :   441.4 secs   av.it.:   8.7
      thresh= 9.711E-05 alpha_mix =  0.700 |ddv_scf|^2 =  1.696E-08

      iter #   3 total cpu time :   443.1 secs   av.it.:   9.0
      thresh= 1.302E-05 alpha_mix =  0.700 |ddv_scf|^2 =  4.263E-10

      iter #   4 total cpu time :   445.8 secs   av.it.:   8.5
      thresh= 2.065E-06 alpha_mix =  0.700 |ddv_scf|^2 =  1.426E-12

      iter #   5 total cpu time :   456.8 secs   av.it.:   8.9
      thresh= 1.194E-07 alpha_mix =  0.700 |ddv_scf|^2 =  2.743E-15

      iter #   6 total cpu time :   459.5 secs   av.it.:   8.2
      thresh= 5.238E-09 alpha_mix =  0.700 |ddv_scf|^2 =  9.143E-17

     End of self-consistent calculation

     Convergence has been achieved 


     Representation #  3 mode #   4

     Self-consistent Calculation

      iter #   1 total cpu time :   461.4 secs   av.it.:   5.7
      thresh= 1.000E-02 alpha_mix =  0.700 |ddv_scf|^2 =  9.830E-04

      iter #   2 total cpu time :   464.7 secs   av.it.:   7.0
      thresh= 3.135E-03 alpha_mix =  0.700 |ddv_scf|^2 =  2.634E-02

      iter #   3 total cpu time :   465.3 secs   av.it.:   5.9
      thresh= 1.000E-02 alpha_mix =  0.700 |ddv_scf|^2 =  7.176E-07

      iter #   4 total cpu time :   465.7 secs   av.it.:   7.9
      thresh= 8.471E-05 alpha_mix =  0.700 |ddv_scf|^2 =  3.496E-09

      iter #   5 total cpu time :   466.3 secs   av.it.:   8.7
      thresh= 5.913E-06 alpha_mix =  0.700 |ddv_scf|^2 =  2.644E-10

      iter #   6 total cpu time :   466.8 secs   av.it.:   8.5
      thresh= 1.626E-06 alpha_mix =  0.700 |ddv_scf|^2 =  6.971E-12

      iter #   7 total cpu time :   467.3 secs   av.it.:   8.9
      thresh= 2.640E-07 alpha_mix =  0.700 |ddv_scf|^2 =  9.746E-13

      iter #   8 total cpu time :   467.8 secs   av.it.:   7.6
      thresh= 9.872E-08 alpha_mix =  0.700 |ddv_scf|^2 =  4.654E-16

     End of self-consistent calculation

     Convergence has been achieved 


     Representation #  4 modes #   5  6

     Self-consistent Calculation

      iter #   1 total cpu time :   470.0 secs   av.it.:   5.2
      thresh= 1.000E-02 alpha_mix =  0.700 |ddv_scf|^2 =  9.429E-07

      iter #   2 total cpu time :   472.1 secs   av.it.:   8.7
      thresh= 9.710E-05 alpha_mix =  0.700 |ddv_scf|^2 =  1.697E-08

      iter #   3 total cpu time :   475.0 secs   av.it.:   9.0
      thresh= 1.303E-05 alpha_mix =  0.700 |ddv_scf|^2 =  4.276E-10

      iter #   4 total cpu time :   477.3 secs   av.it.:   8.5
      thresh= 2.068E-06 alpha_mix =  0.700 |ddv_scf|^2 =  1.419E-12

      iter #   5 total cpu time :   479.8 secs   av.it.:   9.0
      thresh= 1.191E-07 alpha_mix =  0.700 |ddv_scf|^2 =  2.751E-15

      iter #   6 total cpu time :   481.7 secs   av.it.:   8.3
      thresh= 5.245E-09 alpha_mix =  0.700 |ddv_scf|^2 =  9.154E-17

     End of self-consistent calculation

     Convergence has been achieved 
 
     Number of q in the star =    1
     List of q in the star:
          1   0.000000000   0.000000000  -0.306406192

     Diagonalizing the dynamical matrix

     q = (    0.000000000   0.000000000  -0.306406192 ) 

 **************************************************************************
     freq (    1) =       1.125795 [THz] =      37.552479 [cm-1]
     freq (    2) =       1.125795 [THz] =      37.552479 [cm-1]
     freq (    3) =       1.161893 [THz] =      38.756573 [cm-1]
     freq (    4) =       1.161893 [THz] =      38.756573 [cm-1]
     freq (    5) =       2.995846 [THz] =      99.930656 [cm-1]
     freq (    6) =       2.996064 [THz] =      99.937930 [cm-1]
 **************************************************************************

     Mode symmetry, D_3h (-62m) point group:

     freq (  1 -  2) =         37.6  [cm-1]   --> E'                 
     freq (  3 -  4) =         38.8  [cm-1]   --> E''                
     freq (  5 -  5) =         99.9  [cm-1]   --> A'_1               
     freq (  6 -  6) =         99.9  [cm-1]   --> A''2               

     Calculation of q =    0.0000000   0.2886751   0.0000000
 
     Parallelization info
     --------------------
     sticks:   dense  smooth     PW     G-vecs:    dense   smooth      PW
     Min         133      66     20                 5793     2032     372
     Max         134      67     21                 5800     2043     381
     Sum        1069     535    163                46373    16299    3009
 


     bravais-lattice index     =            4
     lattice parameter (alat)  =       6.9764  a.u.
     unit-cell volume          =     479.8373 (a.u.)^3
     number of atoms/cell      =            2
     number of atomic types    =            1
     number of electrons       =        18.00
     number of Kohn-Sham states=           13
     kinetic-energy cutoff     =      40.0000  Ry
     charge density cutoff     =     320.0000  Ry
     Exchange-correlation      = SLA  PW   PBE  PBE ( 1  4  3  4 0 0)

     celldm(1)=   6.976383  celldm(2)=   0.000000  celldm(3)=   1.631821
     celldm(4)=   0.000000  celldm(5)=   0.000000  celldm(6)=   0.000000

     crystal axes: (cart. coord. in units of alat)
               a(1) = (   1.000000   0.000000   0.000000 )  
               a(2) = (  -0.500000   0.866025   0.000000 )  
               a(3) = (   0.000000   0.000000   1.631821 )  

     reciprocal axes: (cart. coord. in units 2 pi/alat)
               b(1) = (  1.000000  0.577350  0.000000 )  
               b(2) = (  0.000000  1.154701  0.000000 )  
               b(3) = (  0.000000  0.000000  0.612812 )  


     PseudoPot. # 1 for Na read from file:
     ./Na_pbe_v1.uspp.F.UPF
     MD5 check sum: 76a99c7e9422403d3e93cbc85ab7bccb
     Pseudo is Ultrasoft, Zval =  9.0
     Generated by new atomic code, or converted to UPF format
     Using radial grid of  819 points,  5 beta functions with: 
                l(1) =   0
                l(2) =   0
                l(3) =   1
                l(4) =   1
                l(5) =   2
     Q(r) pseudized with  8 coefficients,  rinner =    1.250   1.250   1.250
                                                       1.250   1.250

     atomic species   valence    mass     pseudopotential
        Na             9.00    22.99000     Na( 1.00)

     12 Sym. Ops. (no inversion) found



   Cartesian axes

     site n.     atom                  positions (alat units)
         1           Na  tau(   1) = (   0.0000000   0.0000000   0.0000000  )
         2           Na  tau(   2) = (   0.5000000   0.2886751   0.8159104  )

     number of k points=  3600  Marzari-Vanderbilt smearing, width (Ry)=  0.0200

     Number of k-points >= 100: set verbosity='high' to print them.

     Dense  grid:    46373 G-vectors     FFT dimensions: (  40,  40,  72)

     Smooth grid:    16299 G-vectors     FFT dimensions: (  30,  30,  45)

     Largest allocated arrays     est. size (Mb)     dimensions
        Kohn-Sham Wavefunctions         0.05 Mb     (     274,   13)
        NL pseudopotentials             0.11 Mb     (     274,   26)
        Each V/rho on FFT grid          0.22 Mb     (   14400)
        Each G-vector array             0.04 Mb     (    5800)
        G-vector shells                 0.01 Mb     (    1747)
     Largest temporary arrays     est. size (Mb)     dimensions
        Auxiliary wavefunctions         0.22 Mb     (     274,   52)
        Each subspace H/S matrix        0.01 Mb     (      26,   26)
        Each <psi_i|beta_j> matrix      0.01 Mb     (      26,   13)

     The potential is recalculated from file :
     ./na_hcp_6.976382950545051/_ph0/na_hcp_6.976382950545051.save/charge-density.dat

     Starting wfc are   10 atomic +    3 random wfc

     Band Structure Calculation
     Davidson diagonalization with overlap

     ethr =  5.56E-11,  avg # of iterations = 22.7

     total cpu time spent up to now is       25.5 secs

     End of band structure calculation

     Number of k-points >= 100: set verbosity='high' to print the bands.

     the Fermi energy is     1.7818 ev

     Writing output data file na_hcp_6.976382950545051.save

                                                                                

     bravais-lattice index     =            4
     lattice parameter (alat)  =       6.9764  a.u.
     unit-cell volume          =     479.8373 (a.u.)^3
     number of atoms/cell      =            2
     number of atomic types    =            1
     kinetic-energy cut-off    =      40.0000  Ry
     charge density cut-off    =     320.0000  Ry
     convergence threshold     =      1.0E-15
     beta                      =       0.7000
     number of iterations used =            4
     Exchange-correlation      = SLA  PW   PBE  PBE ( 1  4  3  4 0 0)


     celldm(1)=    6.97638  celldm(2)=    0.00000  celldm(3)=    1.63182
     celldm(4)=    0.00000  celldm(5)=    0.00000  celldm(6)=    0.00000

     crystal axes: (cart. coord. in units of alat)
               a(1) = (  1.0000  0.0000  0.0000 )  
               a(2) = ( -0.5000  0.8660  0.0000 )  
               a(3) = (  0.0000  0.0000  1.6318 )  

     reciprocal axes: (cart. coord. in units 2 pi/alat)
               b(1) = (  1.0000  0.5774  0.0000 )  
               b(2) = (  0.0000  1.1547  0.0000 )  
               b(3) = (  0.0000  0.0000  0.6128 )  


     Atoms inside the unit cell: 

     Cartesian axes

     site n.  atom      mass           positions (alat units)
        1     Na  22.9900   tau(    1) = (    0.00000    0.00000    0.00000  )
        2     Na  22.9900   tau(    2) = (    0.50000    0.28868    0.81591  )

     Computing dynamical matrix for 
                    q = (   0.0000000   0.2886751   0.0000000 )
 
      4 Sym.Ops. (no q -> -q+G )


     G cutoff =  394.5035  (   5800 G-vectors)     FFT grid: ( 40, 40, 72)
     G cutoff =  197.2518  (   2043 G-vectors)  smooth grid: ( 30, 30, 45)

     number of k points=  3600  Marzari-Vanderbilt smearing, width (Ry)=  0.0200

     PseudoPot. # 1 for Na read from file:
     ./Na_pbe_v1.uspp.F.UPF
     MD5 check sum: 76a99c7e9422403d3e93cbc85ab7bccb
     Pseudo is Ultrasoft, Zval =  9.0
     Generated by new atomic code, or converted to UPF format
     Using radial grid of  819 points,  5 beta functions with: 
                l(1) =   0
                l(2) =   0
                l(3) =   1
                l(4) =   1
                l(5) =   2
     Q(r) pseudized with  8 coefficients,  rinner =    1.250   1.250   1.250
                                                       1.250   1.250

     Mode symmetry, C_2v (mm2)  point group:


     Atomic displacements:
     There are   6 irreducible representations

     Representation     1      1 modes -A_1  D_1  S_1  To be done

     Representation     2      1 modes -A_1  D_1  S_1  To be done

     Representation     3      1 modes -B_1  D_3  S_3  To be done

     Representation     4      1 modes -B_1  D_3  S_3  To be done

     Representation     5      1 modes -B_2  D_4  S_4  To be done

     Representation     6      1 modes -B_2  D_4  S_4  To be done



     Alpha used in Ewald sum =   2.8000
     PHONON       :  7m14.96s CPU     8m19.65s WALL



     Representation #  1 mode #   1

     Self-consistent Calculation

      iter #   1 total cpu time :   501.7 secs   av.it.:   5.7
      thresh= 1.000E-02 alpha_mix =  0.700 |ddv_scf|^2 =  7.066E-04

      iter #   2 total cpu time :   507.0 secs   av.it.:   7.2
      thresh= 2.658E-03 alpha_mix =  0.700 |ddv_scf|^2 =  2.489E-02

      iter #   3 total cpu time :   511.4 secs   av.it.:   5.4
      thresh= 1.000E-02 alpha_mix =  0.700 |ddv_scf|^2 =  6.080E-07

      iter #   4 total cpu time :   516.6 secs   av.it.:   8.1
      thresh= 7.797E-05 alpha_mix =  0.700 |ddv_scf|^2 =  3.342E-08

      iter #   5 total cpu time :   527.4 secs   av.it.:   8.2
      thresh= 1.828E-05 alpha_mix =  0.700 |ddv_scf|^2 =  8.217E-10

      iter #   6 total cpu time :   532.2 secs   av.it.:   8.7
      thresh= 2.866E-06 alpha_mix =  0.700 |ddv_scf|^2 =  1.286E-10

      iter #   7 total cpu time :   535.6 secs   av.it.:   8.0
      thresh= 1.134E-06 alpha_mix =  0.700 |ddv_scf|^2 =  1.721E-09

      iter #   8 total cpu time :   541.3 secs   av.it.:   6.4
      thresh= 4.148E-06 alpha_mix =  0.700 |ddv_scf|^2 =  4.266E-12

      iter #   9 total cpu time :   545.9 secs   av.it.:   8.6
      thresh= 2.065E-07 alpha_mix =  0.700 |ddv_scf|^2 =  7.085E-13

      iter #  10 total cpu time :   551.6 secs   av.it.:   7.6
      thresh= 8.417E-08 alpha_mix =  0.700 |ddv_scf|^2 =  2.268E-12

      iter #  11 total cpu time :   570.2 secs   av.it.:   6.9
      thresh= 1.506E-07 alpha_mix =  0.700 |ddv_scf|^2 =  2.004E-15

      iter #  12 total cpu time :   576.8 secs   av.it.:   8.8
      thresh= 4.476E-09 alpha_mix =  0.700 |ddv_scf|^2 =  1.236E-16

     End of self-consistent calculation

     Convergence has been achieved 


     Representation #  2 mode #   2

     Self-consistent Calculation

      iter #   1 total cpu time :   582.9 secs   av.it.:   5.7
      thresh= 1.000E-02 alpha_mix =  0.700 |ddv_scf|^2 =  7.066E-04

      iter #   2 total cpu time :   587.7 secs   av.it.:   7.2
      thresh= 2.658E-03 alpha_mix =  0.700 |ddv_scf|^2 =  2.489E-02

      iter #   3 total cpu time :   594.1 secs   av.it.:   5.4
      thresh= 1.000E-02 alpha_mix =  0.700 |ddv_scf|^2 =  6.080E-07

      iter #   4 total cpu time :   599.5 secs   av.it.:   8.1
      thresh= 7.797E-05 alpha_mix =  0.700 |ddv_scf|^2 =  3.345E-08

      iter #   5 total cpu time :   604.7 secs   av.it.:   8.2
      thresh= 1.829E-05 alpha_mix =  0.700 |ddv_scf|^2 =  8.242E-10

      iter #   6 total cpu time :   609.4 secs   av.it.:   8.7
      thresh= 2.871E-06 alpha_mix =  0.700 |ddv_scf|^2 =  1.440E-10

      iter #   7 total cpu time :   614.8 secs   av.it.:   8.0
      thresh= 1.200E-06 alpha_mix =  0.700 |ddv_scf|^2 =  1.793E-09

      iter #   8 total cpu time :   623.6 secs   av.it.:   6.5
      thresh= 4.234E-06 alpha_mix =  0.700 |ddv_scf|^2 =  4.017E-12

      iter #   9 total cpu time :   652.5 secs   av.it.:   8.6
      thresh= 2.004E-07 alpha_mix =  0.700 |ddv_scf|^2 =  7.149E-13

      iter #  10 total cpu time :   693.4 secs   av.it.:   7.6
      thresh= 8.455E-08 alpha_mix =  0.700 |ddv_scf|^2 =  2.252E-12

      iter #  11 total cpu time :   712.2 secs   av.it.:   6.9
      thresh= 1.501E-07 alpha_mix =  0.700 |ddv_scf|^2 =  2.003E-15

      iter #  12 total cpu time :   739.7 secs   av.it.:   8.8
      thresh= 4.475E-09 alpha_mix =  0.700 |ddv_scf|^2 =  1.225E-16

     End of self-consistent calculation

     Convergence has been achieved 


     Representation #  3 mode #   3

     Self-consistent Calculation

      iter #   1 total cpu time :   782.5 secs   av.it.:   5.3
      thresh= 1.000E-02 alpha_mix =  0.700 |ddv_scf|^2 =  4.093E-06

      iter #   2 total cpu time :   797.2 secs   av.it.:   8.3
      thresh= 2.023E-04 alpha_mix =  0.700 |ddv_scf|^2 =  6.556E-08

      iter #   3 total cpu time :   829.6 secs   av.it.:   8.5
      thresh= 2.560E-05 alpha_mix =  0.700 |ddv_scf|^2 =  2.913E-09

      iter #   4 total cpu time :   852.8 secs   av.it.:   8.1
      thresh= 5.398E-06 alpha_mix =  0.700 |ddv_scf|^2 =  1.744E-11

      iter #   5 total cpu time :   875.1 secs   av.it.:   8.1
      thresh= 4.176E-07 alpha_mix =  0.700 |ddv_scf|^2 =  1.292E-13

      iter #   6 total cpu time :   902.3 secs   av.it.:   8.5
      thresh= 3.595E-08 alpha_mix =  0.700 |ddv_scf|^2 =  4.546E-16

     End of self-consistent calculation

     Convergence has been achieved 


     Representation #  4 mode #   4

     Self-consistent Calculation

      iter #   1 total cpu time :   922.5 secs   av.it.:   5.3
      thresh= 1.000E-02 alpha_mix =  0.700 |ddv_scf|^2 =  4.093E-06

      iter #   2 total cpu time :   960.7 secs   av.it.:   8.3
      thresh= 2.023E-04 alpha_mix =  0.700 |ddv_scf|^2 =  6.559E-08

      iter #   3 total cpu time :   969.3 secs   av.it.:   8.5
      thresh= 2.561E-05 alpha_mix =  0.700 |ddv_scf|^2 =  2.922E-09

      iter #   4 total cpu time :   978.7 secs   av.it.:   8.0
      thresh= 5.406E-06 alpha_mix =  0.700 |ddv_scf|^2 =  1.739E-11

      iter #   5 total cpu time :   988.6 secs   av.it.:   8.1
      thresh= 4.170E-07 alpha_mix =  0.700 |ddv_scf|^2 =  1.289E-13

      iter #   6 total cpu time :   996.9 secs   av.it.:   8.5
      thresh= 3.590E-08 alpha_mix =  0.700 |ddv_scf|^2 =  4.550E-16

     End of self-consistent calculation

     Convergence has been achieved 


     Representation #  5 mode #   5

     Self-consistent Calculation

      iter #   1 total cpu time :  1023.4 secs   av.it.:   5.5
      thresh= 1.000E-02 alpha_mix =  0.700 |ddv_scf|^2 =  1.134E-05

      iter #   2 total cpu time :  1036.6 secs   av.it.:   8.4
      thresh= 3.367E-04 alpha_mix =  0.700 |ddv_scf|^2 =  2.391E-06

      iter #   3 total cpu time :  1049.2 secs   av.it.:   7.6
      thresh= 1.546E-04 alpha_mix =  0.700 |ddv_scf|^2 =  1.381E-08

      iter #   4 total cpu time :  1082.3 secs   av.it.:   8.6
      thresh= 1.175E-05 alpha_mix =  0.700 |ddv_scf|^2 =  4.655E-10

      iter #   5 total cpu time :  1091.0 secs   av.it.:   8.1
      thresh= 2.157E-06 alpha_mix =  0.700 |ddv_scf|^2 =  2.732E-12

      iter #   6 total cpu time :  1097.6 secs   av.it.:   8.5
      thresh= 1.653E-07 alpha_mix =  0.700 |ddv_scf|^2 =  1.425E-14

      iter #   7 total cpu time :  1103.7 secs   av.it.:   8.2
      thresh= 1.194E-08 alpha_mix =  0.700 |ddv_scf|^2 =  6.588E-16

     End of self-consistent calculation

     Convergence has been achieved 


     Representation #  6 mode #   6

     Self-consistent Calculation

      iter #   1 total cpu time :  1109.8 secs   av.it.:   5.5
      thresh= 1.000E-02 alpha_mix =  0.700 |ddv_scf|^2 =  1.134E-05

      iter #   2 total cpu time :  1117.0 secs   av.it.:   8.4
      thresh= 3.367E-04 alpha_mix =  0.700 |ddv_scf|^2 =  2.392E-06

      iter #   3 total cpu time :  1163.6 secs   av.it.:   7.6
      thresh= 1.546E-04 alpha_mix =  0.700 |ddv_scf|^2 =  1.381E-08

      iter #   4 total cpu time :  1182.5 secs   av.it.:   8.6
      thresh= 1.175E-05 alpha_mix =  0.700 |ddv_scf|^2 =  4.656E-10

      iter #   5 total cpu time :  1189.8 secs   av.it.:   8.1
      thresh= 2.158E-06 alpha_mix =  0.700 |ddv_scf|^2 =  2.732E-12

      iter #   6 total cpu time :  1196.0 secs   av.it.:   8.5
      thresh= 1.653E-07 alpha_mix =  0.700 |ddv_scf|^2 =  1.425E-14

      iter #   7 total cpu time :  1201.0 secs   av.it.:   8.2
      thresh= 1.194E-08 alpha_mix =  0.700 |ddv_scf|^2 =  6.588E-16

     End of self-consistent calculation

     Convergence has been achieved 
 
     Number of q in the star =    3
     List of q in the star:
          1   0.000000000   0.288675135   0.000000000
          2   0.250000000  -0.144337567   0.000000000
          3  -0.250000000  -0.144337567   0.000000000
     In addition there is the -q list: 
          1   0.000000000  -0.288675135   0.000000000
          2  -0.250000000   0.144337567   0.000000000
          3   0.250000000   0.144337567   0.000000000

     Diagonalizing the dynamical matrix

     q = (    0.000000000   0.288675135   0.000000000 ) 

 **************************************************************************
     freq (    1) =       1.170442 [THz] =      39.041729 [cm-1]
     freq (    2) =       1.449419 [THz] =      48.347425 [cm-1]
     freq (    3) =       2.446340 [THz] =      81.601109 [cm-1]
     freq (    4) =       2.625841 [THz] =      87.588639 [cm-1]
     freq (    5) =       3.202912 [THz] =     106.837634 [cm-1]
     freq (    6) =       3.832890 [THz] =     127.851465 [cm-1]
 **************************************************************************

     Mode symmetry, C_2v (mm2)  point group:

     freq (  1 -  1) =         39.0  [cm-1]   --> B_1  D_3  S_3      
     freq (  2 -  2) =         48.3  [cm-1]   --> B_2  D_4  S_4      
     freq (  3 -  3) =         81.6  [cm-1]   --> B_1  D_3  S_3      
     freq (  4 -  4) =         87.6  [cm-1]   --> A_1  D_1  S_1      
     freq (  5 -  5) =        106.8  [cm-1]   --> A_1  D_1  S_1      
     freq (  6 -  6) =        127.9  [cm-1]   --> B_2  D_4  S_4      

     Calculation of q =    0.0000000   0.2886751   0.1532031
 
     Parallelization info
     --------------------
     sticks:   dense  smooth     PW     G-vecs:    dense   smooth      PW
     Min         133      66     21                 5793     2032     375
     Max         134      67     22                 5800     2043     381
     Sum        1069     535    169                46373    16299    3027
 


     bravais-lattice index     =            4
     lattice parameter (alat)  =       6.9764  a.u.
     unit-cell volume          =     479.8373 (a.u.)^3
     number of atoms/cell      =            2
     number of atomic types    =            1
     number of electrons       =        18.00
     number of Kohn-Sham states=           13
     kinetic-energy cutoff     =      40.0000  Ry
     charge density cutoff     =     320.0000  Ry
     Exchange-correlation      = SLA  PW   PBE  PBE ( 1  4  3  4 0 0)

     celldm(1)=   6.976383  celldm(2)=   0.000000  celldm(3)=   1.631821
     celldm(4)=   0.000000  celldm(5)=   0.000000  celldm(6)=   0.000000

     crystal axes: (cart. coord. in units of alat)
               a(1) = (   1.000000   0.000000   0.000000 )  
               a(2) = (  -0.500000   0.866025   0.000000 )  
               a(3) = (   0.000000   0.000000   1.631821 )  

     reciprocal axes: (cart. coord. in units 2 pi/alat)
               b(1) = (  1.000000  0.577350  0.000000 )  
               b(2) = (  0.000000  1.154701  0.000000 )  
               b(3) = (  0.000000  0.000000  0.612812 )  


     PseudoPot. # 1 for Na read from file:
     ./Na_pbe_v1.uspp.F.UPF
     MD5 check sum: 76a99c7e9422403d3e93cbc85ab7bccb
     Pseudo is Ultrasoft, Zval =  9.0
     Generated by new atomic code, or converted to UPF format
     Using radial grid of  819 points,  5 beta functions with: 
                l(1) =   0
                l(2) =   0
                l(3) =   1
                l(4) =   1
                l(5) =   2
     Q(r) pseudized with  8 coefficients,  rinner =    1.250   1.250   1.250
                                                       1.250   1.250

     atomic species   valence    mass     pseudopotential
        Na             9.00    22.99000     Na( 1.00)

     12 Sym. Ops. (no inversion) found



   Cartesian axes

     site n.     atom                  positions (alat units)
         1           Na  tau(   1) = (   0.0000000   0.0000000   0.0000000  )
         2           Na  tau(   2) = (   0.5000000   0.2886751   0.8159104  )

     number of k points=  7200  Marzari-Vanderbilt smearing, width (Ry)=  0.0200

     Number of k-points >= 100: set verbosity='high' to print them.

     Dense  grid:    46373 G-vectors     FFT dimensions: (  40,  40,  72)

     Smooth grid:    16299 G-vectors     FFT dimensions: (  30,  30,  45)

     Largest allocated arrays     est. size (Mb)     dimensions
        Kohn-Sham Wavefunctions         0.05 Mb     (     274,   13)
        NL pseudopotentials             0.11 Mb     (     274,   26)
        Each V/rho on FFT grid          0.22 Mb     (   14400)
        Each G-vector array             0.04 Mb     (    5800)
        G-vector shells                 0.01 Mb     (    1747)
     Largest temporary arrays     est. size (Mb)     dimensions
        Auxiliary wavefunctions         0.22 Mb     (     274,   52)
        Each subspace H/S matrix        0.01 Mb     (      26,   26)
        Each <psi_i|beta_j> matrix      0.01 Mb     (      26,   13)

     The potential is recalculated from file :
     ./na_hcp_6.976382950545051/_ph0/na_hcp_6.976382950545051.save/charge-density.dat

     Starting wfc are   10 atomic +    3 random wfc

     Band Structure Calculation
     Davidson diagonalization with overlap

     ethr =  5.56E-11,  avg # of iterations = 22.6

     total cpu time spent up to now is       62.7 secs

     End of band structure calculation

     Number of k-points >= 100: set verbosity='high' to print the bands.

     the Fermi energy is     1.7818 ev

     Writing output data file na_hcp_6.976382950545051.save

                                                                                

     bravais-lattice index     =            4
     lattice parameter (alat)  =       6.9764  a.u.
     unit-cell volume          =     479.8373 (a.u.)^3
     number of atoms/cell      =            2
     number of atomic types    =            1
     kinetic-energy cut-off    =      40.0000  Ry
     charge density cut-off    =     320.0000  Ry
     convergence threshold     =      1.0E-15
     beta                      =       0.7000
     number of iterations used =            4
     Exchange-correlation      = SLA  PW   PBE  PBE ( 1  4  3  4 0 0)


     celldm(1)=    6.97638  celldm(2)=    0.00000  celldm(3)=    1.63182
     celldm(4)=    0.00000  celldm(5)=    0.00000  celldm(6)=    0.00000

     crystal axes: (cart. coord. in units of alat)
               a(1) = (  1.0000  0.0000  0.0000 )  
               a(2) = ( -0.5000  0.8660  0.0000 )  
               a(3) = (  0.0000  0.0000  1.6318 )  

     reciprocal axes: (cart. coord. in units 2 pi/alat)
               b(1) = (  1.0000  0.5774  0.0000 )  
               b(2) = (  0.0000  1.1547  0.0000 )  
               b(3) = (  0.0000  0.0000  0.6128 )  


     Atoms inside the unit cell: 

     Cartesian axes

     site n.  atom      mass           positions (alat units)
        1     Na  22.9900   tau(    1) = (    0.00000    0.00000    0.00000  )
        2     Na  22.9900   tau(    2) = (    0.50000    0.28868    0.81591  )

     Computing dynamical matrix for 
                    q = (   0.0000000   0.2886751   0.1532031 )
 
      2 Sym.Ops. (no q -> -q+G )


     G cutoff =  394.5035  (   5800 G-vectors)     FFT grid: ( 40, 40, 72)
     G cutoff =  197.2518  (   2043 G-vectors)  smooth grid: ( 30, 30, 45)

     number of k points=  7200  Marzari-Vanderbilt smearing, width (Ry)=  0.0200

     PseudoPot. # 1 for Na read from file:
     ./Na_pbe_v1.uspp.F.UPF
     MD5 check sum: 76a99c7e9422403d3e93cbc85ab7bccb
     Pseudo is Ultrasoft, Zval =  9.0
     Generated by new atomic code, or converted to UPF format
     Using radial grid of  819 points,  5 beta functions with: 
                l(1) =   0
                l(2) =   0
                l(3) =   1
                l(4) =   1
                l(5) =   2
     Q(r) pseudized with  8 coefficients,  rinner =    1.250   1.250   1.250
                                                       1.250   1.250

     Mode symmetry, C_s (m)     point group:


     Atomic displacements:
     There are   6 irreducible representations

     Representation     1      1 modes -A'  To be done

     Representation     2      1 modes -A'  To be done

     Representation     3      1 modes -A'  To be done

     Representation     4      1 modes -A'  To be done

     Representation     5      1 modes -A''  To be done

     Representation     6      1 modes -A''  To be done



     Alpha used in Ewald sum =   2.8000
     PHONON       : 19m12.61s CPU    20m58.22s WALL



     Representation #  1 mode #   1

     Self-consistent Calculation

      iter #   1 total cpu time :  1277.6 secs   av.it.:   5.7
      thresh= 1.000E-02 alpha_mix =  0.700 |ddv_scf|^2 =  2.773E-04

      iter #   2 total cpu time :  1289.3 secs   av.it.:   7.5
      thresh= 1.665E-03 alpha_mix =  0.700 |ddv_scf|^2 =  5.415E-03

      iter #   3 total cpu time :  1294.8 secs   av.it.:   5.4
      thresh= 7.359E-03 alpha_mix =  0.700 |ddv_scf|^2 =  2.493E-06

      iter #   4 total cpu time :  1303.8 secs   av.it.:   7.7
      thresh= 1.579E-04 alpha_mix =  0.700 |ddv_scf|^2 =  3.489E-07

      iter #   5 total cpu time :  1332.3 secs   av.it.:   7.7
      thresh= 5.907E-05 alpha_mix =  0.700 |ddv_scf|^2 =  1.571E-09

      iter #   6 total cpu time :  1380.2 secs   av.it.:   8.7
      thresh= 3.964E-06 alpha_mix =  0.700 |ddv_scf|^2 =  7.923E-11

      iter #   7 total cpu time :  1389.0 secs   av.it.:   8.6
      thresh= 8.901E-07 alpha_mix =  0.700 |ddv_scf|^2 =  1.100E-10

      iter #   8 total cpu time :  1414.9 secs   av.it.:   6.9
      thresh= 1.049E-06 alpha_mix =  0.700 |ddv_scf|^2 =  3.972E-11

      iter #   9 total cpu time :  1424.9 secs   av.it.:   7.7
      thresh= 6.302E-07 alpha_mix =  0.700 |ddv_scf|^2 =  9.709E-13

      iter #  10 total cpu time :  1437.4 secs   av.it.:   7.8
      thresh= 9.853E-08 alpha_mix =  0.700 |ddv_scf|^2 =  8.484E-13

      iter #  11 total cpu time :  1469.0 secs   av.it.:   7.5
      thresh= 9.211E-08 alpha_mix =  0.700 |ddv_scf|^2 =  7.914E-15

      iter #  12 total cpu time :  1497.3 secs   av.it.:   8.3
      thresh= 8.896E-09 alpha_mix =  0.700 |ddv_scf|^2 =  2.310E-15

      iter #  13 total cpu time :  1509.0 secs   av.it.:   8.3
      thresh= 4.807E-09 alpha_mix =  0.700 |ddv_scf|^2 =  8.795E-16

     End of self-consistent calculation

     Convergence has been achieved 


     Representation #  2 mode #   2

     Self-consistent Calculation

      iter #   1 total cpu time :  1520.0 secs   av.it.:   5.7
      thresh= 1.000E-02 alpha_mix =  0.700 |ddv_scf|^2 =  4.756E-05

      iter #   2 total cpu time :  1531.0 secs   av.it.:   7.8
      thresh= 6.896E-04 alpha_mix =  0.700 |ddv_scf|^2 =  5.665E-04

      iter #   3 total cpu time :  1542.6 secs   av.it.:   5.8
      thresh= 2.380E-03 alpha_mix =  0.700 |ddv_scf|^2 =  1.833E-05

      iter #   4 total cpu time :  1567.7 secs   av.it.:   7.1
      thresh= 4.282E-04 alpha_mix =  0.700 |ddv_scf|^2 =  8.628E-08

      iter #   5 total cpu time :  1605.6 secs   av.it.:   8.5
      thresh= 2.937E-05 alpha_mix =  0.700 |ddv_scf|^2 =  9.863E-10

      iter #   6 total cpu time :  1629.7 secs   av.it.:   8.8
      thresh= 3.141E-06 alpha_mix =  0.700 |ddv_scf|^2 =  8.192E-11

      iter #   7 total cpu time :  1641.4 secs   av.it.:   8.7
      thresh= 9.051E-07 alpha_mix =  0.700 |ddv_scf|^2 =  5.093E-11

      iter #   8 total cpu time :  1660.1 secs   av.it.:   7.7
      thresh= 7.137E-07 alpha_mix =  0.700 |ddv_scf|^2 =  1.895E-10

      iter #   9 total cpu time :  1703.7 secs   av.it.:   6.8
      thresh= 1.376E-06 alpha_mix =  0.700 |ddv_scf|^2 =  4.064E-12

      iter #  10 total cpu time :  1727.4 secs   av.it.:   7.6
      thresh= 2.016E-07 alpha_mix =  0.700 |ddv_scf|^2 =  4.051E-12

      iter #  11 total cpu time :  1738.5 secs   av.it.:   7.5
      thresh= 2.013E-07 alpha_mix =  0.700 |ddv_scf|^2 =  1.180E-14

      iter #  12 total cpu time :  1747.9 secs   av.it.:   8.3
      thresh= 1.086E-08 alpha_mix =  0.700 |ddv_scf|^2 =  3.049E-15

      iter #  13 total cpu time :  1757.0 secs   av.it.:   8.4
      thresh= 5.521E-09 alpha_mix =  0.700 |ddv_scf|^2 =  9.310E-17

     End of self-consistent calculation

     Convergence has been achieved 


     Representation #  3 mode #   3

     Self-consistent Calculation

      iter #   1 total cpu time :  1790.6 secs   av.it.:   5.8
      thresh= 1.000E-02 alpha_mix =  0.700 |ddv_scf|^2 =  3.174E-04

      iter #   2 total cpu time :  1823.5 secs   av.it.:   7.5
      thresh= 1.782E-03 alpha_mix =  0.700 |ddv_scf|^2 =  6.284E-03

      iter #   3 total cpu time :  1843.8 secs   av.it.:   5.4
      thresh= 7.927E-03 alpha_mix =  0.700 |ddv_scf|^2 =  8.139E-07

      iter #   4 total cpu time :  1852.7 secs   av.it.:   7.9
      thresh= 9.022E-05 alpha_mix =  0.700 |ddv_scf|^2 =  3.659E-07

      iter #   5 total cpu time :  1862.3 secs   av.it.:   7.6
      thresh= 6.049E-05 alpha_mix =  0.700 |ddv_scf|^2 =  1.938E-09

      iter #   6 total cpu time :  1889.2 secs   av.it.:   8.7
      thresh= 4.402E-06 alpha_mix =  0.700 |ddv_scf|^2 =  9.484E-11

      iter #   7 total cpu time :  1927.8 secs   av.it.:   8.5
      thresh= 9.739E-07 alpha_mix =  0.700 |ddv_scf|^2 =  4.068E-12

      iter #   8 total cpu time :  1944.7 secs   av.it.:   8.8
      thresh= 2.017E-07 alpha_mix =  0.700 |ddv_scf|^2 =  2.638E-11

      iter #   9 total cpu time :  1954.7 secs   av.it.:   6.9
      thresh= 5.136E-07 alpha_mix =  0.700 |ddv_scf|^2 =  1.374E-12

      iter #  10 total cpu time :  1963.7 secs   av.it.:   7.9
      thresh= 1.172E-07 alpha_mix =  0.700 |ddv_scf|^2 =  7.296E-13

      iter #  11 total cpu time :  1974.5 secs   av.it.:   7.0
      thresh= 8.541E-08 alpha_mix =  0.700 |ddv_scf|^2 =  1.900E-14

      iter #  12 total cpu time :  2010.4 secs   av.it.:   8.1
      thresh= 1.378E-08 alpha_mix =  0.700 |ddv_scf|^2 =  3.232E-15

      iter #  13 total cpu time :  2036.5 secs   av.it.:   8.0
      thresh= 5.685E-09 alpha_mix =  0.700 |ddv_scf|^2 =  1.996E-16

     End of self-consistent calculation

     Convergence has been achieved 


     Representation #  4 mode #   4

     Self-consistent Calculation

      iter #   1 total cpu time :  2045.3 secs   av.it.:   5.7
      thresh= 1.000E-02 alpha_mix =  0.700 |ddv_scf|^2 =  8.766E-05

      iter #   2 total cpu time :  2054.1 secs   av.it.:   7.8
      thresh= 9.363E-04 alpha_mix =  0.700 |ddv_scf|^2 =  1.434E-03

      iter #   3 total cpu time :  2063.2 secs   av.it.:   5.6
      thresh= 3.787E-03 alpha_mix =  0.700 |ddv_scf|^2 =  9.127E-06

      iter #   4 total cpu time :  2071.2 secs   av.it.:   7.4
      thresh= 3.021E-04 alpha_mix =  0.700 |ddv_scf|^2 =  1.367E-07

      iter #   5 total cpu time :  2079.1 secs   av.it.:   8.1
      thresh= 3.697E-05 alpha_mix =  0.700 |ddv_scf|^2 =  1.123E-09

      iter #   6 total cpu time :  2090.1 secs   av.it.:   8.8
      thresh= 3.352E-06 alpha_mix =  0.700 |ddv_scf|^2 =  9.631E-11

      iter #   7 total cpu time :  2100.1 secs   av.it.:   8.7
      thresh= 9.814E-07 alpha_mix =  0.700 |ddv_scf|^2 =  3.812E-11

      iter #   8 total cpu time :  2125.8 secs   av.it.:   8.0
      thresh= 6.174E-07 alpha_mix =  0.700 |ddv_scf|^2 =  2.936E-10

      iter #   9 total cpu time :  2133.4 secs   av.it.:   6.6
      thresh= 1.713E-06 alpha_mix =  0.700 |ddv_scf|^2 =  4.555E-12

      iter #  10 total cpu time :  2142.0 secs   av.it.:   7.7
      thresh= 2.134E-07 alpha_mix =  0.700 |ddv_scf|^2 =  3.262E-12

      iter #  11 total cpu time :  2167.6 secs   av.it.:   7.5
      thresh= 1.806E-07 alpha_mix =  0.700 |ddv_scf|^2 =  1.833E-14

      iter #  12 total cpu time :  2176.5 secs   av.it.:   8.1
      thresh= 1.354E-08 alpha_mix =  0.700 |ddv_scf|^2 =  3.954E-15

      iter #  13 total cpu time :  2186.1 secs   av.it.:   8.5
      thresh= 6.288E-09 alpha_mix =  0.700 |ddv_scf|^2 =  9.330E-17

     End of self-consistent calculation

     Convergence has been achieved 


     Representation #  5 mode #   5

     Self-consistent Calculation

      iter #   1 total cpu time :  2194.9 secs   av.it.:   5.4
      thresh= 1.000E-02 alpha_mix =  0.700 |ddv_scf|^2 =  4.084E-06

      iter #   2 total cpu time :  2204.3 secs   av.it.:   8.3
      thresh= 2.021E-04 alpha_mix =  0.700 |ddv_scf|^2 =  6.534E-08

      iter #   3 total cpu time :  2215.4 secs   av.it.:   8.5
      thresh= 2.556E-05 alpha_mix =  0.700 |ddv_scf|^2 =  2.927E-09

      iter #   4 total cpu time :  2227.9 secs   av.it.:   8.0
      thresh= 5.410E-06 alpha_mix =  0.700 |ddv_scf|^2 =  1.352E-11

      iter #   5 total cpu time :  2237.8 secs   av.it.:   8.3
      thresh= 3.677E-07 alpha_mix =  0.700 |ddv_scf|^2 =  9.645E-14

      iter #   6 total cpu time :  2246.1 secs   av.it.:   8.5
      thresh= 3.106E-08 alpha_mix =  0.700 |ddv_scf|^2 =  4.352E-16

     End of self-consistent calculation

     Convergence has been achieved 


     Representation #  6 mode #   6

     Self-consistent Calculation

      iter #   1 total cpu time :  2255.2 secs   av.it.:   5.4
      thresh= 1.000E-02 alpha_mix =  0.700 |ddv_scf|^2 =  4.084E-06

      iter #   2 total cpu time :  2262.3 secs   av.it.:   8.3
      thresh= 2.021E-04 alpha_mix =  0.700 |ddv_scf|^2 =  6.538E-08

      iter #   3 total cpu time :  2271.0 secs   av.it.:   8.5
      thresh= 2.557E-05 alpha_mix =  0.700 |ddv_scf|^2 =  2.936E-09

      iter #   4 total cpu time :  2277.5 secs   av.it.:   8.0
      thresh= 5.419E-06 alpha_mix =  0.700 |ddv_scf|^2 =  1.347E-11

      iter #   5 total cpu time :  2286.0 secs   av.it.:   8.3
      thresh= 3.671E-07 alpha_mix =  0.700 |ddv_scf|^2 =  9.627E-14

      iter #   6 total cpu time :  2297.0 secs   av.it.:   8.5
      thresh= 3.103E-08 alpha_mix =  0.700 |ddv_scf|^2 =  4.356E-16

     End of self-consistent calculation

     Convergence has been achieved 
 
     Number of q in the star =    6
     List of q in the star:
          1   0.000000000   0.288675135   0.153203096
          2   0.000000000   0.288675135  -0.153203096
          3   0.250000000  -0.144337567   0.153203096
          4  -0.250000000  -0.144337567   0.153203096
          5   0.250000000  -0.144337567  -0.153203096
          6  -0.250000000  -0.144337567  -0.153203096
     In addition there is the -q list: 
          1   0.000000000  -0.288675135  -0.153203096
          2   0.000000000  -0.288675135   0.153203096
          3  -0.250000000   0.144337567  -0.153203096
          4   0.250000000   0.144337567  -0.153203096
          5  -0.250000000   0.144337567   0.153203096
          6   0.250000000   0.144337567   0.153203096

     Diagonalizing the dynamical matrix

     q = (    0.000000000   0.288675135   0.153203096 ) 

 **************************************************************************
     freq (    1) =       1.422554 [THz] =      47.451301 [cm-1]
     freq (    2) =       1.676342 [THz] =      55.916765 [cm-1]
     freq (    3) =       2.313030 [THz] =      77.154368 [cm-1]
     freq (    4) =       2.883437 [THz] =      96.181095 [cm-1]
     freq (    5) =       2.996434 [THz] =      99.950287 [cm-1]
     freq (    6) =       3.736062 [THz] =     124.621614 [cm-1]
 **************************************************************************

     Mode symmetry, C_s (m)     point group:

     freq (  1 -  1) =         47.5  [cm-1]   --> A''                
     freq (  2 -  2) =         55.9  [cm-1]   --> A'                 
     freq (  3 -  3) =         77.2  [cm-1]   --> A''                
     freq (  4 -  4) =         96.2  [cm-1]   --> A'                 
     freq (  5 -  5) =        100.0  [cm-1]   --> A'                 
     freq (  6 -  6) =        124.6  [cm-1]   --> A'                 

     Calculation of q =    0.0000000   0.2886751  -0.3064062
 
     Parallelization info
     --------------------
     sticks:   dense  smooth     PW     G-vecs:    dense   smooth      PW
     Min         133      66     20                 5793     2032     372
     Max         134      67     21                 5800     2043     381
     Sum        1069     535    163                46373    16299    3009
 


     bravais-lattice index     =            4
     lattice parameter (alat)  =       6.9764  a.u.
     unit-cell volume          =     479.8373 (a.u.)^3
     number of atoms/cell      =            2
     number of atomic types    =            1
     number of electrons       =        18.00
     number of Kohn-Sham states=           13
     kinetic-energy cutoff     =      40.0000  Ry
     charge density cutoff     =     320.0000  Ry
     Exchange-correlation      = SLA  PW   PBE  PBE ( 1  4  3  4 0 0)

     celldm(1)=   6.976383  celldm(2)=   0.000000  celldm(3)=   1.631821
     celldm(4)=   0.000000  celldm(5)=   0.000000  celldm(6)=   0.000000

     crystal axes: (cart. coord. in units of alat)
               a(1) = (   1.000000   0.000000   0.000000 )  
               a(2) = (  -0.500000   0.866025   0.000000 )  
               a(3) = (   0.000000   0.000000   1.631821 )  

     reciprocal axes: (cart. coord. in units 2 pi/alat)
               b(1) = (  1.000000  0.577350  0.000000 )  
               b(2) = (  0.000000  1.154701  0.000000 )  
               b(3) = (  0.000000  0.000000  0.612812 )  


     PseudoPot. # 1 for Na read from file:
     ./Na_pbe_v1.uspp.F.UPF
     MD5 check sum: 76a99c7e9422403d3e93cbc85ab7bccb
     Pseudo is Ultrasoft, Zval =  9.0
     Generated by new atomic code, or converted to UPF format
     Using radial grid of  819 points,  5 beta functions with: 
                l(1) =   0
                l(2) =   0
                l(3) =   1
                l(4) =   1
                l(5) =   2
     Q(r) pseudized with  8 coefficients,  rinner =    1.250   1.250   1.250
                                                       1.250   1.250

     atomic species   valence    mass     pseudopotential
        Na             9.00    22.99000     Na( 1.00)

     12 Sym. Ops. (no inversion) found



   Cartesian axes

     site n.     atom                  positions (alat units)
         1           Na  tau(   1) = (   0.0000000   0.0000000   0.0000000  )
         2           Na  tau(   2) = (   0.5000000   0.2886751   0.8159104  )

     number of k points=  3600  Marzari-Vanderbilt smearing, width (Ry)=  0.0200

     Number of k-points >= 100: set verbosity='high' to print them.

     Dense  grid:    46373 G-vectors     FFT dimensions: (  40,  40,  72)

     Smooth grid:    16299 G-vectors     FFT dimensions: (  30,  30,  45)

     Largest allocated arrays     est. size (Mb)     dimensions
        Kohn-Sham Wavefunctions         0.05 Mb     (     274,   13)
        NL pseudopotentials             0.11 Mb     (     274,   26)
        Each V/rho on FFT grid          0.22 Mb     (   14400)
        Each G-vector array             0.04 Mb     (    5800)
        G-vector shells                 0.01 Mb     (    1747)
     Largest temporary arrays     est. size (Mb)     dimensions
        Auxiliary wavefunctions         0.22 Mb     (     274,   52)
        Each subspace H/S matrix        0.01 Mb     (      26,   26)
        Each <psi_i|beta_j> matrix      0.01 Mb     (      26,   13)

     The potential is recalculated from file :
     ./na_hcp_6.976382950545051/_ph0/na_hcp_6.976382950545051.save/charge-density.dat

     Starting wfc are   10 atomic +    3 random wfc

     Band Structure Calculation
     Davidson diagonalization with overlap

     ethr =  5.56E-11,  avg # of iterations = 22.6

     total cpu time spent up to now is       89.1 secs

     End of band structure calculation

     Number of k-points >= 100: set verbosity='high' to print the bands.

     the Fermi energy is     1.7818 ev

     Writing output data file na_hcp_6.976382950545051.save

                                                                                

     bravais-lattice index     =            4
     lattice parameter (alat)  =       6.9764  a.u.
     unit-cell volume          =     479.8373 (a.u.)^3
     number of atoms/cell      =            2
     number of atomic types    =            1
     kinetic-energy cut-off    =      40.0000  Ry
     charge density cut-off    =     320.0000  Ry
     convergence threshold     =      1.0E-15
     beta                      =       0.7000
     number of iterations used =            4
     Exchange-correlation      = SLA  PW   PBE  PBE ( 1  4  3  4 0 0)


     celldm(1)=    6.97638  celldm(2)=    0.00000  celldm(3)=    1.63182
     celldm(4)=    0.00000  celldm(5)=    0.00000  celldm(6)=    0.00000

     crystal axes: (cart. coord. in units of alat)
               a(1) = (  1.0000  0.0000  0.0000 )  
               a(2) = ( -0.5000  0.8660  0.0000 )  
               a(3) = (  0.0000  0.0000  1.6318 )  

     reciprocal axes: (cart. coord. in units 2 pi/alat)
               b(1) = (  1.0000  0.5774  0.0000 )  
               b(2) = (  0.0000  1.1547  0.0000 )  
               b(3) = (  0.0000  0.0000  0.6128 )  


     Atoms inside the unit cell: 

     Cartesian axes

     site n.  atom      mass           positions (alat units)
[...]
         1           Na  tau(   1) = (   0.0000000   0.0000000   0.0000000  )
         2           Na  tau(   2) = (   0.5000000   0.2886751   0.8159104  )

     number of k points=  6912  Marzari-Vanderbilt smearing, width (Ry)=  0.0200

     Number of k-points >= 100: set verbosity='high' to print them.

     Dense  grid:    46373 G-vectors     FFT dimensions: (  40,  40,  72)

     Smooth grid:    16299 G-vectors     FFT dimensions: (  30,  30,  45)

     Largest allocated arrays     est. size (Mb)     dimensions
        Kohn-Sham Wavefunctions         0.05 Mb     (     273,   13)
        NL pseudopotentials             0.11 Mb     (     273,   26)
        Each V/rho on FFT grid          0.22 Mb     (   14400)
        Each G-vector array             0.04 Mb     (    5800)
        G-vector shells                 0.01 Mb     (    1714)
     Largest temporary arrays     est. size (Mb)     dimensions
        Auxiliary wavefunctions         0.22 Mb     (     273,   52)
        Each subspace H/S matrix        0.01 Mb     (      26,   26)
        Each <psi_i|beta_j> matrix      0.01 Mb     (      26,   13)

     The potential is recalculated from file :
     ./na_hcp_6.976382950545051/_ph0/na_hcp_6.976382950545051.save/charge-density.dat

     Starting wfc are   10 atomic +    3 random wfc

     Band Structure Calculation
     Davidson diagonalization with overlap

     ethr =  5.56E-11,  avg # of iterations = 22.4

     total cpu time spent up to now is      350.4 secs

     End of band structure calculation

     Number of k-points >= 100: set verbosity='high' to print the bands.

     the Fermi energy is     1.7818 ev

     Writing output data file na_hcp_6.976382950545051.save

                                                                                

     bravais-lattice index     =            4
     lattice parameter (alat)  =       6.9764  a.u.
     unit-cell volume          =     479.8373 (a.u.)^3
     number of atoms/cell      =            2
     number of atomic types    =            1
     kinetic-energy cut-off    =      40.0000  Ry
     charge density cut-off    =     320.0000  Ry
     convergence threshold     =      1.0E-15
     beta                      =       0.7000
     number of iterations used =            4
     Exchange-correlation      = SLA  PW   PBE  PBE ( 1  4  3  4 0 0)


     celldm(1)=    6.97638  celldm(2)=    0.00000  celldm(3)=    1.63182
     celldm(4)=    0.00000  celldm(5)=    0.00000  celldm(6)=    0.00000

     crystal axes: (cart. coord. in units of alat)
               a(1) = (  1.0000  0.0000  0.0000 )  
               a(2) = ( -0.5000  0.8660  0.0000 )  
               a(3) = (  0.0000  0.0000  1.6318 )  

     reciprocal axes: (cart. coord. in units 2 pi/alat)
               b(1) = (  1.0000  0.5774  0.0000 )  
               b(2) = (  0.0000  1.1547  0.0000 )  
               b(3) = (  0.0000  0.0000  0.6128 )  


     Atoms inside the unit cell: 

     Cartesian axes

     site n.  atom      mass           positions (alat units)
        1     Na  22.9900   tau(    1) = (    0.00000    0.00000    0.00000  )
        2     Na  22.9900   tau(    2) = (    0.50000    0.28868    0.81591  )

     Computing dynamical matrix for 
                    q = (   0.2500000   0.4330127  -0.3064062 )
 
      2 Sym.Ops. (no q -> -q+G )


     G cutoff =  394.5035  (   5800 G-vectors)     FFT grid: ( 40, 40, 72)
     G cutoff =  197.2518  (   2041 G-vectors)  smooth grid: ( 30, 30, 45)

     number of k points=  6912  Marzari-Vanderbilt smearing, width (Ry)=  0.0200

     PseudoPot. # 1 for Na read from file:
     ./Na_pbe_v1.uspp.F.UPF
     MD5 check sum: 76a99c7e9422403d3e93cbc85ab7bccb
     Pseudo is Ultrasoft, Zval =  9.0
     Generated by new atomic code, or converted to UPF format
     Using radial grid of  819 points,  5 beta functions with: 
                l(1) =   0
                l(2) =   0
                l(3) =   1
                l(4) =   1
                l(5) =   2
     Q(r) pseudized with  8 coefficients,  rinner =    1.250   1.250   1.250
                                                       1.250   1.250

     Mode symmetry, C_s (m)     point group:


     Atomic displacements:
     There are   6 irreducible representations

     Representation     1      1 modes -A'  To be done

     Representation     2      1 modes -A'  To be done

     Representation     3      1 modes -A'  To be done

     Representation     4      1 modes -A''  To be done

     Representation     5      1 modes -A''  To be done

     Representation     6      1 modes -A''  To be done



     Alpha used in Ewald sum =   2.8000
     PHONON       :     1h47m CPU        1h54m WALL



     Representation #  1 mode #   1

     Self-consistent Calculation

      iter #   1 total cpu time :  6898.0 secs   av.it.:   5.7
      thresh= 1.000E-02 alpha_mix =  0.700 |ddv_scf|^2 =  2.012E-05

      iter #   2 total cpu time :  6921.3 secs   av.it.:   8.4
      thresh= 4.485E-04 alpha_mix =  0.700 |ddv_scf|^2 =  1.235E-05

      iter #   3 total cpu time :  6929.1 secs   av.it.:   7.7
      thresh= 3.514E-04 alpha_mix =  0.700 |ddv_scf|^2 =  4.099E-08

      iter #   4 total cpu time :  6941.5 secs   av.it.:   8.8
      thresh= 2.025E-05 alpha_mix =  0.700 |ddv_scf|^2 =  1.564E-09

      iter #   5 total cpu time :  6953.3 secs   av.it.:   9.0
      thresh= 3.955E-06 alpha_mix =  0.700 |ddv_scf|^2 =  7.634E-11

      iter #   6 total cpu time :  6964.1 secs   av.it.:   9.0
      thresh= 8.738E-07 alpha_mix =  0.700 |ddv_scf|^2 =  5.506E-12

      iter #   7 total cpu time :  6975.4 secs   av.it.:   8.8
      thresh= 2.346E-07 alpha_mix =  0.700 |ddv_scf|^2 =  3.924E-14

      iter #   8 total cpu time :  6987.6 secs   av.it.:   8.7
      thresh= 1.981E-08 alpha_mix =  0.700 |ddv_scf|^2 =  1.011E-15

      iter #   9 total cpu time :  6997.4 secs   av.it.:   8.5
      thresh= 3.180E-09 alpha_mix =  0.700 |ddv_scf|^2 =  1.008E-16

     End of self-consistent calculation

     Convergence has been achieved 


     Representation #  2 mode #   2

     Self-consistent Calculation

      iter #   1 total cpu time :  7008.5 secs   av.it.:   5.6
      thresh= 1.000E-02 alpha_mix =  0.700 |ddv_scf|^2 =  1.085E-05

      iter #   2 total cpu time :  7031.6 secs   av.it.:   8.6
      thresh= 3.294E-04 alpha_mix =  0.700 |ddv_scf|^2 =  5.272E-06

      iter #   3 total cpu time :  7059.5 secs   av.it.:   7.8
      thresh= 2.296E-04 alpha_mix =  0.700 |ddv_scf|^2 =  6.484E-08

      iter #   4 total cpu time :  7080.4 secs   av.it.:   8.6
      thresh= 2.546E-05 alpha_mix =  0.700 |ddv_scf|^2 =  1.338E-09

      iter #   5 total cpu time :  7103.7 secs   av.it.:   8.7
      thresh= 3.658E-06 alpha_mix =  0.700 |ddv_scf|^2 =  1.121E-10

      iter #   6 total cpu time :  7126.2 secs   av.it.:   8.7
      thresh= 1.059E-06 alpha_mix =  0.700 |ddv_scf|^2 =  3.440E-12

      iter #   7 total cpu time :  7142.6 secs   av.it.:   9.1
      thresh= 1.855E-07 alpha_mix =  0.700 |ddv_scf|^2 =  7.068E-14

      iter #   8 total cpu time :  7159.1 secs   av.it.:   8.9
      thresh= 2.659E-08 alpha_mix =  0.700 |ddv_scf|^2 =  4.254E-15

      iter #   9 total cpu time :  7170.9 secs   av.it.:   8.9
      thresh= 6.522E-09 alpha_mix =  0.700 |ddv_scf|^2 =  1.600E-16

     End of self-consistent calculation

     Convergence has been achieved 


     Representation #  3 mode #   3

     Self-consistent Calculation

      iter #   1 total cpu time :  7180.1 secs   av.it.:   5.7
      thresh= 1.000E-02 alpha_mix =  0.700 |ddv_scf|^2 =  7.823E-06

      iter #   2 total cpu time :  7189.8 secs   av.it.:   8.7
      thresh= 2.797E-04 alpha_mix =  0.700 |ddv_scf|^2 =  1.366E-06

      iter #   3 total cpu time :  7201.4 secs   av.it.:   7.9
      thresh= 1.169E-04 alpha_mix =  0.700 |ddv_scf|^2 =  1.890E-07

      iter #   4 total cpu time :  7210.9 secs   av.it.:   8.0
      thresh= 4.347E-05 alpha_mix =  0.700 |ddv_scf|^2 =  2.624E-09

      iter #   5 total cpu time :  7221.5 secs   av.it.:   8.7
      thresh= 5.123E-06 alpha_mix =  0.700 |ddv_scf|^2 =  4.622E-11

      iter #   6 total cpu time :  7243.4 secs   av.it.:   8.7
      thresh= 6.799E-07 alpha_mix =  0.700 |ddv_scf|^2 =  1.987E-12

      iter #   7 total cpu time :  7254.0 secs   av.it.:   9.2
      thresh= 1.410E-07 alpha_mix =  0.700 |ddv_scf|^2 =  9.171E-14

      iter #   8 total cpu time :  7265.4 secs   av.it.:   9.2
      thresh= 3.028E-08 alpha_mix =  0.700 |ddv_scf|^2 =  9.168E-16

     End of self-consistent calculation

     Convergence has been achieved 


     Representation #  4 mode #   4

     Self-consistent Calculation

      iter #   1 total cpu time :  7278.5 secs   av.it.:   5.6
      thresh= 1.000E-02 alpha_mix =  0.700 |ddv_scf|^2 =  7.990E-06

      iter #   2 total cpu time :  7289.2 secs   av.it.:   8.7
      thresh= 2.827E-04 alpha_mix =  0.700 |ddv_scf|^2 =  1.526E-06

      iter #   3 total cpu time :  7314.1 secs   av.it.:   7.9
      thresh= 1.235E-04 alpha_mix =  0.700 |ddv_scf|^2 =  1.899E-07

      iter #   4 total cpu time :  7322.7 secs   av.it.:   8.0
      thresh= 4.358E-05 alpha_mix =  0.700 |ddv_scf|^2 =  2.537E-09

      iter #   5 total cpu time :  7332.2 secs   av.it.:   8.7
      thresh= 5.037E-06 alpha_mix =  0.700 |ddv_scf|^2 =  4.693E-11

      iter #   6 total cpu time :  7342.5 secs   av.it.:   8.7
      thresh= 6.851E-07 alpha_mix =  0.700 |ddv_scf|^2 =  2.159E-12

      iter #   7 total cpu time :  7354.0 secs   av.it.:   9.2
      thresh= 1.469E-07 alpha_mix =  0.700 |ddv_scf|^2 =  9.704E-14

      iter #   8 total cpu time :  7364.6 secs   av.it.:   9.2
      thresh= 3.115E-08 alpha_mix =  0.700 |ddv_scf|^2 =  9.392E-16

     End of self-consistent calculation

     Convergence has been achieved 


     Representation #  5 mode #   5

     Self-consistent Calculation

      iter #   1 total cpu time :  7377.8 secs   av.it.:   5.6
      thresh= 1.000E-02 alpha_mix =  0.700 |ddv_scf|^2 =  1.085E-05

      iter #   2 total cpu time :  7388.0 secs   av.it.:   8.6
      thresh= 3.294E-04 alpha_mix =  0.700 |ddv_scf|^2 =  5.273E-06

      iter #   3 total cpu time :  7407.4 secs   av.it.:   7.8
      thresh= 2.296E-04 alpha_mix =  0.700 |ddv_scf|^2 =  6.483E-08

      iter #   4 total cpu time :  7429.3 secs   av.it.:   8.6
      thresh= 2.546E-05 alpha_mix =  0.700 |ddv_scf|^2 =  1.339E-09

      iter #   5 total cpu time :  7450.8 secs   av.it.:   8.7
      thresh= 3.660E-06 alpha_mix =  0.700 |ddv_scf|^2 =  1.123E-10

      iter #   6 total cpu time :  7461.4 secs   av.it.:   8.7
      thresh= 1.060E-06 alpha_mix =  0.700 |ddv_scf|^2 =  3.442E-12

      iter #   7 total cpu time :  7474.4 secs   av.it.:   9.1
      thresh= 1.855E-07 alpha_mix =  0.700 |ddv_scf|^2 =  7.072E-14

      iter #   8 total cpu time :  7486.0 secs   av.it.:   8.9
      thresh= 2.659E-08 alpha_mix =  0.700 |ddv_scf|^2 =  4.256E-15

      iter #   9 total cpu time :  7498.2 secs   av.it.:   8.9
      thresh= 6.524E-09 alpha_mix =  0.700 |ddv_scf|^2 =  1.603E-16

     End of self-consistent calculation

     Convergence has been achieved 


     Representation #  6 mode #   6

     Self-consistent Calculation

      iter #   1 total cpu time :  7511.1 secs   av.it.:   5.7
      thresh= 1.000E-02 alpha_mix =  0.700 |ddv_scf|^2 =  1.995E-05

      iter #   2 total cpu time :  7522.5 secs   av.it.:   8.4
      thresh= 4.466E-04 alpha_mix =  0.700 |ddv_scf|^2 =  1.219E-05

      iter #   3 total cpu time :  7533.4 secs   av.it.:   7.7
      thresh= 3.491E-04 alpha_mix =  0.700 |ddv_scf|^2 =  4.168E-08

      iter #   4 total cpu time :  7543.5 secs   av.it.:   8.8
      thresh= 2.042E-05 alpha_mix =  0.700 |ddv_scf|^2 =  1.583E-09

      iter #   5 total cpu time :  7554.6 secs   av.it.:   8.9
      thresh= 3.978E-06 alpha_mix =  0.700 |ddv_scf|^2 =  7.565E-11

      iter #   6 total cpu time :  7564.9 secs   av.it.:   9.0
      thresh= 8.698E-07 alpha_mix =  0.700 |ddv_scf|^2 =  5.519E-12

      iter #   7 total cpu time :  7575.3 secs   av.it.:   8.8
      thresh= 2.349E-07 alpha_mix =  0.700 |ddv_scf|^2 =  3.945E-14

      iter #   8 total cpu time :  7588.4 secs   av.it.:   8.7
      thresh= 1.986E-08 alpha_mix =  0.700 |ddv_scf|^2 =  1.051E-15

      iter #   9 total cpu time :  7602.5 secs   av.it.:   8.6
      thresh= 3.241E-09 alpha_mix =  0.700 |ddv_scf|^2 =  9.732E-17

     End of self-consistent calculation

     Convergence has been achieved 
 
     Number of q in the star =    6
     List of q in the star:
          1   0.250000000   0.433012702  -0.306406192
          2  -0.250000000   0.433012702  -0.306406192
          3   0.250000000  -0.433012702  -0.306406192
          4  -0.500000000   0.000000000  -0.306406192
          5   0.500000000   0.000000000  -0.306406192
          6  -0.250000000  -0.433012702  -0.306406192

     Diagonalizing the dynamical matrix

     q = (    0.250000000   0.433012702  -0.306406192 ) 

 **************************************************************************
     freq (    1) =       2.079784 [THz] =      69.374133 [cm-1]
     freq (    2) =       2.087306 [THz] =      69.625022 [cm-1]
     freq (    3) =       3.131012 [THz] =     104.439320 [cm-1]
     freq (    4) =       3.139210 [THz] =     104.712778 [cm-1]
     freq (    5) =       3.887581 [THz] =     129.675752 [cm-1]
     freq (    6) =       3.895579 [THz] =     129.942519 [cm-1]
 **************************************************************************

     Mode symmetry, C_s (m)     point group:

     freq (  1 -  1) =         69.4  [cm-1]   --> A'                 
     freq (  2 -  2) =         69.6  [cm-1]   --> A''                
     freq (  3 -  3) =        104.4  [cm-1]   --> A'                 
     freq (  4 -  4) =        104.7  [cm-1]   --> A''                
     freq (  5 -  5) =        129.7  [cm-1]   --> A'                 
     freq (  6 -  6) =        129.9  [cm-1]   --> A''                
 
     init_run     :      1.52s CPU      1.67s WALL (      11 calls)
     electrons    :    253.10s CPU    256.82s WALL (      11 calls)

     Called by init_run:
     wfcinit      :      0.00s CPU      0.11s WALL (      11 calls)
     potinit      :      0.29s CPU      0.33s WALL (      11 calls)

     Called by electrons:
     c_bands      :    253.01s CPU    256.73s WALL (      11 calls)
     v_of_rho     :      0.09s CPU      0.09s WALL (      12 calls)
     newd         :      0.13s CPU      0.14s WALL (      12 calls)

     Called by c_bands:
     init_us_2    :      5.28s CPU      5.45s WALL (   80220 calls)
     cegterg      :    101.68s CPU    103.90s WALL (    4204 calls)

     Called by sum_band:

     Called by *egterg:
     h_psi        :     60.20s CPU     61.38s WALL (   67388 calls)
     s_psi        :     67.72s CPU     70.87s WALL ( 1873014 calls)
     g_psi        :      0.61s CPU      0.62s WALL (   60830 calls)
     cdiaghg      :     28.95s CPU     29.51s WALL (   63184 calls)

     Called by h_psi:
     add_vuspsi   :     39.82s CPU     41.95s WALL (  936648 calls)

     General routines
     calbec       :    112.30s CPU    116.45s WALL ( 1992612 calls)
     fft          :      2.63s CPU      2.74s WALL (    9758 calls)
     ffts         :     17.34s CPU     17.48s WALL (    9607 calls)
     fftw         :   2853.93s CPU   2900.50s WALL (14360105 calls)
     interpolate  :      1.15s CPU      1.27s WALL (    1341 calls)
     davcio       :     14.66s CPU    307.39s WALL (  348691 calls)
 
     Parallel routines
     fft_scatter  :   2283.32s CPU   2304.82s WALL (14379470 calls)
 
     PHONON       :     1h58m CPU        2h 6m WALL

     INITIALIZATION: 
     phq_setup    :      0.32s CPU      4.20s WALL (      12 calls)
     phq_init     :     47.86s CPU     51.55s WALL (      12 calls)
 
     phq_init     :     47.86s CPU     51.55s WALL (      12 calls)
     init_vloc    :      0.12s CPU      0.12s WALL (      12 calls)
     init_us_1    :      0.46s CPU      0.47s WALL (      12 calls)
     newd         :      0.13s CPU      0.14s WALL (      12 calls)
     dvanqq       :      1.37s CPU      1.38s WALL (      12 calls)
     drho         :     29.22s CPU     29.68s WALL (      12 calls)
 
     DYNAMICAL MATRIX:
     dynmat0      :      4.63s CPU      5.66s WALL (      12 calls)
     phqscf       :   6719.04s CPU   7165.62s WALL (      12 calls)
     dynmatrix    :      0.01s CPU      0.15s WALL (      12 calls)
 
     phqscf       :   6719.04s CPU   7165.62s WALL (      12 calls)
     solve_linter :   6715.26s CPU   7159.42s WALL (      66 calls)
     drhodv       :      3.62s CPU      3.98s WALL (      66 calls)
 
     dynmat0      :      4.63s CPU      5.66s WALL (      12 calls)
     dynmat_us    :      4.58s CPU      4.66s WALL (      12 calls)
     d2ionq       :      0.03s CPU      0.03s WALL (      12 calls)
 
     dynmat_us    :      4.58s CPU      4.66s WALL (      12 calls)
     addusdynmat  :      0.00s CPU      0.00s WALL (      12 calls)
 
     phqscf       :   6719.04s CPU   7165.62s WALL (      12 calls)
     solve_linter :   6715.26s CPU   7159.42s WALL (      66 calls)
 
     solve_linter :   6715.26s CPU   7159.42s WALL (      66 calls)
     dvqpsi_us    :     32.30s CPU     33.34s WALL (    7158 calls)
     ortho        :     65.16s CPU     66.21s WALL (   67106 calls)
     cgsolve      :   1038.28s CPU   1078.47s WALL (   67106 calls)
     incdrhoscf   :   2114.96s CPU   2130.79s WALL (   67106 calls)
     addusddens   :      8.71s CPU      8.78s WALL (     651 calls)
     vpsifft      :     73.05s CPU     78.19s WALL (   59948 calls)
     dv_of_drho   :      3.23s CPU      3.24s WALL (     621 calls)
     mix_pot      :      8.40s CPU     18.99s WALL (     585 calls)
     ef_shift     :      0.04s CPU      0.76s WALL (      30 calls)
     localdos     :      0.13s CPU      0.15s WALL (       4 calls)
     psymdvscf    :     16.37s CPU     16.39s WALL (     522 calls)
     newdq        :      7.88s CPU      7.84s WALL (     585 calls)
     adddvscf     :      5.28s CPU      5.55s WALL (   59948 calls)
     drhodvus     :      0.06s CPU      0.07s WALL (      66 calls)
 
     dvqpsi_us    :     32.30s CPU     33.34s WALL (    7158 calls)
     dvqpsi_us_on :      4.26s CPU      4.24s WALL (    7158 calls)
 
     cgsolve      :   1038.28s CPU   1078.47s WALL (   67106 calls)
     ch_psi       :   1000.13s CPU   1039.57s WALL (  869260 calls)
 
     ch_psi       :   1000.13s CPU   1039.57s WALL (  869260 calls)
     h_psiq       :    868.28s CPU    903.88s WALL (  869260 calls)
     last         :    126.04s CPU    130.11s WALL (  869260 calls)
 
     h_psiq       :    868.28s CPU    903.88s WALL (  869260 calls)
     firstfft     :    400.91s CPU    418.16s WALL ( 5432950 calls)
     secondfft    :    311.46s CPU    322.97s WALL ( 5432950 calls)
     add_vuspsi   :     39.82s CPU     41.95s WALL (  936648 calls)
 
     incdrhoscf   :   2114.96s CPU   2130.79s WALL (   67106 calls)
     addusdbec    :      6.62s CPU      6.76s WALL (   74264 calls)
 
     drhodvus     :      0.06s CPU      0.07s WALL (      66 calls)
 
      General routines
     calbec       :    112.30s CPU    116.45s WALL ( 1992612 calls)
     fft          :      2.63s CPU      2.74s WALL (    9758 calls)
     ffts         :     17.34s CPU     17.48s WALL (    9607 calls)
     fftw         :   2853.93s CPU   2900.50s WALL (14360105 calls)
     davcio       :     14.66s CPU    307.39s WALL (  348691 calls)
     write_rec    :      1.14s CPU     69.72s WALL (     651 calls)
 
 
     PHONON       :     1h58m CPU        2h 6m WALL

 
   This run was terminated on:  23: 2:15  26Mar2018            

=------------------------------------------------------------------------------=
   JOB DONE.
=------------------------------------------------------------------------------=
Application 30368657 resources: utime ~1363057s, stime ~12623s, Rss ~49268, inblocks ~6038967488, outblocks ~1888921648
