
     Program PHONON v.5.4.0 starts on 29Mar2018 at 13:48:36 

     This program is part of the open-source Quantum ESPRESSO suite
     for quantum simulation of materials; please cite
         "P. Giannozzi et al., J. Phys.:Condens. Matter 21 395502 (2009);
          URL http://www.quantum-espresso.org", 
     in publications or presentations arising from this work. More details at
     http://www.quantum-espresso.org/quote

     Parallel version (MPI & OpenMP), running on     192 processor cores
     Number of MPI processes:               192
     Threads/MPI process:                     1
     K-points division:     npool     =      24
     R & G space division:  proc/nbgrp/npool/nimage =       8

     Reading data from directory:
     ./na_hcp_7.21/na_hcp_7.21.save

   Info: using nr1, nr2, nr3 values from input

   Info: using nr1, nr2, nr3 values from input

     IMPORTANT: XC functional enforced from input :
     Exchange-correlation      = SLA  PW   PBE  PBE ( 1  4  3  4 0 0)
     Any further DFT definition will be discarded
     Please, verify this is what you really want

 
     Parallelization info
     --------------------
     sticks:   dense  smooth     PW     G-vecs:    dense   smooth      PW
     Min         144      72     20                 6396     2260     372
     Max         146      73     21                 6400     2275     379
     Sum        1159     583    163                51181    18137    2997
 


     Dynamical matrices for ( 4, 4, 4)  uniform grid of q-points
     (  12q-points):
       N         xq(1)         xq(2)         xq(3) 
       1   0.000000000   0.000000000   0.000000000
       2   0.000000000   0.000000000   0.153330962
       3   0.000000000   0.000000000  -0.306661924
       4   0.000000000   0.288675135   0.000000000
       5   0.000000000   0.288675135   0.153330962
       6   0.000000000   0.288675135  -0.306661924
       7   0.000000000  -0.577350269   0.000000000
       8   0.000000000  -0.577350269   0.153330962
       9   0.000000000  -0.577350269  -0.306661924
      10   0.250000000   0.433012702   0.000000000
      11   0.250000000   0.433012702   0.153330962
      12   0.250000000   0.433012702  -0.306661924

     Calculation of q =    0.0000000   0.0000000   0.0000000

                                                                                

     bravais-lattice index     =            4
     lattice parameter (alat)  =       7.2100  a.u.
     unit-cell volume          =     529.2326 (a.u.)^3
     number of atoms/cell      =            2
     number of atomic types    =            1
     kinetic-energy cut-off    =      40.0000  Ry
     charge density cut-off    =     320.0000  Ry
     convergence threshold     =      1.0E-15
     beta                      =       0.7000
     number of iterations used =            4
     Exchange-correlation      = SLA  PW   PBE  PBE ( 1  4  3  4 0 0)


     celldm(1)=    7.21000  celldm(2)=    0.00000  celldm(3)=    1.63046
     celldm(4)=    0.00000  celldm(5)=    0.00000  celldm(6)=    0.00000

     crystal axes: (cart. coord. in units of alat)
               a(1) = (  1.0000  0.0000  0.0000 )  
               a(2) = ( -0.5000  0.8660  0.0000 )  
               a(3) = (  0.0000  0.0000  1.6305 )  

     reciprocal axes: (cart. coord. in units 2 pi/alat)
               b(1) = (  1.0000  0.5774  0.0000 )  
               b(2) = (  0.0000  1.1547  0.0000 )  
               b(3) = (  0.0000  0.0000  0.6133 )  


     Atoms inside the unit cell: 

     Cartesian axes

     site n.  atom      mass           positions (alat units)
        1     Na  22.9900   tau(    1) = (    0.00000    0.00000    0.00000  )
        2     Na  22.9900   tau(    2) = (    0.50000    0.28868    0.81523  )

     Computing dynamical matrix for 
                    q = (   0.0000000   0.0000000   0.0000000 )
 
     25 Sym.Ops. (with q -> -q+G )


     G cutoff =  421.3672  (   6397 G-vectors)     FFT grid: ( 45, 45, 72)
     G cutoff =  210.6836  (   2265 G-vectors)  smooth grid: ( 30, 30, 48)

     number of k points=   366  Marzari-Vanderbilt smearing, width (Ry)=  0.0200

     PseudoPot. # 1 for Na read from file:
     ./Na_pbe_v1.uspp.F.UPF
     MD5 check sum: 76a99c7e9422403d3e93cbc85ab7bccb
     Pseudo is Ultrasoft, Zval =  9.0
     Generated by new atomic code, or converted to UPF format
     Using radial grid of  819 points,  5 beta functions with: 
                l(1) =   0
                l(2) =   0
                l(3) =   1
                l(4) =   1
                l(5) =   2
     Q(r) pseudized with  8 coefficients,  rinner =    1.250   1.250   1.250
                                                       1.250   1.250

     Mode symmetry, D_6h(6/mmm) point group:


     Atomic displacements:
     There are   4 irreducible representations

     Representation     1      1 modes -B_1g  To be done

     Representation     2      2 modes -E_2g  To be done

     Representation     3      1 modes -A_2u  To be done

     Representation     4      2 modes -E_1u  To be done



     Alpha used in Ewald sum =   2.8000
     PHONON       :     5.74s CPU         8.85s WALL



     Representation #  1 mode #   1

     Self-consistent Calculation
 
     Pert. #  1: Fermi energy shift (Ry) =     0.0000E+00     0.0000E+00

      iter #   1 total cpu time :     9.5 secs   av.it.:   5.4
      thresh= 1.000E-02 alpha_mix =  0.700 |ddv_scf|^2 =  2.665E-05
 
     Pert. #  1: Fermi energy shift (Ry) =    -2.8234E-22     0.0000E+00

      iter #   2 total cpu time :    10.9 secs   av.it.:   7.1
      thresh= 5.162E-04 alpha_mix =  0.700 |ddv_scf|^2 =  1.668E-05
 
     Pert. #  1: Fermi energy shift (Ry) =     0.0000E+00     0.0000E+00

      iter #   3 total cpu time :    11.8 secs   av.it.:   6.9
      thresh= 4.084E-04 alpha_mix =  0.700 |ddv_scf|^2 =  2.122E-08
 
     Pert. #  1: Fermi energy shift (Ry) =     0.0000E+00    -1.5306E-41

      iter #   4 total cpu time :    15.2 secs   av.it.:   8.3
      thresh= 1.457E-05 alpha_mix =  0.700 |ddv_scf|^2 =  8.771E-11
 
     Pert. #  1: Fermi energy shift (Ry) =     0.0000E+00     0.0000E+00

      iter #   5 total cpu time :    15.8 secs   av.it.:   7.3
      thresh= 9.365E-07 alpha_mix =  0.700 |ddv_scf|^2 =  1.673E-12
 
     Pert. #  1: Fermi energy shift (Ry) =     0.0000E+00     1.1958E-43

      iter #   6 total cpu time :    16.6 secs   av.it.:   7.2
      thresh= 1.294E-07 alpha_mix =  0.700 |ddv_scf|^2 =  5.118E-15
 
     Pert. #  1: Fermi energy shift (Ry) =     0.0000E+00     0.0000E+00

      iter #   7 total cpu time :    17.4 secs   av.it.:   8.1
      thresh= 7.154E-09 alpha_mix =  0.700 |ddv_scf|^2 =  1.374E-17

     End of self-consistent calculation

     Convergence has been achieved 


     Representation #  2 modes #   2  3

     Self-consistent Calculation
 
     Pert. #  1: Fermi energy shift (Ry) =    -3.1714E-20    -5.3516E-41
     Pert. #  2: Fermi energy shift (Ry) =     1.9877E-19    -3.0612E-41

      iter #   1 total cpu time :    20.9 secs   av.it.:   5.1
      thresh= 1.000E-02 alpha_mix =  0.700 |ddv_scf|^2 =  7.166E-07
 
     Pert. #  1: Fermi energy shift (Ry) =    -2.6982E-21    -1.9214E-41
     Pert. #  2: Fermi energy shift (Ry) =    -4.5175E-21     1.2245E-40

      iter #   2 total cpu time :    24.6 secs   av.it.:   8.6
      thresh= 8.465E-05 alpha_mix =  0.700 |ddv_scf|^2 =  1.234E-08
 
     Pert. #  1: Fermi energy shift (Ry) =    -5.0882E-21     4.7844E-42
     Pert. #  2: Fermi energy shift (Ry) =     6.7763E-21    -5.0223E-42

      iter #   3 total cpu time :    27.4 secs   av.it.:   8.8
      thresh= 1.111E-05 alpha_mix =  0.700 |ddv_scf|^2 =  4.346E-10
 
     Pert. #  1: Fermi energy shift (Ry) =    -4.5233E-21    -1.5520E-42
     Pert. #  2: Fermi energy shift (Ry) =     1.3553E-20    -4.3048E-42

      iter #   4 total cpu time :    33.2 secs   av.it.:   8.4
      thresh= 2.085E-06 alpha_mix =  0.700 |ddv_scf|^2 =  1.450E-12
 
     Pert. #  1: Fermi energy shift (Ry) =     5.5908E-22    -3.0054E-44
     Pert. #  2: Fermi energy shift (Ry) =    -3.3881E-21     1.4947E-43

      iter #   5 total cpu time :    35.6 secs   av.it.:   8.8
      thresh= 1.204E-07 alpha_mix =  0.700 |ddv_scf|^2 =  2.072E-15
 
     Pert. #  1: Fermi energy shift (Ry) =    -6.7819E-21     4.4682E-44
     Pert. #  2: Fermi energy shift (Ry) =     6.7763E-21     2.9894E-43

      iter #   6 total cpu time :    38.5 secs   av.it.:   7.5
      thresh= 4.552E-09 alpha_mix =  0.700 |ddv_scf|^2 =  9.344E-17

     End of self-consistent calculation

     Convergence has been achieved 


     Representation #  3 mode #   4

     Self-consistent Calculation
 
     Pert. #  1: Fermi energy shift (Ry) =     0.0000E+00     5.0154E-37

      iter #   1 total cpu time :    42.2 secs   av.it.:   5.1
      thresh= 1.000E-02 alpha_mix =  0.700 |ddv_scf|^2 =  2.689E-06
 
     Pert. #  1: Fermi energy shift (Ry) =     1.0340E-25     9.7958E-40

      iter #   2 total cpu time :    44.0 secs   av.it.:   8.0
      thresh= 1.640E-04 alpha_mix =  0.700 |ddv_scf|^2 =  5.033E-08
 
     Pert. #  1: Fermi energy shift (Ry) =     2.1541E-27     4.8979E-40

      iter #   3 total cpu time :    44.9 secs   av.it.:   8.2
      thresh= 2.244E-05 alpha_mix =  0.700 |ddv_scf|^2 =  1.144E-09
 
     Pert. #  1: Fermi energy shift (Ry) =     1.0771E-27    -2.4489E-40

      iter #   4 total cpu time :    45.6 secs   av.it.:   7.7
      thresh= 3.383E-06 alpha_mix =  0.700 |ddv_scf|^2 =  3.857E-12
 
     Pert. #  1: Fermi energy shift (Ry) =    -2.6926E-28    -7.6530E-42

      iter #   5 total cpu time :    46.2 secs   av.it.:   8.2
      thresh= 1.964E-07 alpha_mix =  0.700 |ddv_scf|^2 =  8.106E-15
 
     Pert. #  1: Fermi energy shift (Ry) =     2.0195E-28    -1.9132E-42

      iter #   6 total cpu time :    46.9 secs   av.it.:   7.6
      thresh= 9.003E-09 alpha_mix =  0.700 |ddv_scf|^2 =  2.075E-16

     End of self-consistent calculation

     Convergence has been achieved 


     Representation #  4 modes #   5  6

     Self-consistent Calculation
 
     Pert. #  1: Fermi energy shift (Ry) =     8.7916E-24     1.2539E-37
     Pert. #  2: Fermi energy shift (Ry) =     8.2718E-24     2.3510E-37

      iter #   1 total cpu time :    49.8 secs   av.it.:   5.2
      thresh= 1.000E-02 alpha_mix =  0.700 |ddv_scf|^2 =  6.746E-07
 
     Pert. #  1: Fermi energy shift (Ry) =     5.8034E-25    -9.7958E-40
     Pert. #  2: Fermi energy shift (Ry) =     1.2408E-24    -1.8367E-39

      iter #   2 total cpu time :    54.7 secs   av.it.:   8.8
      thresh= 8.213E-05 alpha_mix =  0.700 |ddv_scf|^2 =  1.254E-08
 
     Pert. #  1: Fermi energy shift (Ry) =    -3.9376E-25     1.9132E-42
     Pert. #  2: Fermi energy shift (Ry) =     0.0000E+00    -9.1835E-41

      iter #   3 total cpu time :    57.6 secs   av.it.:   9.0
      thresh= 1.120E-05 alpha_mix =  0.700 |ddv_scf|^2 =  2.970E-10
 
     Pert. #  1: Fermi energy shift (Ry) =     6.6774E-25     5.7397E-42
     Pert. #  2: Fermi energy shift (Ry) =     0.0000E+00     3.5873E-43

      iter #   4 total cpu time :    73.5 secs   av.it.:   8.7
      thresh= 1.723E-06 alpha_mix =  0.700 |ddv_scf|^2 =  1.001E-12
 
     Pert. #  1: Fermi energy shift (Ry) =    -5.4709E-25     7.4736E-45
     Pert. #  2: Fermi energy shift (Ry) =     1.3786E-25    -3.5873E-43

      iter #   5 total cpu time :    82.9 secs   av.it.:   9.1
      thresh= 1.001E-07 alpha_mix =  0.700 |ddv_scf|^2 =  1.978E-15
 
     Pert. #  1: Fermi energy shift (Ry) =     3.4902E-25    -2.3915E-43
     Pert. #  2: Fermi energy shift (Ry) =     0.0000E+00    -4.4842E-43

      iter #   6 total cpu time :    87.2 secs   av.it.:   8.5
      thresh= 4.447E-09 alpha_mix =  0.700 |ddv_scf|^2 =  5.135E-17

     End of self-consistent calculation

     Convergence has been achieved 
 
     Number of q in the star =    1
     List of q in the star:
          1   0.000000000   0.000000000   0.000000000

     Diagonalizing the dynamical matrix

     q = (    0.000000000   0.000000000   0.000000000 ) 

 **************************************************************************
     freq (    1) =      -0.485578 [THz] =     -16.197133 [cm-1]
     freq (    2) =      -0.416502 [THz] =     -13.893021 [cm-1]
     freq (    3) =      -0.416502 [THz] =     -13.893021 [cm-1]
     freq (    4) =       1.521797 [THz] =      50.761683 [cm-1]
     freq (    5) =       1.521797 [THz] =      50.761683 [cm-1]
     freq (    6) =       3.544345 [THz] =     118.226616 [cm-1]
 **************************************************************************

     Mode symmetry, D_6h(6/mmm) point group:

     freq (  1 -  1) =        -16.2  [cm-1]   --> A_2u            I  
     freq (  2 -  3) =        -13.9  [cm-1]   --> E_1u            I  
     freq (  4 -  5) =         50.8  [cm-1]   --> E_2g            R  
     freq (  6 -  6) =        118.2  [cm-1]   --> B_1g               

     Calculation of q =    0.0000000   0.0000000   0.1533310
 
     Parallelization info
     --------------------
     sticks:   dense  smooth     PW     G-vecs:    dense   smooth      PW
     Min         144      72     21                 6396     2260     375
     Max         146      73     22                 6400     2273     381
     Sum        1159     583    169                51181    18137    3027
 


     bravais-lattice index     =            4
     lattice parameter (alat)  =       7.2100  a.u.
     unit-cell volume          =     529.2326 (a.u.)^3
     number of atoms/cell      =            2
     number of atomic types    =            1
     number of electrons       =        18.00
     number of Kohn-Sham states=           13
     kinetic-energy cutoff     =      40.0000  Ry
     charge density cutoff     =     320.0000  Ry
     Exchange-correlation      = SLA  PW   PBE  PBE ( 1  4  3  4 0 0)

     celldm(1)=   7.210000  celldm(2)=   0.000000  celldm(3)=   1.630460
     celldm(4)=   0.000000  celldm(5)=   0.000000  celldm(6)=   0.000000

     crystal axes: (cart. coord. in units of alat)
               a(1) = (   1.000000   0.000000   0.000000 )  
               a(2) = (  -0.500000   0.866025   0.000000 )  
               a(3) = (   0.000000   0.000000   1.630460 )  

     reciprocal axes: (cart. coord. in units 2 pi/alat)
               b(1) = (  1.000000  0.577350  0.000000 )  
               b(2) = (  0.000000  1.154701  0.000000 )  
               b(3) = (  0.000000  0.000000  0.613324 )  


     PseudoPot. # 1 for Na read from file:
     ./Na_pbe_v1.uspp.F.UPF
     MD5 check sum: 76a99c7e9422403d3e93cbc85ab7bccb
     Pseudo is Ultrasoft, Zval =  9.0
     Generated by new atomic code, or converted to UPF format
     Using radial grid of  819 points,  5 beta functions with: 
                l(1) =   0
                l(2) =   0
                l(3) =   1
                l(4) =   1
                l(5) =   2
     Q(r) pseudized with  8 coefficients,  rinner =    1.250   1.250   1.250
                                                       1.250   1.250

     atomic species   valence    mass     pseudopotential
        Na             9.00    22.99000     Na( 1.00)

     24 Sym. Ops., with inversion, found



   Cartesian axes

     site n.     atom                  positions (alat units)
         1           Na  tau(   1) = (   0.0000000   0.0000000   0.0000000  )
         2           Na  tau(   2) = (   0.4999999   0.2886751   0.8152300  )

     number of k points=  1464  Marzari-Vanderbilt smearing, width (Ry)=  0.0200

     Number of k-points >= 100: set verbosity='high' to print them.

     Dense  grid:    51181 G-vectors     FFT dimensions: (  45,  45,  72)

     Smooth grid:    18137 G-vectors     FFT dimensions: (  30,  30,  48)

     Largest allocated arrays     est. size (Mb)     dimensions
        Kohn-Sham Wavefunctions         0.06 Mb     (     298,   13)
        NL pseudopotentials             0.12 Mb     (     298,   26)
        Each V/rho on FFT grid          0.28 Mb     (   18225)
        Each G-vector array             0.05 Mb     (    6397)
        G-vector shells                 0.01 Mb     (    1835)
     Largest temporary arrays     est. size (Mb)     dimensions
        Auxiliary wavefunctions         0.24 Mb     (     298,   52)
        Each subspace H/S matrix        0.01 Mb     (      26,   26)
        Each <psi_i|beta_j> matrix      0.01 Mb     (      26,   13)

     The potential is recalculated from file :
     ./na_hcp_7.21/_ph0/na_hcp_7.21.save/charge-density.dat

     Starting wfc are   10 atomic +    3 random wfc

     Band Structure Calculation
     Davidson diagonalization with overlap

     ethr =  5.56E-11,  avg # of iterations = 24.1

     total cpu time spent up to now is        6.0 secs

     End of band structure calculation

     Number of k-points >= 100: set verbosity='high' to print the bands.

     the Fermi energy is     1.3775 ev

     Writing output data file na_hcp_7.21.save

                                                                                

     bravais-lattice index     =            4
     lattice parameter (alat)  =       7.2100  a.u.
     unit-cell volume          =     529.2326 (a.u.)^3
     number of atoms/cell      =            2
     number of atomic types    =            1
     kinetic-energy cut-off    =      40.0000  Ry
     charge density cut-off    =     320.0000  Ry
     convergence threshold     =      1.0E-15
     beta                      =       0.7000
     number of iterations used =            4
     Exchange-correlation      = SLA  PW   PBE  PBE ( 1  4  3  4 0 0)


     celldm(1)=    7.21000  celldm(2)=    0.00000  celldm(3)=    1.63046
     celldm(4)=    0.00000  celldm(5)=    0.00000  celldm(6)=    0.00000

     crystal axes: (cart. coord. in units of alat)
               a(1) = (  1.0000  0.0000  0.0000 )  
               a(2) = ( -0.5000  0.8660  0.0000 )  
               a(3) = (  0.0000  0.0000  1.6305 )  

     reciprocal axes: (cart. coord. in units 2 pi/alat)
               b(1) = (  1.0000  0.5774  0.0000 )  
               b(2) = (  0.0000  1.1547  0.0000 )  
               b(3) = (  0.0000  0.0000  0.6133 )  


     Atoms inside the unit cell: 

     Cartesian axes

     site n.  atom      mass           positions (alat units)
        1     Na  22.9900   tau(    1) = (    0.00000    0.00000    0.00000  )
        2     Na  22.9900   tau(    2) = (    0.50000    0.28868    0.81523  )

     Computing dynamical matrix for 
                    q = (   0.0000000   0.0000000   0.1533310 )
 
     12 Sym.Ops. (no q -> -q+G )


     G cutoff =  421.3672  (   6397 G-vectors)     FFT grid: ( 45, 45, 72)
     G cutoff =  210.6836  (   2267 G-vectors)  smooth grid: ( 30, 30, 48)

     number of k points=  1464  Marzari-Vanderbilt smearing, width (Ry)=  0.0200

     PseudoPot. # 1 for Na read from file:
     ./Na_pbe_v1.uspp.F.UPF
     MD5 check sum: 76a99c7e9422403d3e93cbc85ab7bccb
     Pseudo is Ultrasoft, Zval =  9.0
     Generated by new atomic code, or converted to UPF format
     Using radial grid of  819 points,  5 beta functions with: 
                l(1) =   0
                l(2) =   0
                l(3) =   1
                l(4) =   1
                l(5) =   2
     Q(r) pseudized with  8 coefficients,  rinner =    1.250   1.250   1.250
                                                       1.250   1.250

     Mode symmetry, C_6v (6mm)  point group:


     Atomic displacements:
     There are   4 irreducible representations

     Representation     1      1 modes -A_1  To be done

     Representation     2      1 modes -B_2  To be done

     Representation     3      2 modes -E_1  To be done

     Representation     4      2 modes -E_2  To be done



     Alpha used in Ewald sum =   2.8000
     PHONON       :  1m26.81s CPU     1m36.29s WALL



     Representation #  1 mode #   1

     Self-consistent Calculation

      iter #   1 total cpu time :    97.2 secs   av.it.:   5.4
      thresh= 1.000E-02 alpha_mix =  0.700 |ddv_scf|^2 =  4.458E-02

      iter #   2 total cpu time :    99.5 secs   av.it.:   6.8
      thresh= 1.000E-02 alpha_mix =  0.700 |ddv_scf|^2 =  2.552E+01

      iter #   3 total cpu time :   102.5 secs   av.it.:   6.8
      thresh= 1.000E-02 alpha_mix =  0.700 |ddv_scf|^2 =  1.009E-04

      iter #   4 total cpu time :   106.8 secs   av.it.:   5.5
      thresh= 1.004E-03 alpha_mix =  0.700 |ddv_scf|^2 =  3.433E-08

      iter #   5 total cpu time :   116.9 secs   av.it.:   7.7
      thresh= 1.853E-05 alpha_mix =  0.700 |ddv_scf|^2 =  7.072E-09

      iter #   6 total cpu time :   120.1 secs   av.it.:   5.6
      thresh= 8.409E-06 alpha_mix =  0.700 |ddv_scf|^2 =  1.117E-07

      iter #   7 total cpu time :   131.4 secs   av.it.:   5.6
      thresh= 3.342E-05 alpha_mix =  0.700 |ddv_scf|^2 =  7.346E-12

      iter #   8 total cpu time :   132.8 secs   av.it.:   8.7
      thresh= 2.710E-07 alpha_mix =  0.700 |ddv_scf|^2 =  2.661E-13

      iter #   9 total cpu time :   135.9 secs   av.it.:   8.7
      thresh= 5.159E-08 alpha_mix =  0.700 |ddv_scf|^2 =  1.239E-14

      iter #  10 total cpu time :   138.6 secs   av.it.:   8.7
      thresh= 1.113E-08 alpha_mix =  0.700 |ddv_scf|^2 =  6.236E-14

      iter #  11 total cpu time :   142.8 secs   av.it.:   6.2
      thresh= 2.497E-08 alpha_mix =  0.700 |ddv_scf|^2 =  1.824E-13

      iter #  12 total cpu time :   144.6 secs   av.it.:   5.7
      thresh= 4.271E-08 alpha_mix =  0.700 |ddv_scf|^2 =  5.973E-14

      iter #  13 total cpu time :   147.3 secs   av.it.:   4.2
      thresh= 2.444E-08 alpha_mix =  0.700 |ddv_scf|^2 =  1.384E-16

     End of self-consistent calculation

     Convergence has been achieved 


     Representation #  2 mode #   2

     Self-consistent Calculation

      iter #   1 total cpu time :   150.6 secs   av.it.:   5.4
      thresh= 1.000E-02 alpha_mix =  0.700 |ddv_scf|^2 =  7.036E-05

      iter #   2 total cpu time :   153.1 secs   av.it.:   7.2
      thresh= 8.388E-04 alpha_mix =  0.700 |ddv_scf|^2 =  2.454E-04

      iter #   3 total cpu time :   156.4 secs   av.it.:   6.4
      thresh= 1.567E-03 alpha_mix =  0.700 |ddv_scf|^2 =  1.204E-07

      iter #   4 total cpu time :   159.2 secs   av.it.:   8.2
      thresh= 3.470E-05 alpha_mix =  0.700 |ddv_scf|^2 =  3.241E-09

      iter #   5 total cpu time :   162.1 secs   av.it.:   8.7
      thresh= 5.693E-06 alpha_mix =  0.700 |ddv_scf|^2 =  7.315E-11

      iter #   6 total cpu time :   165.1 secs   av.it.:   8.7
      thresh= 8.553E-07 alpha_mix =  0.700 |ddv_scf|^2 =  5.385E-12

      iter #   7 total cpu time :   172.3 secs   av.it.:   8.3
      thresh= 2.321E-07 alpha_mix =  0.700 |ddv_scf|^2 =  3.244E-13

      iter #   8 total cpu time :   175.0 secs   av.it.:   8.6
      thresh= 5.695E-08 alpha_mix =  0.700 |ddv_scf|^2 =  1.926E-14

      iter #   9 total cpu time :   178.3 secs   av.it.:   7.7
      thresh= 1.388E-08 alpha_mix =  0.700 |ddv_scf|^2 =  6.669E-16

     End of self-consistent calculation

     Convergence has been achieved 


     Representation #  3 modes #   3  4

     Self-consistent Calculation

      iter #   1 total cpu time :   184.5 secs   av.it.:   5.1
      thresh= 1.000E-02 alpha_mix =  0.700 |ddv_scf|^2 =  6.800E-07

      iter #   2 total cpu time :   189.5 secs   av.it.:   8.6
      thresh= 8.246E-05 alpha_mix =  0.700 |ddv_scf|^2 =  1.252E-08

      iter #   3 total cpu time :   198.4 secs   av.it.:   8.8
      thresh= 1.119E-05 alpha_mix =  0.700 |ddv_scf|^2 =  3.120E-10

      iter #   4 total cpu time :   206.4 secs   av.it.:   8.5
      thresh= 1.766E-06 alpha_mix =  0.700 |ddv_scf|^2 =  1.044E-12

      iter #   5 total cpu time :   212.5 secs   av.it.:   8.9
      thresh= 1.022E-07 alpha_mix =  0.700 |ddv_scf|^2 =  2.018E-15

      iter #   6 total cpu time :   219.0 secs   av.it.:   8.3
      thresh= 4.492E-09 alpha_mix =  0.700 |ddv_scf|^2 =  5.945E-17

     End of self-consistent calculation

     Convergence has been achieved 


     Representation #  4 modes #   5  6

     Self-consistent Calculation

      iter #   1 total cpu time :   225.3 secs   av.it.:   5.1
      thresh= 1.000E-02 alpha_mix =  0.700 |ddv_scf|^2 =  7.096E-07

      iter #   2 total cpu time :   235.6 secs   av.it.:   8.6
      thresh= 8.424E-05 alpha_mix =  0.700 |ddv_scf|^2 =  1.238E-08

      iter #   3 total cpu time :   241.2 secs   av.it.:   8.8
      thresh= 1.113E-05 alpha_mix =  0.700 |ddv_scf|^2 =  4.088E-10

      iter #   4 total cpu time :   254.4 secs   av.it.:   8.5
      thresh= 2.022E-06 alpha_mix =  0.700 |ddv_scf|^2 =  1.362E-12

      iter #   5 total cpu time :   276.1 secs   av.it.:   8.9
      thresh= 1.167E-07 alpha_mix =  0.700 |ddv_scf|^2 =  2.084E-15

      iter #   6 total cpu time :   287.3 secs   av.it.:   7.8
      thresh= 4.565E-09 alpha_mix =  0.700 |ddv_scf|^2 =  8.883E-17

     End of self-consistent calculation

     Convergence has been achieved 
 
     Number of q in the star =    2
     List of q in the star:
          1   0.000000000   0.000000000   0.153330962
          2   0.000000000   0.000000000  -0.153330962

     Diagonalizing the dynamical matrix

     q = (    0.000000000   0.000000000   0.153330962 ) 

 **************************************************************************
     freq (    1) =       0.427018 [THz] =      14.243789 [cm-1]
     freq (    2) =       0.427018 [THz] =      14.243789 [cm-1]
     freq (    3) =       1.396720 [THz] =      46.589554 [cm-1]
     freq (    4) =       1.396720 [THz] =      46.589554 [cm-1]
     freq (    5) =       1.421252 [THz] =      47.407854 [cm-1]
     freq (    6) =       3.308257 [THz] =     110.351566 [cm-1]
 **************************************************************************

     Mode symmetry, C_6v (6mm)  point group:

     freq (  1 -  2) =         14.2  [cm-1]   --> E_1                
     freq (  3 -  4) =         46.6  [cm-1]   --> E_2                
     freq (  5 -  5) =         47.4  [cm-1]   --> A_1                
     freq (  6 -  6) =        110.4  [cm-1]   --> B_2                

     Calculation of q =    0.0000000   0.0000000  -0.3066619
 
     Parallelization info
     --------------------
     sticks:   dense  smooth     PW     G-vecs:    dense   smooth      PW
     Min         144      72     20                 6396     2260     372
     Max         146      73     21                 6400     2275     379
     Sum        1159     583    163                51181    18137    2997
 


     bravais-lattice index     =            4
     lattice parameter (alat)  =       7.2100  a.u.
     unit-cell volume          =     529.2326 (a.u.)^3
     number of atoms/cell      =            2
     number of atomic types    =            1
     number of electrons       =        18.00
     number of Kohn-Sham states=           13
     kinetic-energy cutoff     =      40.0000  Ry
     charge density cutoff     =     320.0000  Ry
     Exchange-correlation      = SLA  PW   PBE  PBE ( 1  4  3  4 0 0)

     celldm(1)=   7.210000  celldm(2)=   0.000000  celldm(3)=   1.630460
     celldm(4)=   0.000000  celldm(5)=   0.000000  celldm(6)=   0.000000

     crystal axes: (cart. coord. in units of alat)
               a(1) = (   1.000000   0.000000   0.000000 )  
               a(2) = (  -0.500000   0.866025   0.000000 )  
               a(3) = (   0.000000   0.000000   1.630460 )  

     reciprocal axes: (cart. coord. in units 2 pi/alat)
               b(1) = (  1.000000  0.577350  0.000000 )  
               b(2) = (  0.000000  1.154701  0.000000 )  
               b(3) = (  0.000000  0.000000  0.613324 )  


     PseudoPot. # 1 for Na read from file:
     ./Na_pbe_v1.uspp.F.UPF
     MD5 check sum: 76a99c7e9422403d3e93cbc85ab7bccb
     Pseudo is Ultrasoft, Zval =  9.0
     Generated by new atomic code, or converted to UPF format
     Using radial grid of  819 points,  5 beta functions with: 
                l(1) =   0
                l(2) =   0
                l(3) =   1
                l(4) =   1
                l(5) =   2
     Q(r) pseudized with  8 coefficients,  rinner =    1.250   1.250   1.250
                                                       1.250   1.250

     atomic species   valence    mass     pseudopotential
        Na             9.00    22.99000     Na( 1.00)

     24 Sym. Ops., with inversion, found



   Cartesian axes

     site n.     atom                  positions (alat units)
         1           Na  tau(   1) = (   0.0000000   0.0000000   0.0000000  )
         2           Na  tau(   2) = (   0.4999999   0.2886751   0.8152300  )

     number of k points=   732  Marzari-Vanderbilt smearing, width (Ry)=  0.0200

     Number of k-points >= 100: set verbosity='high' to print them.

     Dense  grid:    51181 G-vectors     FFT dimensions: (  45,  45,  72)

     Smooth grid:    18137 G-vectors     FFT dimensions: (  30,  30,  48)

     Largest allocated arrays     est. size (Mb)     dimensions
        Kohn-Sham Wavefunctions         0.06 Mb     (     292,   13)
        NL pseudopotentials             0.12 Mb     (     292,   26)
        Each V/rho on FFT grid          0.28 Mb     (   18225)
        Each G-vector array             0.05 Mb     (    6397)
        G-vector shells                 0.01 Mb     (    1836)
     Largest temporary arrays     est. size (Mb)     dimensions
        Auxiliary wavefunctions         0.23 Mb     (     292,   52)
        Each subspace H/S matrix        0.01 Mb     (      26,   26)
        Each <psi_i|beta_j> matrix      0.01 Mb     (      26,   13)

     The potential is recalculated from file :
     ./na_hcp_7.21/_ph0/na_hcp_7.21.save/charge-density.dat

     Starting wfc are   10 atomic +    3 random wfc

     Band Structure Calculation
     Davidson diagonalization with overlap

     ethr =  5.56E-11,  avg # of iterations = 24.0

     total cpu time spent up to now is       10.1 secs

     End of band structure calculation

     Number of k-points >= 100: set verbosity='high' to print the bands.

     the Fermi energy is     1.3775 ev

     Writing output data file na_hcp_7.21.save

                                                                                

     bravais-lattice index     =            4
     lattice parameter (alat)  =       7.2100  a.u.
     unit-cell volume          =     529.2326 (a.u.)^3
     number of atoms/cell      =            2
     number of atomic types    =            1
     kinetic-energy cut-off    =      40.0000  Ry
     charge density cut-off    =     320.0000  Ry
     convergence threshold     =      1.0E-15
     beta                      =       0.7000
     number of iterations used =            4
     Exchange-correlation      = SLA  PW   PBE  PBE ( 1  4  3  4 0 0)


     celldm(1)=    7.21000  celldm(2)=    0.00000  celldm(3)=    1.63046
     celldm(4)=    0.00000  celldm(5)=    0.00000  celldm(6)=    0.00000

     crystal axes: (cart. coord. in units of alat)
               a(1) = (  1.0000  0.0000  0.0000 )  
               a(2) = ( -0.5000  0.8660  0.0000 )  
               a(3) = (  0.0000  0.0000  1.6305 )  

     reciprocal axes: (cart. coord. in units 2 pi/alat)
               b(1) = (  1.0000  0.5774  0.0000 )  
               b(2) = (  0.0000  1.1547  0.0000 )  
               b(3) = (  0.0000  0.0000  0.6133 )  


     Atoms inside the unit cell: 

     Cartesian axes

     site n.  atom      mass           positions (alat units)
        1     Na  22.9900   tau(    1) = (    0.00000    0.00000    0.00000  )
        2     Na  22.9900   tau(    2) = (    0.50000    0.28868    0.81523  )

     Computing dynamical matrix for 
                    q = (   0.0000000   0.0000000  -0.3066619 )
 
     25 Sym.Ops. (with q -> -q+G )


     G cutoff =  421.3672  (   6397 G-vectors)     FFT grid: ( 45, 45, 72)
     G cutoff =  210.6836  (   2265 G-vectors)  smooth grid: ( 30, 30, 48)

     number of k points=   732  Marzari-Vanderbilt smearing, width (Ry)=  0.0200

     PseudoPot. # 1 for Na read from file:
     ./Na_pbe_v1.uspp.F.UPF
     MD5 check sum: 76a99c7e9422403d3e93cbc85ab7bccb
     Pseudo is Ultrasoft, Zval =  9.0
     Generated by new atomic code, or converted to UPF format
     Using radial grid of  819 points,  5 beta functions with: 
                l(1) =   0
                l(2) =   0
                l(3) =   1
                l(4) =   1
                l(5) =   2
     Q(r) pseudized with  8 coefficients,  rinner =    1.250   1.250   1.250
                                                       1.250   1.250


     Atomic displacements:
     There are   2 irreducible representations

     Representation     1      4 modes -  To be done

     Representation     2      2 modes -  To be done



     Alpha used in Ewald sum =   2.8000
     PHONON       :  4m31.94s CPU     4m53.46s WALL



     Representation #  1 modes #   1  2  3  4

     Self-consistent Calculation

      iter #   1 total cpu time :   300.6 secs   av.it.:   5.2
      thresh= 1.000E-02 alpha_mix =  0.700 |ddv_scf|^2 =  1.735E-07

      iter #   2 total cpu time :   308.0 secs   av.it.:   9.4
      thresh= 4.166E-05 alpha_mix =  0.700 |ddv_scf|^2 =  3.111E-09

      iter #   3 total cpu time :   322.0 secs   av.it.:   9.7
      thresh= 5.578E-06 alpha_mix =  0.700 |ddv_scf|^2 =  8.848E-11

      iter #   4 total cpu time :   327.8 secs   av.it.:   9.2
      thresh= 9.406E-07 alpha_mix =  0.700 |ddv_scf|^2 =  2.954E-13

      iter #   5 total cpu time :   335.9 secs   av.it.:   9.6
      thresh= 5.435E-08 alpha_mix =  0.700 |ddv_scf|^2 =  5.219E-16

     End of self-consistent calculation

     Convergence has been achieved 


     Representation #  2 modes #   5  6

     Self-consistent Calculation

      iter #   1 total cpu time :   352.8 secs   av.it.:   5.7
      thresh= 1.000E-02 alpha_mix =  0.700 |ddv_scf|^2 =  1.776E-04

      iter #   2 total cpu time :   357.7 secs   av.it.:   7.7
      thresh= 1.333E-03 alpha_mix =  0.700 |ddv_scf|^2 =  4.996E-03

      iter #   3 total cpu time :   360.9 secs   av.it.:   6.1
      thresh= 7.068E-03 alpha_mix =  0.700 |ddv_scf|^2 =  1.208E-07

      iter #   4 total cpu time :   364.0 secs   av.it.:   8.6
      thresh= 3.475E-05 alpha_mix =  0.700 |ddv_scf|^2 =  6.647E-10

      iter #   5 total cpu time :   367.8 secs   av.it.:   9.5
      thresh= 2.578E-06 alpha_mix =  0.700 |ddv_scf|^2 =  4.737E-11

      iter #   6 total cpu time :   371.3 secs   av.it.:   9.4
      thresh= 6.882E-07 alpha_mix =  0.700 |ddv_scf|^2 =  1.313E-12

      iter #   7 total cpu time :   378.4 secs   av.it.:   9.7
      thresh= 1.146E-07 alpha_mix =  0.700 |ddv_scf|^2 =  1.869E-13

      iter #   8 total cpu time :   381.1 secs   av.it.:   8.3
      thresh= 4.323E-08 alpha_mix =  0.700 |ddv_scf|^2 =  2.204E-16

     End of self-consistent calculation

     Convergence has been achieved 
 
     Number of q in the star =    1
     List of q in the star:
          1   0.000000000   0.000000000  -0.306661924

     Diagonalizing the dynamical matrix

     q = (    0.000000000   0.000000000  -0.306661924 ) 

 **************************************************************************
     freq (    1) =       0.898017 [THz] =      29.954623 [cm-1]
     freq (    2) =       0.898017 [THz] =      29.954623 [cm-1]
     freq (    3) =       0.898017 [THz] =      29.954623 [cm-1]
     freq (    4) =       0.898017 [THz] =      29.954623 [cm-1]
     freq (    5) =       2.601123 [THz] =      86.764140 [cm-1]
     freq (    6) =       2.601123 [THz] =      86.764140 [cm-1]
 **************************************************************************

     Calculation of q =    0.0000000   0.2886751   0.0000000
 
     Parallelization info
     --------------------
     sticks:   dense  smooth     PW     G-vecs:    dense   smooth      PW
     Min         144      72     23                 6396     2261     411
     Max         146      73     24                 6400     2275     416
     Sum        1159     583    187                51181    18137    3309
 


     bravais-lattice index     =            4
     lattice parameter (alat)  =       7.2100  a.u.
     unit-cell volume          =     529.2326 (a.u.)^3
     number of atoms/cell      =            2
     number of atomic types    =            1
     number of electrons       =        18.00
     number of Kohn-Sham states=           13
     kinetic-energy cutoff     =      40.0000  Ry
     charge density cutoff     =     320.0000  Ry
     Exchange-correlation      = SLA  PW   PBE  PBE ( 1  4  3  4 0 0)

     celldm(1)=   7.210000  celldm(2)=   0.000000  celldm(3)=   1.630460
     celldm(4)=   0.000000  celldm(5)=   0.000000  celldm(6)=   0.000000

     crystal axes: (cart. coord. in units of alat)
               a(1) = (   1.000000   0.000000   0.000000 )  
               a(2) = (  -0.500000   0.866025   0.000000 )  
               a(3) = (   0.000000   0.000000   1.630460 )  

     reciprocal axes: (cart. coord. in units 2 pi/alat)
               b(1) = (  1.000000  0.577350  0.000000 )  
               b(2) = (  0.000000  1.154701  0.000000 )  
               b(3) = (  0.000000  0.000000  0.613324 )  


     PseudoPot. # 1 for Na read from file:
     ./Na_pbe_v1.uspp.F.UPF
     MD5 check sum: 76a99c7e9422403d3e93cbc85ab7bccb
     Pseudo is Ultrasoft, Zval =  9.0
     Generated by new atomic code, or converted to UPF format
     Using radial grid of  819 points,  5 beta functions with: 
                l(1) =   0
                l(2) =   0
                l(3) =   1
                l(4) =   1
                l(5) =   2
     Q(r) pseudized with  8 coefficients,  rinner =    1.250   1.250   1.250
                                                       1.250   1.250

     atomic species   valence    mass     pseudopotential
        Na             9.00    22.99000     Na( 1.00)

     24 Sym. Ops., with inversion, found



   Cartesian axes

     site n.     atom                  positions (alat units)
         1           Na  tau(   1) = (   0.0000000   0.0000000   0.0000000  )
         2           Na  tau(   2) = (   0.4999999   0.2886751   0.8152300  )

     number of k points=  3600  Marzari-Vanderbilt smearing, width (Ry)=  0.0200

     Number of k-points >= 100: set verbosity='high' to print them.

     Dense  grid:    51181 G-vectors     FFT dimensions: (  45,  45,  72)

     Smooth grid:    18137 G-vectors     FFT dimensions: (  30,  30,  48)

     Largest allocated arrays     est. size (Mb)     dimensions
        Kohn-Sham Wavefunctions         0.06 Mb     (     299,   13)
        NL pseudopotentials             0.12 Mb     (     299,   26)
        Each V/rho on FFT grid          0.28 Mb     (   18225)
        Each G-vector array             0.05 Mb     (    6397)
        G-vector shells                 0.01 Mb     (    1812)
     Largest temporary arrays     est. size (Mb)     dimensions
        Auxiliary wavefunctions         0.24 Mb     (     299,   52)
        Each subspace H/S matrix        0.01 Mb     (      26,   26)
        Each <psi_i|beta_j> matrix      0.01 Mb     (      26,   13)

     The potential is recalculated from file :
     ./na_hcp_7.21/_ph0/na_hcp_7.21.save/charge-density.dat

     Starting wfc are   10 atomic +    3 random wfc

     Band Structure Calculation
     Davidson diagonalization with overlap

     ethr =  5.56E-11,  avg # of iterations = 23.4

     total cpu time spent up to now is       29.0 secs

     End of band structure calculation

     Number of k-points >= 100: set verbosity='high' to print the bands.

     the Fermi energy is     1.3775 ev

     Writing output data file na_hcp_7.21.save

                                                                                

     bravais-lattice index     =            4
     lattice parameter (alat)  =       7.2100  a.u.
     unit-cell volume          =     529.2326 (a.u.)^3
     number of atoms/cell      =            2
     number of atomic types    =            1
     kinetic-energy cut-off    =      40.0000  Ry
     charge density cut-off    =     320.0000  Ry
     convergence threshold     =      1.0E-15
     beta                      =       0.7000
     number of iterations used =            4
     Exchange-correlation      = SLA  PW   PBE  PBE ( 1  4  3  4 0 0)


     celldm(1)=    7.21000  celldm(2)=    0.00000  celldm(3)=    1.63046
     celldm(4)=    0.00000  celldm(5)=    0.00000  celldm(6)=    0.00000

     crystal axes: (cart. coord. in units of alat)
               a(1) = (  1.0000  0.0000  0.0000 )  
               a(2) = ( -0.5000  0.8660  0.0000 )  
               a(3) = (  0.0000  0.0000  1.6305 )  

     reciprocal axes: (cart. coord. in units 2 pi/alat)
               b(1) = (  1.0000  0.5774  0.0000 )  
               b(2) = (  0.0000  1.1547  0.0000 )  
               b(3) = (  0.0000  0.0000  0.6133 )  


     Atoms inside the unit cell: 

     Cartesian axes

     site n.  atom      mass           positions (alat units)
        1     Na  22.9900   tau(    1) = (    0.00000    0.00000    0.00000  )
        2     Na  22.9900   tau(    2) = (    0.50000    0.28868    0.81523  )

     Computing dynamical matrix for 
                    q = (   0.0000000   0.2886751   0.0000000 )
 
      4 Sym.Ops. (no q -> -q+G )


     G cutoff =  421.3672  (   6397 G-vectors)     FFT grid: ( 45, 45, 72)
     G cutoff =  210.6836  (   2263 G-vectors)  smooth grid: ( 30, 30, 48)

     number of k points=  3600  Marzari-Vanderbilt smearing, width (Ry)=  0.0200

     PseudoPot. # 1 for Na read from file:
     ./Na_pbe_v1.uspp.F.UPF
     MD5 check sum: 76a99c7e9422403d3e93cbc85ab7bccb
     Pseudo is Ultrasoft, Zval =  9.0
     Generated by new atomic code, or converted to UPF format
     Using radial grid of  819 points,  5 beta functions with: 
                l(1) =   0
                l(2) =   0
                l(3) =   1
                l(4) =   1
                l(5) =   2
     Q(r) pseudized with  8 coefficients,  rinner =    1.250   1.250   1.250
                                                       1.250   1.250

     Mode symmetry, C_2v (mm2)  point group:


     Atomic displacements:
     There are   6 irreducible representations

     Representation     1      1 modes -A_1  D_1  S_1  To be done

     Representation     2      1 modes -A_1  D_1  S_1  To be done

     Representation     3      1 modes -B_1  D_3  S_3  To be done

     Representation     4      1 modes -B_1  D_3  S_3  To be done

     Representation     5      1 modes -B_2  D_4  S_4  To be done

     Representation     6      1 modes -B_2  D_4  S_4  To be done



     Alpha used in Ewald sum =   2.8000
     PHONON       :  6m15.43s CPU     6m46.41s WALL



     Representation #  1 mode #   1

     Self-consistent Calculation

      iter #   1 total cpu time :   408.0 secs   av.it.:   5.7
      thresh= 1.000E-02 alpha_mix =  0.700 |ddv_scf|^2 =  5.127E-04

      iter #   2 total cpu time :   412.2 secs   av.it.:   7.3
      thresh= 2.264E-03 alpha_mix =  0.700 |ddv_scf|^2 =  1.899E-02

      iter #   3 total cpu time :   416.8 secs   av.it.:   5.3
      thresh= 1.000E-02 alpha_mix =  0.700 |ddv_scf|^2 =  4.368E-07

      iter #   4 total cpu time :   421.2 secs   av.it.:   8.2
      thresh= 6.609E-05 alpha_mix =  0.700 |ddv_scf|^2 =  2.694E-08

      iter #   5 total cpu time :   426.8 secs   av.it.:   8.3
      thresh= 1.641E-05 alpha_mix =  0.700 |ddv_scf|^2 =  6.541E-10

      iter #   6 total cpu time :   431.1 secs   av.it.:   8.7
      thresh= 2.558E-06 alpha_mix =  0.700 |ddv_scf|^2 =  1.794E-10

      iter #   7 total cpu time :   441.3 secs   av.it.:   7.7
      thresh= 1.339E-06 alpha_mix =  0.700 |ddv_scf|^2 =  1.536E-09

      iter #   8 total cpu time :   446.1 secs   av.it.:   6.7
      thresh= 3.919E-06 alpha_mix =  0.700 |ddv_scf|^2 =  2.103E-12

      iter #   9 total cpu time :   452.3 secs   av.it.:   8.9
      thresh= 1.450E-07 alpha_mix =  0.700 |ddv_scf|^2 =  4.228E-13

      iter #  10 total cpu time :   458.0 secs   av.it.:   7.8
      thresh= 6.502E-08 alpha_mix =  0.700 |ddv_scf|^2 =  1.964E-12

      iter #  11 total cpu time :   467.7 secs   av.it.:   6.8
      thresh= 1.401E-07 alpha_mix =  0.700 |ddv_scf|^2 =  1.488E-15

      iter #  12 total cpu time :   475.6 secs   av.it.:   8.9
      thresh= 3.858E-09 alpha_mix =  0.700 |ddv_scf|^2 =  8.584E-17

     End of self-consistent calculation

     Convergence has been achieved 


     Representation #  2 mode #   2

     Self-consistent Calculation

      iter #   1 total cpu time :   494.5 secs   av.it.:   5.7
      thresh= 1.000E-02 alpha_mix =  0.700 |ddv_scf|^2 =  5.127E-04

      iter #   2 total cpu time :   500.9 secs   av.it.:   7.3
      thresh= 2.264E-03 alpha_mix =  0.700 |ddv_scf|^2 =  1.899E-02

      iter #   3 total cpu time :   508.7 secs   av.it.:   5.3
      thresh= 1.000E-02 alpha_mix =  0.700 |ddv_scf|^2 =  4.368E-07

      iter #   4 total cpu time :   512.5 secs   av.it.:   8.2
      thresh= 6.609E-05 alpha_mix =  0.700 |ddv_scf|^2 =  2.694E-08

      iter #   5 total cpu time :   521.2 secs   av.it.:   8.3
      thresh= 1.641E-05 alpha_mix =  0.700 |ddv_scf|^2 =  6.543E-10

      iter #   6 total cpu time :   536.6 secs   av.it.:   8.7
      thresh= 2.558E-06 alpha_mix =  0.700 |ddv_scf|^2 =  1.892E-10

      iter #   7 total cpu time :   545.0 secs   av.it.:   7.7
      thresh= 1.375E-06 alpha_mix =  0.700 |ddv_scf|^2 =  1.520E-09

      iter #   8 total cpu time :   553.7 secs   av.it.:   6.7
      thresh= 3.899E-06 alpha_mix =  0.700 |ddv_scf|^2 =  2.075E-12

      iter #   9 total cpu time :   560.9 secs   av.it.:   8.9
      thresh= 1.440E-07 alpha_mix =  0.700 |ddv_scf|^2 =  4.236E-13

      iter #  10 total cpu time :   568.3 secs   av.it.:   7.8
      thresh= 6.508E-08 alpha_mix =  0.700 |ddv_scf|^2 =  1.957E-12

      iter #  11 total cpu time :   573.1 secs   av.it.:   6.8
      thresh= 1.399E-07 alpha_mix =  0.700 |ddv_scf|^2 =  1.488E-15

      iter #  12 total cpu time :   580.1 secs   av.it.:   8.9
      thresh= 3.858E-09 alpha_mix =  0.700 |ddv_scf|^2 =  8.585E-17

     End of self-consistent calculation

     Convergence has been achieved 


     Representation #  3 mode #   3

     Self-consistent Calculation

      iter #   1 total cpu time :   586.3 secs   av.it.:   5.3
      thresh= 1.000E-02 alpha_mix =  0.700 |ddv_scf|^2 =  3.007E-06

      iter #   2 total cpu time :   607.7 secs   av.it.:   8.3
      thresh= 1.734E-04 alpha_mix =  0.700 |ddv_scf|^2 =  4.828E-08

      iter #   3 total cpu time :   616.9 secs   av.it.:   8.7
      thresh= 2.197E-05 alpha_mix =  0.700 |ddv_scf|^2 =  2.297E-09

      iter #   4 total cpu time :   630.1 secs   av.it.:   8.2
      thresh= 4.793E-06 alpha_mix =  0.700 |ddv_scf|^2 =  1.363E-11

      iter #   5 total cpu time :   636.8 secs   av.it.:   8.3
      thresh= 3.692E-07 alpha_mix =  0.700 |ddv_scf|^2 =  1.036E-13

      iter #   6 total cpu time :   641.7 secs   av.it.:   8.7
      thresh= 3.219E-08 alpha_mix =  0.700 |ddv_scf|^2 =  3.748E-16

     End of self-consistent calculation

     Convergence has been achieved 


     Representation #  4 mode #   4

     Self-consistent Calculation

      iter #   1 total cpu time :   646.6 secs   av.it.:   5.3
      thresh= 1.000E-02 alpha_mix =  0.700 |ddv_scf|^2 =  3.007E-06

      iter #   2 total cpu time :   650.4 secs   av.it.:   8.3
      thresh= 1.734E-04 alpha_mix =  0.700 |ddv_scf|^2 =  4.828E-08

      iter #   3 total cpu time :   655.6 secs   av.it.:   8.7
      thresh= 2.197E-05 alpha_mix =  0.700 |ddv_scf|^2 =  2.297E-09

      iter #   4 total cpu time :   659.9 secs   av.it.:   8.2
      thresh= 4.793E-06 alpha_mix =  0.700 |ddv_scf|^2 =  1.363E-11

      iter #   5 total cpu time :   667.8 secs   av.it.:   8.3
      thresh= 3.692E-07 alpha_mix =  0.700 |ddv_scf|^2 =  1.036E-13

      iter #   6 total cpu time :   673.4 secs   av.it.:   8.7
      thresh= 3.219E-08 alpha_mix =  0.700 |ddv_scf|^2 =  3.747E-16

     End of self-consistent calculation

     Convergence has been achieved 


     Representation #  5 mode #   5

     Self-consistent Calculation

      iter #   1 total cpu time :   678.5 secs   av.it.:   5.5
      thresh= 1.000E-02 alpha_mix =  0.700 |ddv_scf|^2 =  8.161E-06

      iter #   2 total cpu time :   682.9 secs   av.it.:   8.4
      thresh= 2.857E-04 alpha_mix =  0.700 |ddv_scf|^2 =  1.742E-06

      iter #   3 total cpu time :   685.8 secs   av.it.:   7.7
      thresh= 1.320E-04 alpha_mix =  0.700 |ddv_scf|^2 =  1.029E-08

      iter #   4 total cpu time :   690.8 secs   av.it.:   8.8
      thresh= 1.014E-05 alpha_mix =  0.700 |ddv_scf|^2 =  3.653E-10

      iter #   5 total cpu time :   704.6 secs   av.it.:   8.2
      thresh= 1.911E-06 alpha_mix =  0.700 |ddv_scf|^2 =  2.132E-12

      iter #   6 total cpu time :   711.6 secs   av.it.:   8.6
      thresh= 1.460E-07 alpha_mix =  0.700 |ddv_scf|^2 =  1.150E-14

      iter #   7 total cpu time :   716.1 secs   av.it.:   8.4
      thresh= 1.073E-08 alpha_mix =  0.700 |ddv_scf|^2 =  5.400E-16

     End of self-consistent calculation

     Convergence has been achieved 


     Representation #  6 mode #   6

     Self-consistent Calculation

      iter #   1 total cpu time :   721.1 secs   av.it.:   5.5
      thresh= 1.000E-02 alpha_mix =  0.700 |ddv_scf|^2 =  8.161E-06

      iter #   2 total cpu time :   737.0 secs   av.it.:   8.4
      thresh= 2.857E-04 alpha_mix =  0.700 |ddv_scf|^2 =  1.742E-06

      iter #   3 total cpu time :   742.1 secs   av.it.:   7.7
      thresh= 1.320E-04 alpha_mix =  0.700 |ddv_scf|^2 =  1.029E-08

      iter #   4 total cpu time :   748.9 secs   av.it.:   8.8
      thresh= 1.014E-05 alpha_mix =  0.700 |ddv_scf|^2 =  3.653E-10

      iter #   5 total cpu time :   754.4 secs   av.it.:   8.2
      thresh= 1.911E-06 alpha_mix =  0.700 |ddv_scf|^2 =  2.132E-12

      iter #   6 total cpu time :   757.9 secs   av.it.:   8.6
      thresh= 1.460E-07 alpha_mix =  0.700 |ddv_scf|^2 =  1.150E-14

      iter #   7 total cpu time :   762.0 secs   av.it.:   8.4
      thresh= 1.073E-08 alpha_mix =  0.700 |ddv_scf|^2 =  5.400E-16

     End of self-consistent calculation

     Convergence has been achieved 
 
     Number of q in the star =    6
     List of q in the star:
          1   0.000000000   0.288675135   0.000000000
          2  -0.250000000   0.144337567   0.000000000
          3   0.250000000  -0.144337567   0.000000000
          4  -0.250000000  -0.144337567   0.000000000
          5   0.250000000   0.144337567   0.000000000
          6   0.000000000  -0.288675135   0.000000000

     Diagonalizing the dynamical matrix

     q = (    0.000000000   0.288675135   0.000000000 ) 

 **************************************************************************
     freq (    1) =       1.099284 [THz] =      36.668163 [cm-1]
     freq (    2) =       1.326179 [THz] =      44.236581 [cm-1]
     freq (    3) =       2.227111 [THz] =      74.288440 [cm-1]
     freq (    4) =       2.301257 [THz] =      76.761680 [cm-1]
     freq (    5) =       2.808251 [THz] =      93.673181 [cm-1]
     freq (    6) =       3.315239 [THz] =     110.584484 [cm-1]
 **************************************************************************

     Mode symmetry, C_2v (mm2)  point group:

     freq (  1 -  1) =         36.7  [cm-1]   --> B_1  D_3  S_3      
     freq (  2 -  2) =         44.2  [cm-1]   --> B_2  D_4  S_4      
     freq (  3 -  3) =         74.3  [cm-1]   --> B_1  D_3  S_3      
     freq (  4 -  4) =         76.8  [cm-1]   --> A_1  D_1  S_1      
     freq (  5 -  5) =         93.7  [cm-1]   --> A_1  D_1  S_1      
     freq (  6 -  6) =        110.6  [cm-1]   --> B_2  D_4  S_4      

     Calculation of q =    0.0000000   0.2886751   0.1533310
 
     Parallelization info
     --------------------
     sticks:   dense  smooth     PW     G-vecs:    dense   smooth      PW
     Min         144      72     23                 6396     2261     417
     Max         146      73     24                 6400     2275     422
     Sum        1159     583    187                51181    18137    3357
 


     bravais-lattice index     =            4
     lattice parameter (alat)  =       7.2100  a.u.
     unit-cell volume          =     529.2326 (a.u.)^3
     number of atoms/cell      =            2
     number of atomic types    =            1
     number of electrons       =        18.00
     number of Kohn-Sham states=           13
     kinetic-energy cutoff     =      40.0000  Ry
     charge density cutoff     =     320.0000  Ry
     Exchange-correlation      = SLA  PW   PBE  PBE ( 1  4  3  4 0 0)

     celldm(1)=   7.210000  celldm(2)=   0.000000  celldm(3)=   1.630460
     celldm(4)=   0.000000  celldm(5)=   0.000000  celldm(6)=   0.000000

     crystal axes: (cart. coord. in units of alat)
               a(1) = (   1.000000   0.000000   0.000000 )  
               a(2) = (  -0.500000   0.866025   0.000000 )  
               a(3) = (   0.000000   0.000000   1.630460 )  

     reciprocal axes: (cart. coord. in units 2 pi/alat)
               b(1) = (  1.000000  0.577350  0.000000 )  
               b(2) = (  0.000000  1.154701  0.000000 )  
               b(3) = (  0.000000  0.000000  0.613324 )  


     PseudoPot. # 1 for Na read from file:
     ./Na_pbe_v1.uspp.F.UPF
     MD5 check sum: 76a99c7e9422403d3e93cbc85ab7bccb
     Pseudo is Ultrasoft, Zval =  9.0
     Generated by new atomic code, or converted to UPF format
     Using radial grid of  819 points,  5 beta functions with: 
                l(1) =   0
                l(2) =   0
                l(3) =   1
                l(4) =   1
                l(5) =   2
     Q(r) pseudized with  8 coefficients,  rinner =    1.250   1.250   1.250
                                                       1.250   1.250

     atomic species   valence    mass     pseudopotential
        Na             9.00    22.99000     Na( 1.00)

     24 Sym. Ops., with inversion, found



   Cartesian axes

     site n.     atom                  positions (alat units)
         1           Na  tau(   1) = (   0.0000000   0.0000000   0.0000000  )
         2           Na  tau(   2) = (   0.4999999   0.2886751   0.8152300  )

     number of k points=  7200  Marzari-Vanderbilt smearing, width (Ry)=  0.0200

     Number of k-points >= 100: set verbosity='high' to print them.

     Dense  grid:    51181 G-vectors     FFT dimensions: (  45,  45,  72)

     Smooth grid:    18137 G-vectors     FFT dimensions: (  30,  30,  48)

     Largest allocated arrays     est. size (Mb)     dimensions
        Kohn-Sham Wavefunctions         0.06 Mb     (     293,   13)
        NL pseudopotentials             0.12 Mb     (     293,   26)
        Each V/rho on FFT grid          0.28 Mb     (   18225)
        Each G-vector array             0.05 Mb     (    6397)
        G-vector shells                 0.01 Mb     (    1812)
     Largest temporary arrays     est. size (Mb)     dimensions
        Auxiliary wavefunctions         0.23 Mb     (     293,   52)
        Each subspace H/S matrix        0.01 Mb     (      26,   26)
        Each <psi_i|beta_j> matrix      0.01 Mb     (      26,   13)

     The potential is recalculated from file :
     ./na_hcp_7.21/_ph0/na_hcp_7.21.save/charge-density.dat

     Starting wfc are   10 atomic +    3 random wfc

     Band Structure Calculation
     Davidson diagonalization with overlap

     ethr =  5.56E-11,  avg # of iterations = 23.3

     total cpu time spent up to now is       58.0 secs

     End of band structure calculation

     Number of k-points >= 100: set verbosity='high' to print the bands.

     the Fermi energy is     1.3775 ev

     Writing output data file na_hcp_7.21.save

                                                                                

     bravais-lattice index     =            4
     lattice parameter (alat)  =       7.2100  a.u.
     unit-cell volume          =     529.2326 (a.u.)^3
     number of atoms/cell      =            2
     number of atomic types    =            1
     kinetic-energy cut-off    =      40.0000  Ry
     charge density cut-off    =     320.0000  Ry
     convergence threshold     =      1.0E-15
     beta                      =       0.7000
     number of iterations used =            4
     Exchange-correlation      = SLA  PW   PBE  PBE ( 1  4  3  4 0 0)


     celldm(1)=    7.21000  celldm(2)=    0.00000  celldm(3)=    1.63046
     celldm(4)=    0.00000  celldm(5)=    0.00000  celldm(6)=    0.00000

     crystal axes: (cart. coord. in units of alat)
               a(1) = (  1.0000  0.0000  0.0000 )  
               a(2) = ( -0.5000  0.8660  0.0000 )  
               a(3) = (  0.0000  0.0000  1.6305 )  

     reciprocal axes: (cart. coord. in units 2 pi/alat)
               b(1) = (  1.0000  0.5774  0.0000 )  
               b(2) = (  0.0000  1.1547  0.0000 )  
               b(3) = (  0.0000  0.0000  0.6133 )  


     Atoms inside the unit cell: 

     Cartesian axes

     site n.  atom      mass           positions (alat units)
        1     Na  22.9900   tau(    1) = (    0.00000    0.00000    0.00000  )
        2     Na  22.9900   tau(    2) = (    0.50000    0.28868    0.81523  )

     Computing dynamical matrix for 
                    q = (   0.0000000   0.2886751   0.1533310 )
 
      2 Sym.Ops. (no q -> -q+G )


     G cutoff =  421.3672  (   6397 G-vectors)     FFT grid: ( 45, 45, 72)
     G cutoff =  210.6836  (   2263 G-vectors)  smooth grid: ( 30, 30, 48)

     number of k points=  7200  Marzari-Vanderbilt smearing, width (Ry)=  0.0200

     PseudoPot. # 1 for Na read from file:
     ./Na_pbe_v1.uspp.F.UPF
     MD5 check sum: 76a99c7e9422403d3e93cbc85ab7bccb
     Pseudo is Ultrasoft, Zval =  9.0
     Generated by new atomic code, or converted to UPF format
     Using radial grid of  819 points,  5 beta functions with: 
                l(1) =   0
                l(2) =   0
                l(3) =   1
                l(4) =   1
                l(5) =   2
     Q(r) pseudized with  8 coefficients,  rinner =    1.250   1.250   1.250
                                                       1.250   1.250

     Mode symmetry, C_s (m)     point group:


     Atomic displacements:
     There are   6 irreducible representations

     Representation     1      1 modes -A'  To be done

     Representation     2      1 modes -A'  To be done

     Representation     3      1 modes -A'  To be done

     Representation     4      1 modes -A'  To be done

     Representation     5      1 modes -A''  To be done

     Representation     6      1 modes -A''  To be done



     Alpha used in Ewald sum =   2.8000
     PHONON       : 12m19.74s CPU    13m19.01s WALL



     Representation #  1 mode #   1

     Self-consistent Calculation

      iter #   1 total cpu time :   810.2 secs   av.it.:   5.7
      thresh= 1.000E-02 alpha_mix =  0.700 |ddv_scf|^2 =  2.005E-04

      iter #   2 total cpu time :   835.5 secs   av.it.:   7.6
      thresh= 1.416E-03 alpha_mix =  0.700 |ddv_scf|^2 =  4.109E-03

      iter #   3 total cpu time :   856.4 secs   av.it.:   5.5
      thresh= 6.410E-03 alpha_mix =  0.700 |ddv_scf|^2 =  1.882E-06

      iter #   4 total cpu time :   869.3 secs   av.it.:   7.8
      thresh= 1.372E-04 alpha_mix =  0.700 |ddv_scf|^2 =  2.750E-07

      iter #   5 total cpu time :   882.5 secs   av.it.:   7.8
      thresh= 5.244E-05 alpha_mix =  0.700 |ddv_scf|^2 =  1.202E-09

      iter #   6 total cpu time :   897.3 secs   av.it.:   8.7
      thresh= 3.467E-06 alpha_mix =  0.700 |ddv_scf|^2 =  5.595E-11

      iter #   7 total cpu time :   906.7 secs   av.it.:   8.7
      thresh= 7.480E-07 alpha_mix =  0.700 |ddv_scf|^2 =  4.193E-12

      iter #   8 total cpu time :   921.1 secs   av.it.:   8.8
      thresh= 2.048E-07 alpha_mix =  0.700 |ddv_scf|^2 =  2.489E-11

      iter #   9 total cpu time :   934.2 secs   av.it.:   7.1
      thresh= 4.989E-07 alpha_mix =  0.700 |ddv_scf|^2 =  4.590E-13

      iter #  10 total cpu time :   942.4 secs   av.it.:   8.5
      thresh= 6.775E-08 alpha_mix =  0.700 |ddv_scf|^2 =  7.986E-14

      iter #  11 total cpu time :   956.8 secs   av.it.:   7.8
      thresh= 2.826E-08 alpha_mix =  0.700 |ddv_scf|^2 =  6.288E-14

      iter #  12 total cpu time :   998.0 secs   av.it.:   7.3
      thresh= 2.508E-08 alpha_mix =  0.700 |ddv_scf|^2 =  7.966E-15

      iter #  13 total cpu time :  1038.3 secs   av.it.:   8.0
      thresh= 8.926E-09 alpha_mix =  0.700 |ddv_scf|^2 =  1.966E-16

     End of self-consistent calculation

     Convergence has been achieved 


     Representation #  2 mode #   2

     Self-consistent Calculation

      iter #   1 total cpu time :  1068.4 secs   av.it.:   5.7
      thresh= 1.000E-02 alpha_mix =  0.700 |ddv_scf|^2 =  3.430E-05

      iter #   2 total cpu time :  1116.3 secs   av.it.:   8.0
      thresh= 5.856E-04 alpha_mix =  0.700 |ddv_scf|^2 =  4.291E-04

      iter #   3 total cpu time :  1173.5 secs   av.it.:   5.8
      thresh= 2.072E-03 alpha_mix =  0.700 |ddv_scf|^2 =  1.378E-05

      iter #   4 total cpu time :  1184.6 secs   av.it.:   7.2
      thresh= 3.712E-04 alpha_mix =  0.700 |ddv_scf|^2 =  6.811E-08

      iter #   5 total cpu time :  1215.1 secs   av.it.:   8.6
      thresh= 2.610E-05 alpha_mix =  0.700 |ddv_scf|^2 =  7.786E-10

      iter #   6 total cpu time :  1261.3 secs   av.it.:   8.9
      thresh= 2.790E-06 alpha_mix =  0.700 |ddv_scf|^2 =  6.336E-11

      iter #   7 total cpu time :  1287.7 secs   av.it.:   8.9
      thresh= 7.960E-07 alpha_mix =  0.700 |ddv_scf|^2 =  5.720E-11

      iter #   8 total cpu time :  1335.3 secs   av.it.:   7.6
      thresh= 7.563E-07 alpha_mix =  0.700 |ddv_scf|^2 =  1.328E-10

      iter #   9 total cpu time :  1364.4 secs   av.it.:   7.0
      thresh= 1.152E-06 alpha_mix =  0.700 |ddv_scf|^2 =  5.294E-12

      iter #  10 total cpu time :  1406.4 secs   av.it.:   7.6
      thresh= 2.301E-07 alpha_mix =  0.700 |ddv_scf|^2 =  2.178E-12

      iter #  11 total cpu time :  1453.0 secs   av.it.:   7.6
      thresh= 1.476E-07 alpha_mix =  0.700 |ddv_scf|^2 =  3.352E-14

      iter #  12 total cpu time :  1501.2 secs   av.it.:   7.9
      thresh= 1.831E-08 alpha_mix =  0.700 |ddv_scf|^2 =  2.677E-15

      iter #  13 total cpu time :  1536.6 secs   av.it.:   8.8
      thresh= 5.174E-09 alpha_mix =  0.700 |ddv_scf|^2 =  9.476E-17

     End of self-consistent calculation

     Convergence has been achieved 


     Representation #  3 mode #   3

     Self-consistent Calculation

      iter #   1 total cpu time :  1584.1 secs   av.it.:   5.8
      thresh= 1.000E-02 alpha_mix =  0.700 |ddv_scf|^2 =  2.296E-04

      iter #   2 total cpu time :  1628.8 secs   av.it.:   7.6
      thresh= 1.515E-03 alpha_mix =  0.700 |ddv_scf|^2 =  4.770E-03

      iter #   3 total cpu time :  1658.8 secs   av.it.:   5.4
      thresh= 6.907E-03 alpha_mix =  0.700 |ddv_scf|^2 =  6.047E-07

      iter #   4 total cpu time :  1694.8 secs   av.it.:   8.0
      thresh= 7.776E-05 alpha_mix =  0.700 |ddv_scf|^2 =  2.881E-07

      iter #   5 total cpu time :  1714.6 secs   av.it.:   7.7
      thresh= 5.367E-05 alpha_mix =  0.700 |ddv_scf|^2 =  1.492E-09

      iter #   6 total cpu time :  1747.5 secs   av.it.:   8.7
      thresh= 3.862E-06 alpha_mix =  0.700 |ddv_scf|^2 =  7.186E-11

      iter #   7 total cpu time :  1795.4 secs   av.it.:   8.6
      thresh= 8.477E-07 alpha_mix =  0.700 |ddv_scf|^2 =  2.412E-12

      iter #   8 total cpu time :  1824.3 secs   av.it.:   9.0
      thresh= 1.553E-07 alpha_mix =  0.700 |ddv_scf|^2 =  1.216E-11

      iter #   9 total cpu time :  1862.8 secs   av.it.:   7.1
      thresh= 3.488E-07 alpha_mix =  0.700 |ddv_scf|^2 =  1.574E-12

      iter #  10 total cpu time :  1884.1 secs   av.it.:   7.9
      thresh= 1.255E-07 alpha_mix =  0.700 |ddv_scf|^2 =  4.540E-13

      iter #  11 total cpu time :  1956.5 secs   av.it.:   7.3
      thresh= 6.738E-08 alpha_mix =  0.700 |ddv_scf|^2 =  1.760E-14

      iter #  12 total cpu time :  1983.5 secs   av.it.:   8.1
      thresh= 1.326E-08 alpha_mix =  0.700 |ddv_scf|^2 =  1.457E-15

      iter #  13 total cpu time :  2015.5 secs   av.it.:   8.2
      thresh= 3.817E-09 alpha_mix =  0.700 |ddv_scf|^2 =  1.792E-16

     End of self-consistent calculation

     Convergence has been achieved 


     Representation #  4 mode #   4

     Self-consistent Calculation

      iter #   1 total cpu time :  2042.6 secs   av.it.:   5.7
      thresh= 1.000E-02 alpha_mix =  0.700 |ddv_scf|^2 =  6.342E-05

      iter #   2 total cpu time :  2093.6 secs   av.it.:   7.8
      thresh= 7.964E-04 alpha_mix =  0.700 |ddv_scf|^2 =  1.090E-03

      iter #   3 total cpu time :  2144.9 secs   av.it.:   5.7
      thresh= 3.301E-03 alpha_mix =  0.700 |ddv_scf|^2 =  6.869E-06

      iter #   4 total cpu time :  2181.2 secs   av.it.:   7.5
      thresh= 2.621E-04 alpha_mix =  0.700 |ddv_scf|^2 =  1.069E-07

      iter #   5 total cpu time :  2200.9 secs   av.it.:   8.2
      thresh= 3.270E-05 alpha_mix =  0.700 |ddv_scf|^2 =  8.775E-10

      iter #   6 total cpu time :  2224.7 secs   av.it.:   8.9
      thresh= 2.962E-06 alpha_mix =  0.700 |ddv_scf|^2 =  7.410E-11

      iter #   7 total cpu time :  2277.4 secs   av.it.:   8.7
      thresh= 8.608E-07 alpha_mix =  0.700 |ddv_scf|^2 =  2.246E-11

      iter #   8 total cpu time :  2318.4 secs   av.it.:   8.2
      thresh= 4.739E-07 alpha_mix =  0.700 |ddv_scf|^2 =  2.106E-10

      iter #   9 total cpu time :  2353.9 secs   av.it.:   6.6
      thresh= 1.451E-06 alpha_mix =  0.700 |ddv_scf|^2 =  2.389E-12

      iter #  10 total cpu time :  2368.2 secs   av.it.:   7.8
      thresh= 1.546E-07 alpha_mix =  0.700 |ddv_scf|^2 =  3.463E-12

      iter #  11 total cpu time :  2397.8 secs   av.it.:   7.5
      thresh= 1.861E-07 alpha_mix =  0.700 |ddv_scf|^2 =  6.995E-15

      iter #  12 total cpu time :  2427.2 secs   av.it.:   8.8
      thresh= 8.364E-09 alpha_mix =  0.700 |ddv_scf|^2 =  2.448E-15

      iter #  13 total cpu time :  2462.6 secs   av.it.:   8.4
      thresh= 4.948E-09 alpha_mix =  0.700 |ddv_scf|^2 =  1.194E-16

     End of self-consistent calculation

     Convergence has been achieved 


     Representation #  5 mode #   5

     Self-consistent Calculation

      iter #   1 total cpu time :  2487.3 secs   av.it.:   5.3
      thresh= 1.000E-02 alpha_mix =  0.700 |ddv_scf|^2 =  3.000E-06

      iter #   2 total cpu time :  2533.6 secs   av.it.:   8.4
      thresh= 1.732E-04 alpha_mix =  0.700 |ddv_scf|^2 =  4.811E-08

      iter #   3 total cpu time :  2557.5 secs   av.it.:   8.7
      thresh= 2.193E-05 alpha_mix =  0.700 |ddv_scf|^2 =  2.310E-09

      iter #   4 total cpu time :  2605.4 secs   av.it.:   8.2
      thresh= 4.806E-06 alpha_mix =  0.700 |ddv_scf|^2 =  1.070E-11

      iter #   5 total cpu time :  2633.3 secs   av.it.:   8.4
      thresh= 3.271E-07 alpha_mix =  0.700 |ddv_scf|^2 =  7.577E-14

      iter #   6 total cpu time :  2669.4 secs   av.it.:   8.7
      thresh= 2.753E-08 alpha_mix =  0.700 |ddv_scf|^2 =  3.541E-16

     End of self-consistent calculation

     Convergence has been achieved 


     Representation #  6 mode #   6

     Self-consistent Calculation

      iter #   1 total cpu time :  2707.5 secs   av.it.:   5.3
      thresh= 1.000E-02 alpha_mix =  0.700 |ddv_scf|^2 =  3.000E-06

      iter #   2 total cpu time :  2760.0 secs   av.it.:   8.4
      thresh= 1.732E-04 alpha_mix =  0.700 |ddv_scf|^2 =  4.811E-08

      iter #   3 total cpu time :  2779.8 secs   av.it.:   8.7
      thresh= 2.193E-05 alpha_mix =  0.700 |ddv_scf|^2 =  2.310E-09

      iter #   4 total cpu time :  2828.5 secs   av.it.:   8.2
      thresh= 4.806E-06 alpha_mix =  0.700 |ddv_scf|^2 =  1.070E-11

      iter #   5 total cpu time :  2848.8 secs   av.it.:   8.4
      thresh= 3.271E-07 alpha_mix =  0.700 |ddv_scf|^2 =  7.577E-14

      iter #   6 total cpu time :  2877.3 secs   av.it.:   8.7
      thresh= 2.753E-08 alpha_mix =  0.700 |ddv_scf|^2 =  3.541E-16

     End of self-consistent calculation

     Convergence has been achieved 
 
     Number of q in the star =   12
     List of q in the star:
          1   0.000000000   0.288675135   0.153330962
          2   0.000000000   0.288675135  -0.153330962
          3  -0.250000000   0.144337567   0.153330962
          4   0.250000000  -0.144337567   0.153330962
          5  -0.250000000  -0.144337567   0.153330962
          6   0.250000000   0.144337567   0.153330962
          7   0.000000000  -0.288675135   0.153330962
          8   0.000000000  -0.288675135  -0.153330962
          9   0.250000000   0.144337567  -0.153330962
         10   0.250000000  -0.144337567  -0.153330962
         11  -0.250000000  -0.144337567  -0.153330962
         12  -0.250000000   0.144337567  -0.153330962

     Diagonalizing the dynamical matrix

     q = (    0.000000000   0.288675135   0.153330962 ) 

 **************************************************************************
     freq (    1) =       1.320568 [THz] =      44.049415 [cm-1]
     freq (    2) =       1.516907 [THz] =      50.598571 [cm-1]
     freq (    3) =       2.111634 [THz] =      70.436528 [cm-1]
     freq (    4) =       2.506011 [THz] =      83.591531 [cm-1]
     freq (    5) =       2.648165 [THz] =      88.333263 [cm-1]
     freq (    6) =       3.245419 [THz] =     108.255530 [cm-1]
 **************************************************************************

     Mode symmetry, C_s (m)     point group:

     freq (  1 -  1) =         44.0  [cm-1]   --> A''                
     freq (  2 -  2) =         50.6  [cm-1]   --> A'                 
     freq (  3 -  3) =         70.4  [cm-1]   --> A''                
     freq (  4 -  4) =         83.6  [cm-1]   --> A'                 
     freq (  5 -  5) =         88.3  [cm-1]   --> A'                 
     freq (  6 -  6) =        108.3  [cm-1]   --> A'                 

     Calculation of q =    0.0000000   0.2886751  -0.3066619
 
     Parallelization info
     --------------------
     sticks:   dense  smooth     PW     G-vecs:    dense   smooth      PW
     Min         144      72     23                 6396     2261     411
     Max         146      73     24                 6400     2275     416
     Sum        1159     583    187                51181    18137    3309
 


     bravais-lattice index     =            4
     lattice parameter (alat)  =       7.2100  a.u.
     unit-cell volume          =     529.2326 (a.u.)^3
     number of atoms/cell      =            2
     number of atomic types    =            1
     number of electrons       =        18.00
     number of Kohn-Sham states=           13
     kinetic-energy cutoff     =      40.0000  Ry
     charge density cutoff     =     320.0000  Ry
     Exchange-correlation      = SLA  PW   PBE  PBE ( 1  4  3  4 0 0)

     celldm(1)=   7.210000  celldm(2)=   0.000000  celldm(3)=   1.630460
     celldm(4)=   0.000000  celldm(5)=   0.000000  celldm(6)=   0.000000

     crystal axes: (cart. coord. in units of alat)
               a(1) = (   1.000000   0.000000   0.000000 )  
               a(2) = (  -0.500000   0.866025   0.000000 )  
               a(3) = (   0.000000   0.000000   1.630460 )  

     reciprocal axes: (cart. coord. in units 2 pi/alat)
               b(1) = (  1.000000  0.577350  0.000000 )  
               b(2) = (  0.000000  1.154701  0.000000 )  
               b(3) = (  0.000000  0.000000  0.613324 )  


     PseudoPot. # 1 for Na read from file:
     ./Na_pbe_v1.uspp.F.UPF
     MD5 check sum: 76a99c7e9422403d3e93cbc85ab7bccb
     Pseudo is Ultrasoft, Zval =  9.0
     Generated by new atomic code, or converted to UPF format
     Using radial grid of  819 points,  5 beta functions with: 
                l(1) =   0
                l(2) =   0
                l(3) =   1
                l(4) =   1
                l(5) =   2
     Q(r) pseudized with  8 coefficients,  rinner =    1.250   1.250   1.250
                                                       1.250   1.250

     atomic species   valence    mass     pseudopotential
        Na             9.00    22.99000     Na( 1.00)

     24 Sym. Ops., with inversion, found



   Cartesian axes

     site n.     atom                  positions (alat units)
         1           Na  tau(   1) = (   0.0000000   0.0000000   0.0000000  )
         2           Na  tau(   2) = (   0.4999999   0.2886751   0.8152300  )

     number of k points=  3600  Marzari-Vanderbilt smearing, width (Ry)=  0.0200

     Number of k-points >= 100: set verbosity='high' to print them.

     Dense  grid:    51181 G-vectors     FFT dimensions: (  45,  45,  72)

     Smooth grid:    18137 G-vectors     FFT dimensions: (  30,  30,  48)

     Largest allocated arrays     est. size (Mb)     dimensions
        Kohn-Sham Wavefunctions         0.06 Mb     (     299,   13)
        NL pseudopotentials             0.12 Mb     (     299,   26)
        Each V/rho on FFT grid          0.28 Mb     (   18225)
        Each G-vector array             0.05 Mb     (    6397)
        G-vector shells                 0.01 Mb     (    1812)
     Largest temporary arrays     est. size (Mb)     dimensions
        Auxiliary wavefunctions         0.24 Mb     (     299,   52)
        Each subspace H/S matrix        0.01 Mb     (      26,   26)
        Each <psi_i|beta_j> matrix      0.01 Mb     (      26,   13)

     The potential is recalculated from file :
     ./na_hcp_7.21/_ph0/na_hcp_7.21.save/charge-density.dat

     Starting wfc are   10 atomic +    3 random wfc

     Band Structure Calculation
     Davidson diagonalization with overlap

     ethr =  5.56E-11,  avg # of iterations = 23.3

     total cpu time spent up to now is       87.1 secs

     End of band structure calculation

     Number of k-points >= 100: set verbosity='high' to print the bands.

     the Fermi energy is     1.3775 ev

     Writing output data file na_hcp_7.21.save

                                                                                

     bravais-lattice index     =            4
     lattice parameter (alat)  =       7.2100  a.u.
     unit-cell volume          =     529.2326 (a.u.)^3
     number of atoms/cell      =            2
     number of atomic types    =            1
     kinetic-energy cut-off    =      40.0000  Ry
     charge density cut-off    =     320.0000  Ry
     convergence threshold     =      1.0E-15
     beta                      =       0.7000
     number of iterations used =            4
     Exchange-correlation      = SLA  PW   PBE  PBE ( 1  4  3  4 0 0)


     celldm(1)=    7.21000  celldm(2)=    0.00000  celldm(3)=    1.63046
     celldm(4)=    0.00000  celldm(5)=    0.00000  celldm(6)=    0.00000

     crystal axes: (cart. coord. in units of alat)
               a(1) = (  1.0000  0.0000  0.0000 )  
               a(2) = ( -0.5000  0.8660  0.0000 )  
               a(3) = (  0.0000  0.0000  1.6305 )  

     reciprocal axes: (cart. coord. in units 2 pi/alat)
               b(1) = (  1.0000  0.5774  0.0000 )  
               b(2) = (  0.0000  1.1547  0.0000 )  
               b(3) = (  0.0000  0.0000  0.6133 )  


     Atoms inside the unit cell: 

     Cartesian axes

     site n.  atom      mass           positions (alat units)
        1     Na  22.9900   tau(    1) = (    0.00000    0.00000    0.00000  )
        2     Na  22.9900   tau(    2) = (    0.50000    0.28868    0.81523  )

     Computing dynamical matrix for 
                    q = (   0.0000000   0.2886751  -0.3066619 )
 
      4 Sym.Ops. (no q -> -q+G )


     G cutoff =  421.3672  (   6397 G-vectors)     FFT grid: ( 45, 45, 72)
     G cutoff =  210.6836  (   2263 G-vectors)  smooth grid: ( 30, 30, 48)

     number of k points=  3600  Marzari-Vanderbilt smearing, width (Ry)=  0.0200

     PseudoPot. # 1 for Na read from file:
     ./Na_pbe_v1.uspp.F.UPF
     MD5 check sum: 76a99c7e9422403d3e93cbc85ab7bccb
     Pseudo is Ultrasoft, Zval =  9.0
     Generated by new atomic code, or converted to UPF format
     Using radial grid of  819 points,  5 beta functions with: 
                l(1) =   0
                l(2) =   0
                l(3) =   1
                l(4) =   1
                l(5) =   2
     Q(r) pseudized with  8 coefficients,  rinner =    1.250   1.250   1.250
                                                       1.250   1.250

     Mode symmetry, C_2v (mm2)  point group:


     Atomic displacements:
     There are   6 irreducible representations

     Representation     1      1 modes -A_1  D_1  S_1  To be done

     Representation     2      1 modes -A_1  D_1  S_1  To be done

     Representation     3      1 modes -A_2  D_2  S_2  To be done

     Representation     4      1 modes -B_1  D_3  S_3  To be done

     Representation     5      1 modes -B_2  D_4  S_4  To be done

     Representation     6      1 modes -B_2  D_4  S_4  To be done



     Alpha used in Ewald sum =   2.8000
     PHONON       : 46m26.47s CPU    49m24.86s WALL



     Representation #  1 mode #   1

     Self-consistent Calculation

      iter #   1 total cpu time :  2980.2 secs   av.it.:   5.6
      thresh= 1.000E-02 alpha_mix =  0.700 |ddv_scf|^2 =  5.481E-05

      iter #   2 total cpu time :  3027.2 secs   av.it.:   7.9
      thresh= 7.404E-04 alpha_mix =  0.700 |ddv_scf|^2 =  3.113E-04

      iter #   3 total cpu time :  3072.3 secs   av.it.:   6.6
      thresh= 1.764E-03 alpha_mix =  0.700 |ddv_scf|^2 =  3.695E-08

      iter #   4 total cpu time :  3104.8 secs   av.it.:   8.9
      thresh= 1.922E-05 alpha_mix =  0.700 |ddv_scf|^2 =  1.939E-09

      iter #   5 total cpu time :  3115.8 secs   av.it.:   8.9
      thresh= 4.403E-06 alpha_mix =  0.700 |ddv_scf|^2 =  6.900E-11

      iter #   6 total cpu time :  3128.6 secs   av.it.:   9.1
      thresh= 8.306E-07 alpha_mix =  0.700 |ddv_scf|^2 =  3.630E-12

      iter #   7 total cpu time :  3172.3 secs   av.it.:   8.8
      thresh= 1.905E-07 alpha_mix =  0.700 |ddv_scf|^2 =  3.043E-12

      iter #   8 total cpu time :  3221.3 secs   av.it.:   7.6
      thresh= 1.744E-07 alpha_mix =  0.700 |ddv_scf|^2 =  2.041E-12

      iter #   9 total cpu time :  3248.1 secs   av.it.:   7.6
      thresh= 1.429E-07 alpha_mix =  0.700 |ddv_scf|^2 =  6.572E-13

      iter #  10 total cpu time :  3276.1 secs   av.it.:   7.4
      thresh= 8.107E-08 alpha_mix =  0.700 |ddv_scf|^2 =  4.641E-16

     End of self-consistent calculation

     Convergence has been achieved 


     Representation #  2 mode #   2

     Self-consistent Calculation

      iter #   1 total cpu time :  3285.5 secs   av.it.:   5.7
      thresh= 1.000E-02 alpha_mix =  0.700 |ddv_scf|^2 =  6.148E-05

      iter #   2 total cpu time :  3296.0 secs   av.it.:   7.9
      thresh= 7.841E-04 alpha_mix =  0.700 |ddv_scf|^2 =  3.533E-04

      iter #   3 total cpu time :  3313.2 secs   av.it.:   6.6
      thresh= 1.880E-03 alpha_mix =  0.700 |ddv_scf|^2 =  4.769E-08

      iter #   4 total cpu time :  3366.8 secs   av.it.:   8.8
      thresh= 2.184E-05 alpha_mix =  0.700 |ddv_scf|^2 =  1.799E-09

      iter #   5 total cpu time :  3375.5 secs   av.it.:   8.9
      thresh= 4.242E-06 alpha_mix =  0.700 |ddv_scf|^2 =  8.811E-11

      iter #   6 total cpu time :  3411.9 secs   av.it.:   9.2
      thresh= 9.387E-07 alpha_mix =  0.700 |ddv_scf|^2 =  3.693E-12

      iter #   7 total cpu time :  3463.4 secs   av.it.:   8.8
      thresh= 1.922E-07 alpha_mix =  0.700 |ddv_scf|^2 =  3.555E-12

      iter #   8 total cpu time :  3488.7 secs   av.it.:   7.6
      thresh= 1.885E-07 alpha_mix =  0.700 |ddv_scf|^2 =  1.151E-12

      iter #   9 total cpu time :  3516.1 secs   av.it.:   7.7
      thresh= 1.073E-07 alpha_mix =  0.700 |ddv_scf|^2 =  4.326E-13

      iter #  10 total cpu time :  3527.9 secs   av.it.:   7.6
      thresh= 6.577E-08 alpha_mix =  0.700 |ddv_scf|^2 =  8.388E-16

     End of self-consistent calculation

     Convergence has been achieved 


     Representation #  3 mode #   3

     Self-consistent Calculation

      iter #   1 total cpu time :  3538.1 secs   av.it.:   5.3
      thresh= 1.000E-02 alpha_mix =  0.700 |ddv_scf|^2 =  2.995E-06

[...]
      thresh= 1.177E-05 alpha_mix =  0.700 |ddv_scf|^2 =  1.140E-09

      iter #   5 total cpu time :  7777.9 secs   av.it.:   8.6
      thresh= 3.376E-06 alpha_mix =  0.700 |ddv_scf|^2 =  1.430E-11

      iter #   6 total cpu time :  7800.3 secs   av.it.:   8.5
      thresh= 3.781E-07 alpha_mix =  0.700 |ddv_scf|^2 =  8.165E-13

      iter #   7 total cpu time :  7832.4 secs   av.it.:   8.8
      thresh= 9.036E-08 alpha_mix =  0.700 |ddv_scf|^2 =  1.878E-14

      iter #   8 total cpu time :  7847.5 secs   av.it.:   8.9
      thresh= 1.370E-08 alpha_mix =  0.700 |ddv_scf|^2 =  4.160E-16

     End of self-consistent calculation

     Convergence has been achieved 
 
     Number of q in the star =   12
     List of q in the star:
          1   0.250000000   0.433012702   0.153330962
          2   0.250000000   0.433012702  -0.153330962
          3  -0.250000000   0.433012702   0.153330962
          4   0.250000000  -0.433012702  -0.153330962
          5  -0.250000000   0.433012702  -0.153330962
          6  -0.250000000  -0.433012702  -0.153330962
          7   0.500000000   0.000000000   0.153330962
          8   0.250000000  -0.433012702   0.153330962
          9  -0.500000000   0.000000000   0.153330962
         10  -0.250000000  -0.433012702   0.153330962
         11  -0.500000000   0.000000000  -0.153330962
         12   0.500000000   0.000000000  -0.153330962

     Diagonalizing the dynamical matrix

     q = (    0.250000000   0.433012702   0.153330962 ) 

 **************************************************************************
     freq (    1) =       1.825491 [THz] =      60.891822 [cm-1]
     freq (    2) =       2.241348 [THz] =      74.763314 [cm-1]
     freq (    3) =       2.769035 [THz] =      92.365064 [cm-1]
     freq (    4) =       2.776879 [THz] =      92.626701 [cm-1]
     freq (    5) =       3.216901 [THz] =     107.304268 [cm-1]
     freq (    6) =       3.366625 [THz] =     112.298522 [cm-1]
 **************************************************************************

     Mode symmetry, C_s (m)     point group:

     freq (  1 -  1) =         60.9  [cm-1]   --> A'                 
     freq (  2 -  2) =         74.8  [cm-1]   --> A''                
     freq (  3 -  3) =         92.4  [cm-1]   --> A'                 
     freq (  4 -  4) =         92.6  [cm-1]   --> A''                
     freq (  5 -  5) =        107.3  [cm-1]   --> A'                 
     freq (  6 -  6) =        112.3  [cm-1]   --> A''                

     Calculation of q =    0.2500000   0.4330127  -0.3066619
 
     Parallelization info
     --------------------
     sticks:   dense  smooth     PW     G-vecs:    dense   smooth      PW
     Min         144      72     24                 6396     2257     452
     Max         146      73     25                 6400     2277     455
     Sum        1159     583    199                51181    18137    3633
 


     bravais-lattice index     =            4
     lattice parameter (alat)  =       7.2100  a.u.
     unit-cell volume          =     529.2326 (a.u.)^3
     number of atoms/cell      =            2
     number of atomic types    =            1
     number of electrons       =        18.00
     number of Kohn-Sham states=           13
     kinetic-energy cutoff     =      40.0000  Ry
     charge density cutoff     =     320.0000  Ry
     Exchange-correlation      = SLA  PW   PBE  PBE ( 1  4  3  4 0 0)

     celldm(1)=   7.210000  celldm(2)=   0.000000  celldm(3)=   1.630460
     celldm(4)=   0.000000  celldm(5)=   0.000000  celldm(6)=   0.000000

     crystal axes: (cart. coord. in units of alat)
               a(1) = (   1.000000   0.000000   0.000000 )  
               a(2) = (  -0.500000   0.866025   0.000000 )  
               a(3) = (   0.000000   0.000000   1.630460 )  

     reciprocal axes: (cart. coord. in units 2 pi/alat)
               b(1) = (  1.000000  0.577350  0.000000 )  
               b(2) = (  0.000000  1.154701  0.000000 )  
               b(3) = (  0.000000  0.000000  0.613324 )  


     PseudoPot. # 1 for Na read from file:
     ./Na_pbe_v1.uspp.F.UPF
     MD5 check sum: 76a99c7e9422403d3e93cbc85ab7bccb
     Pseudo is Ultrasoft, Zval =  9.0
     Generated by new atomic code, or converted to UPF format
     Using radial grid of  819 points,  5 beta functions with: 
                l(1) =   0
                l(2) =   0
                l(3) =   1
                l(4) =   1
                l(5) =   2
     Q(r) pseudized with  8 coefficients,  rinner =    1.250   1.250   1.250
                                                       1.250   1.250

     atomic species   valence    mass     pseudopotential
        Na             9.00    22.99000     Na( 1.00)

     24 Sym. Ops., with inversion, found



   Cartesian axes

     site n.     atom                  positions (alat units)
         1           Na  tau(   1) = (   0.0000000   0.0000000   0.0000000  )
         2           Na  tau(   2) = (   0.4999999   0.2886751   0.8152300  )

     number of k points=  3600  Marzari-Vanderbilt smearing, width (Ry)=  0.0200

     Number of k-points >= 100: set verbosity='high' to print them.

     Dense  grid:    51181 G-vectors     FFT dimensions: (  45,  45,  72)

     Smooth grid:    18137 G-vectors     FFT dimensions: (  30,  30,  48)

     Largest allocated arrays     est. size (Mb)     dimensions
        Kohn-Sham Wavefunctions         0.06 Mb     (     302,   13)
        NL pseudopotentials             0.12 Mb     (     302,   26)
        Each V/rho on FFT grid          0.28 Mb     (   18225)
        Each G-vector array             0.05 Mb     (    6397)
        G-vector shells                 0.01 Mb     (    1882)
     Largest temporary arrays     est. size (Mb)     dimensions
        Auxiliary wavefunctions         0.24 Mb     (     302,   52)
        Each subspace H/S matrix        0.01 Mb     (      26,   26)
        Each <psi_i|beta_j> matrix      0.01 Mb     (      26,   13)

     The potential is recalculated from file :
     ./na_hcp_7.21/_ph0/na_hcp_7.21.save/charge-density.dat

     Starting wfc are   10 atomic +    3 random wfc

     Band Structure Calculation
     Davidson diagonalization with overlap

     ethr =  5.56E-11,  avg # of iterations = 23.0

     total cpu time spent up to now is      217.2 secs

     End of band structure calculation

     Number of k-points >= 100: set verbosity='high' to print the bands.

     the Fermi energy is     1.3775 ev

     Writing output data file na_hcp_7.21.save

                                                                                

     bravais-lattice index     =            4
     lattice parameter (alat)  =       7.2100  a.u.
     unit-cell volume          =     529.2326 (a.u.)^3
     number of atoms/cell      =            2
     number of atomic types    =            1
     kinetic-energy cut-off    =      40.0000  Ry
     charge density cut-off    =     320.0000  Ry
     convergence threshold     =      1.0E-15
     beta                      =       0.7000
     number of iterations used =            4
     Exchange-correlation      = SLA  PW   PBE  PBE ( 1  4  3  4 0 0)


     celldm(1)=    7.21000  celldm(2)=    0.00000  celldm(3)=    1.63046
     celldm(4)=    0.00000  celldm(5)=    0.00000  celldm(6)=    0.00000

     crystal axes: (cart. coord. in units of alat)
               a(1) = (  1.0000  0.0000  0.0000 )  
               a(2) = ( -0.5000  0.8660  0.0000 )  
               a(3) = (  0.0000  0.0000  1.6305 )  

     reciprocal axes: (cart. coord. in units 2 pi/alat)
               b(1) = (  1.0000  0.5774  0.0000 )  
               b(2) = (  0.0000  1.1547  0.0000 )  
               b(3) = (  0.0000  0.0000  0.6133 )  


     Atoms inside the unit cell: 

     Cartesian axes

     site n.  atom      mass           positions (alat units)
        1     Na  22.9900   tau(    1) = (    0.00000    0.00000    0.00000  )
        2     Na  22.9900   tau(    2) = (    0.50000    0.28868    0.81523  )

     Computing dynamical matrix for 
                    q = (   0.2500000   0.4330127  -0.3066619 )
 
      4 Sym.Ops. (no q -> -q+G )


     G cutoff =  421.3672  (   6397 G-vectors)     FFT grid: ( 45, 45, 72)
     G cutoff =  210.6836  (   2257 G-vectors)  smooth grid: ( 30, 30, 48)

     number of k points=  3600  Marzari-Vanderbilt smearing, width (Ry)=  0.0200

     PseudoPot. # 1 for Na read from file:
     ./Na_pbe_v1.uspp.F.UPF
     MD5 check sum: 76a99c7e9422403d3e93cbc85ab7bccb
     Pseudo is Ultrasoft, Zval =  9.0
     Generated by new atomic code, or converted to UPF format
     Using radial grid of  819 points,  5 beta functions with: 
                l(1) =   0
                l(2) =   0
                l(3) =   1
                l(4) =   1
                l(5) =   2
     Q(r) pseudized with  8 coefficients,  rinner =    1.250   1.250   1.250
                                                       1.250   1.250


     Atomic displacements:
     There are   3 irreducible representations

     Representation     1      2 modes -  To be done

     Representation     2      2 modes -  To be done

     Representation     3      2 modes -  To be done



     Alpha used in Ewald sum =   2.8000
     PHONON       :     2h 1m CPU        2h11m WALL



     Representation #  1 modes #   1  2

     Self-consistent Calculation

      iter #   1 total cpu time :  7886.7 secs   av.it.:   5.7
      thresh= 1.000E-02 alpha_mix =  0.700 |ddv_scf|^2 =  2.788E-06

      iter #   2 total cpu time :  7909.9 secs   av.it.:   9.0
      thresh= 1.670E-04 alpha_mix =  0.700 |ddv_scf|^2 =  1.602E-06

      iter #   3 total cpu time :  7928.9 secs   av.it.:   8.1
      thresh= 1.266E-04 alpha_mix =  0.700 |ddv_scf|^2 =  1.105E-08

      iter #   4 total cpu time :  7943.6 secs   av.it.:   9.3
      thresh= 1.051E-05 alpha_mix =  0.700 |ddv_scf|^2 =  2.937E-10

      iter #   5 total cpu time :  7958.7 secs   av.it.:   9.6
      thresh= 1.714E-06 alpha_mix =  0.700 |ddv_scf|^2 =  1.614E-11

      iter #   6 total cpu time :  7997.7 secs   av.it.:   9.7
      thresh= 4.018E-07 alpha_mix =  0.700 |ddv_scf|^2 =  1.077E-12

      iter #   7 total cpu time :  8012.1 secs   av.it.:   9.8
      thresh= 1.038E-07 alpha_mix =  0.700 |ddv_scf|^2 =  1.268E-14

      iter #   8 total cpu time :  8032.9 secs   av.it.:   9.6
      thresh= 1.126E-08 alpha_mix =  0.700 |ddv_scf|^2 =  3.173E-16

     End of self-consistent calculation

     Convergence has been achieved 


     Representation #  2 modes #   3  4

     Self-consistent Calculation

      iter #   1 total cpu time :  8052.6 secs   av.it.:   5.7
      thresh= 1.000E-02 alpha_mix =  0.700 |ddv_scf|^2 =  2.159E-06

      iter #   2 total cpu time :  8072.5 secs   av.it.:   9.0
      thresh= 1.469E-04 alpha_mix =  0.700 |ddv_scf|^2 =  1.109E-06

      iter #   3 total cpu time :  8085.6 secs   av.it.:   8.2
      thresh= 1.053E-04 alpha_mix =  0.700 |ddv_scf|^2 =  1.331E-08

      iter #   4 total cpu time :  8112.6 secs   av.it.:   9.2
      thresh= 1.154E-05 alpha_mix =  0.700 |ddv_scf|^2 =  2.807E-10

      iter #   5 total cpu time :  8135.9 secs   av.it.:   9.3
      thresh= 1.675E-06 alpha_mix =  0.700 |ddv_scf|^2 =  2.079E-11

      iter #   6 total cpu time :  8152.1 secs   av.it.:   9.5
      thresh= 4.559E-07 alpha_mix =  0.700 |ddv_scf|^2 =  7.516E-13

      iter #   7 total cpu time :  8173.9 secs   av.it.:  10.0
      thresh= 8.670E-08 alpha_mix =  0.700 |ddv_scf|^2 =  1.470E-14

      iter #   8 total cpu time :  8189.4 secs   av.it.:   9.8
      thresh= 1.213E-08 alpha_mix =  0.700 |ddv_scf|^2 =  8.737E-16

     End of self-consistent calculation

     Convergence has been achieved 


     Representation #  3 modes #   5  6

     Self-consistent Calculation

      iter #   1 total cpu time :  8206.6 secs   av.it.:   5.7
      thresh= 1.000E-02 alpha_mix =  0.700 |ddv_scf|^2 =  2.053E-06

      iter #   2 total cpu time :  8223.5 secs   av.it.:   9.0
      thresh= 1.433E-04 alpha_mix =  0.700 |ddv_scf|^2 =  8.396E-07

      iter #   3 total cpu time :  8240.3 secs   av.it.:   8.3
      thresh= 9.163E-05 alpha_mix =  0.700 |ddv_scf|^2 =  2.410E-08

      iter #   4 total cpu time :  8260.9 secs   av.it.:   8.9
      thresh= 1.552E-05 alpha_mix =  0.700 |ddv_scf|^2 =  3.882E-10

      iter #   5 total cpu time :  8282.7 secs   av.it.:   9.4
      thresh= 1.970E-06 alpha_mix =  0.700 |ddv_scf|^2 =  1.021E-11

      iter #   6 total cpu time :  8297.8 secs   av.it.:   9.7
      thresh= 3.195E-07 alpha_mix =  0.700 |ddv_scf|^2 =  7.766E-13

      iter #   7 total cpu time :  8314.2 secs   av.it.:   9.9
      thresh= 8.813E-08 alpha_mix =  0.700 |ddv_scf|^2 =  1.860E-14

      iter #   8 total cpu time :  8328.4 secs   av.it.:   9.9
      thresh= 1.364E-08 alpha_mix =  0.700 |ddv_scf|^2 =  2.131E-16

     End of self-consistent calculation

     Convergence has been achieved 
 
     Number of q in the star =    6
     List of q in the star:
          1   0.250000000   0.433012702  -0.306661924
          2  -0.250000000   0.433012702  -0.306661924
          3   0.250000000  -0.433012702   0.306661924
          4  -0.250000000  -0.433012702   0.306661924
          5   0.500000000   0.000000000  -0.306661924
          6  -0.500000000   0.000000000  -0.306661924

     Diagonalizing the dynamical matrix

     q = (    0.250000000   0.433012702  -0.306661924 ) 

 **************************************************************************
     freq (    1) =       1.927401 [THz] =      64.291179 [cm-1]
     freq (    2) =       1.927401 [THz] =      64.291179 [cm-1]
     freq (    3) =       2.803086 [THz] =      93.500880 [cm-1]
     freq (    4) =       2.803086 [THz] =      93.500880 [cm-1]
     freq (    5) =       3.414225 [THz] =     113.886278 [cm-1]
     freq (    6) =       3.414225 [THz] =     113.886278 [cm-1]
 **************************************************************************
 
     init_run     :      1.60s CPU      1.77s WALL (      11 calls)
     electrons    :    167.49s CPU    170.22s WALL (      11 calls)

     Called by init_run:
     wfcinit      :      0.00s CPU      0.11s WALL (      11 calls)
     potinit      :      0.25s CPU      0.30s WALL (      11 calls)

     Called by electrons:
     c_bands      :    167.44s CPU    170.18s WALL (      11 calls)
     v_of_rho     :      0.12s CPU      0.12s WALL (      12 calls)
     newd         :      0.14s CPU      0.15s WALL (      12 calls)

     Called by c_bands:
     init_us_2    :      3.45s CPU      3.64s WALL (   48251 calls)
     cegterg      :     75.56s CPU     77.15s WALL (    3102 calls)

     Called by sum_band:

     Called by *egterg:
     h_psi        :     44.06s CPU     44.78s WALL (   50033 calls)
     s_psi        :     47.12s CPU     50.08s WALL ( 1184917 calls)
     g_psi        :      0.50s CPU      0.49s WALL (   45319 calls)
     cdiaghg      :     21.31s CPU     21.83s WALL (   46931 calls)

     Called by h_psi:
     add_vuspsi   :     29.48s CPU     30.21s WALL (  596232 calls)

     General routines
     calbec       :     72.35s CPU     76.19s WALL ( 1263571 calls)
     fft          :      2.96s CPU      3.09s WALL (    8991 calls)
     ffts         :     35.17s CPU     35.23s WALL (    7231 calls)
     fftw         :   2153.62s CPU   2183.42s WALL ( 9241274 calls)
     interpolate  :      0.66s CPU      0.67s WALL (    1239 calls)
     davcio       :     10.16s CPU    238.82s WALL (  216380 calls)
 
     Parallel routines
     fft_scatter  :   1807.17s CPU   1822.69s WALL ( 9257496 calls)
 
     PHONON       :     2h 8m CPU        2h18m WALL

     INITIALIZATION: 
     phq_setup    :      0.38s CPU      0.48s WALL (      12 calls)
     phq_init     :     32.85s CPU     51.44s WALL (      12 calls)
 
     phq_init     :     32.85s CPU     51.44s WALL (      12 calls)
     init_vloc    :      0.12s CPU      0.13s WALL (      12 calls)
     init_us_1    :      0.47s CPU      0.47s WALL (      12 calls)
     newd         :      0.14s CPU      0.15s WALL (      12 calls)
     dvanqq       :      1.54s CPU      1.56s WALL (      12 calls)
     drho         :     18.73s CPU     19.10s WALL (      12 calls)
 
     DYNAMICAL MATRIX:
     dynmat0      :      6.57s CPU      6.73s WALL (      12 calls)
     phqscf       :   7406.49s CPU   7954.04s WALL (      12 calls)
     dynmatrix    :     78.99s CPU     80.31s WALL (      12 calls)
 
     phqscf       :   7406.49s CPU   7954.04s WALL (      12 calls)
     solve_linter :   7403.82s CPU   7917.52s WALL (      58 calls)
     drhodv       :      2.53s CPU      2.90s WALL (      58 calls)
 
     dynmat0      :      6.57s CPU      6.73s WALL (      12 calls)
     dynmat_us    :      6.53s CPU      6.59s WALL (      12 calls)
     d2ionq       :      0.04s CPU      0.03s WALL (      12 calls)
 
     dynmat_us    :      6.53s CPU      6.59s WALL (      12 calls)
     addusdynmat  :      0.00s CPU      0.00s WALL (      12 calls)
 
     phqscf       :   7406.49s CPU   7954.04s WALL (      12 calls)
     solve_linter :   7403.82s CPU   7917.52s WALL (      58 calls)
 
     solve_linter :   7403.82s CPU   7917.52s WALL (      58 calls)
     dvqpsi_us    :     46.69s CPU     47.47s WALL (    4932 calls)
     ortho        :     87.80s CPU     89.32s WALL (   42486 calls)
     cgsolve      :    688.49s CPU    716.08s WALL (   42486 calls)
     incdrhoscf   :   1679.18s CPU   1689.63s WALL (   42486 calls)
     addusddens   :      8.26s CPU      8.38s WALL (     535 calls)
     vpsifft      :     44.59s CPU     48.74s WALL (   37554 calls)
     dv_of_drho   :      3.96s CPU      3.95s WALL (     570 calls)
     mix_pot      :     35.75s CPU     87.72s WALL (     477 calls)
     ef_shift     :      0.05s CPU      1.17s WALL (      29 calls)
     localdos     :      1.23s CPU      1.24s WALL (       4 calls)
     psymdvscf    :     28.41s CPU     28.55s WALL (     477 calls)
     newdq        :      7.85s CPU      7.86s WALL (     477 calls)
     adddvscf     :      3.66s CPU      3.88s WALL (   37554 calls)
     drhodvus     :      0.02s CPU      0.07s WALL (      58 calls)
 
     dvqpsi_us    :     46.69s CPU     47.47s WALL (    4932 calls)
     dvqpsi_us_on :      3.77s CPU      3.91s WALL (    4932 calls)
 
     cgsolve      :    688.49s CPU    716.08s WALL (   42486 calls)
     ch_psi       :    664.50s CPU    690.71s WALL (  546199 calls)
 
     ch_psi       :    664.50s CPU    690.71s WALL (  546199 calls)
     h_psiq       :    576.13s CPU    598.16s WALL (  546199 calls)
     last         :     84.33s CPU     88.74s WALL (  546199 calls)
 
     h_psiq       :    576.13s CPU    598.16s WALL (  546199 calls)
     firstfft     :    270.36s CPU    280.66s WALL ( 3476392 calls)
     secondfft    :    198.34s CPU    205.84s WALL ( 3476392 calls)
     add_vuspsi   :     29.48s CPU     30.21s WALL (  596232 calls)
 
     incdrhoscf   :   1679.18s CPU   1689.63s WALL (   42486 calls)
     addusdbec    :      4.61s CPU      4.62s WALL (   47418 calls)
 
     drhodvus     :      0.02s CPU      0.07s WALL (      58 calls)
 
      General routines
     calbec       :     72.35s CPU     76.19s WALL ( 1263571 calls)
     fft          :      2.96s CPU      3.09s WALL (    8991 calls)
     ffts         :     35.17s CPU     35.23s WALL (    7231 calls)
     fftw         :   2153.62s CPU   2183.42s WALL ( 9241274 calls)
     davcio       :     10.16s CPU    238.82s WALL (  216380 calls)
     write_rec    :      0.91s CPU    216.00s WALL (     535 calls)
 
 
     PHONON       :     2h 8m CPU        2h18m WALL

 
   This run was terminated on:  16: 7:26  29Mar2018            

=------------------------------------------------------------------------------=
   JOB DONE.
=------------------------------------------------------------------------------=
Application 30387403 resources: utime ~1495981s, stime ~9766s, Rss ~59396, inblocks ~4218671395, outblocks ~1448261688
