
     Program PWSCF v.5.4.0 starts on 28Mar2018 at 23:49:57 

     This program is part of the open-source Quantum ESPRESSO suite
     for quantum simulation of materials; please cite
         "P. Giannozzi et al., J. Phys.:Condens. Matter 21 395502 (2009);
          URL http://www.quantum-espresso.org", 
     in publications or presentations arising from this work. More details at
     http://www.quantum-espresso.org/quote

     Parallel version (MPI & OpenMP), running on      24 processor cores
     Number of MPI processes:                24
     Threads/MPI process:                     1
     R & G space division:  proc/nbgrp/npool/nimage =      24
     Waiting for input...
     Reading input from standard input

     Current dimensions of program PWSCF are:
     Max number of different atomic species (ntypx) = 10
     Max number of k-points (npk) =  40000
     Max angular momentum in pseudopotentials (lmaxx) =  3

     Subspace diagonalization in iterative solution of the eigenvalue problem:
     one sub-group per band group will be used
     scalapack distributed-memory algorithm (size of sub-group:  3*  3 procs)

 
     Parallelization info
     --------------------
     sticks:   dense  smooth     PW     G-vecs:    dense   smooth      PW
     Min          47      23      6                 2069      721     114
     Max          48      24      7                 2073      742     123
     Sum        1135     559    163                49717    17525    2875
 


     bravais-lattice index     =            4
     lattice parameter (alat)  =       7.1400  a.u.
     unit-cell volume          =     513.9672 (a.u.)^3
     number of atoms/cell      =            2
     number of atomic types    =            1
     number of electrons       =        18.00
     number of Kohn-Sham states=           13
     kinetic-energy cutoff     =      40.0000  Ry
     charge density cutoff     =     320.0000  Ry
     convergence threshold     =      1.0E-10
     mixing beta               =       0.7000
     number of iterations used =            8  plain     mixing
     Exchange-correlation      = SLA  PW   PBE  PBE ( 1  4  3  4 0 0)

     celldm(1)=   7.140000  celldm(2)=   0.000000  celldm(3)=   1.630460
     celldm(4)=   0.000000  celldm(5)=   0.000000  celldm(6)=   0.000000

     crystal axes: (cart. coord. in units of alat)
               a(1) = (   1.000000   0.000000   0.000000 )  
               a(2) = (  -0.500000   0.866025   0.000000 )  
               a(3) = (   0.000000   0.000000   1.630460 )  

     reciprocal axes: (cart. coord. in units 2 pi/alat)
               b(1) = (  1.000000  0.577350  0.000000 )  
               b(2) = (  0.000000  1.154701  0.000000 )  
               b(3) = (  0.000000  0.000000  0.613324 )  


     PseudoPot. # 1 for Na read from file:
     ./Na_pbe_v1.uspp.F.UPF
     MD5 check sum: 76a99c7e9422403d3e93cbc85ab7bccb
     Pseudo is Ultrasoft, Zval =  9.0
     Generated by new atomic code, or converted to UPF format
     Using radial grid of  819 points,  5 beta functions with: 
                l(1) =   0
                l(2) =   0
                l(3) =   1
                l(4) =   1
                l(5) =   2
     Q(r) pseudized with  8 coefficients,  rinner =    1.250   1.250   1.250
                                                       1.250   1.250

     atomic species   valence    mass     pseudopotential
        Na             9.00    22.99000     Na( 1.00)

     24 Sym. Ops., with inversion, found (12 have fractional translation)



   Cartesian axes

     site n.     atom                  positions (alat units)
         1           Na  tau(   1) = (   0.0000000   0.0000000   0.0000000  )
         2           Na  tau(   2) = (   0.4999999   0.2886751   0.8152300  )

     number of k points=   366  Marzari-Vanderbilt smearing, width (Ry)=  0.0200

     Number of k-points >= 100: set verbosity='high' to print them.

     Dense  grid:    49717 G-vectors     FFT dimensions: (  45,  45,  72)

     Smooth grid:    17525 G-vectors     FFT dimensions: (  30,  30,  48)

     Largest allocated arrays     est. size (Mb)     dimensions
        Kohn-Sham Wavefunctions         0.02 Mb     (     103,   13)
        NL pseudopotentials             0.04 Mb     (     103,   26)
        Each V/rho on FFT grid          0.09 Mb     (    6075)
        Each G-vector array             0.02 Mb     (    2071)
        G-vector shells                 0.01 Mb     (     918)
     Largest temporary arrays     est. size (Mb)     dimensions
        Auxiliary wavefunctions         0.08 Mb     (     103,   52)
        Each subspace H/S matrix        0.00 Mb     (      17,   17)
        Each <psi_i|beta_j> matrix      0.01 Mb     (      26,   13)
        Arrays for rho mixing           0.74 Mb     (    6075,    8)

     Initial potential from superposition of free atoms

     starting charge   17.98742, renormalised to   18.00000
     Starting wfc are   10 randomized atomic wfcs +    3 random wfc

     total cpu time spent up to now is        1.2 secs

     per-process dynamical memory:    12.6 Mb

     Self-consistent Calculation

     iteration #  1     ecut=    40.00 Ry     beta=0.70
     Davidson diagonalization with overlap
     ethr =  1.00E-02,  avg # of iterations =  6.0

     Threshold (ethr) on eigenvalues was too large:
     Diagonalizing with lowered threshold

     Davidson diagonalization with overlap
     ethr =  9.24E-06,  avg # of iterations =  6.9

     total cpu time spent up to now is       15.8 secs

     total energy              =    -190.21288968 Ry
     Harris-Foulkes estimate   =    -190.21324867 Ry
     estimated scf accuracy    <       0.00171668 Ry

     iteration #  2     ecut=    40.00 Ry     beta=0.70
     Davidson diagonalization with overlap
     ethr =  9.54E-06,  avg # of iterations =  2.0

     total cpu time spent up to now is       19.2 secs

     total energy              =    -190.21307331 Ry
     Harris-Foulkes estimate   =    -190.21310922 Ry
     estimated scf accuracy    <       0.00018304 Ry

     iteration #  3     ecut=    40.00 Ry     beta=0.70
     Davidson diagonalization with overlap
     ethr =  1.02E-06,  avg # of iterations =  2.0

     total cpu time spent up to now is       22.8 secs

     total energy              =    -190.21309131 Ry
     Harris-Foulkes estimate   =    -190.21309369 Ry
     estimated scf accuracy    <       0.00001152 Ry

     iteration #  4     ecut=    40.00 Ry     beta=0.70
     Davidson diagonalization with overlap
     ethr =  6.40E-08,  avg # of iterations =  2.0

     total cpu time spent up to now is       26.1 secs

     total energy              =    -190.21309254 Ry
     Harris-Foulkes estimate   =    -190.21309245 Ry
     estimated scf accuracy    <       0.00000002 Ry

     iteration #  5     ecut=    40.00 Ry     beta=0.70
     Davidson diagonalization with overlap
     ethr =  1.30E-10,  avg # of iterations =  3.2

     total cpu time spent up to now is       30.8 secs

     total energy              =    -190.21309260 Ry
     Harris-Foulkes estimate   =    -190.21309260 Ry
     estimated scf accuracy    <          2.5E-09 Ry

     iteration #  6     ecut=    40.00 Ry     beta=0.70
     Davidson diagonalization with overlap
     ethr =  1.37E-11,  avg # of iterations =  1.8

     total cpu time spent up to now is       33.9 secs

     total energy              =    -190.21309261 Ry
     Harris-Foulkes estimate   =    -190.21309260 Ry
     estimated scf accuracy    <          1.1E-10 Ry

     iteration #  7     ecut=    40.00 Ry     beta=0.70
     Davidson diagonalization with overlap
     ethr =  6.08E-13,  avg # of iterations =  1.8

     total cpu time spent up to now is       37.0 secs

     End of self-consistent calculation

     Number of k-points >= 100: set verbosity='high' to print the bands.

     the Fermi energy is     1.4938 ev

!    total energy              =    -190.21309261 Ry
     Harris-Foulkes estimate   =    -190.21309261 Ry
     estimated scf accuracy    <          4.2E-12 Ry

     The total energy is the sum of the following terms:

     one-electron contribution =    -177.46230493 Ry
     hartree contribution      =      89.37235049 Ry
     xc contribution           =     -28.53023962 Ry
     ewald contribution        =     -73.59277146 Ry
     smearing contrib. (-TS)   =      -0.00012709 Ry

     convergence has been achieved in   7 iterations


     entering subroutine stress ...

          total   stress  (Ry/bohr**3)                   (kbar)     P=   -4.65
  -0.00003179   0.00000000   0.00000000         -4.68      0.00      0.00
   0.00000000  -0.00003179   0.00000000          0.00     -4.68      0.00
  -0.00000000  -0.00000000  -0.00003124         -0.00     -0.00     -4.60


     Writing output data file na_hcp_7.14.save
 
     init_run     :      1.02s CPU      1.05s WALL (       1 calls)
     electrons    :     34.90s CPU     35.81s WALL (       1 calls)
     stress       :      0.29s CPU      0.29s WALL (       1 calls)

     Called by init_run:
     wfcinit      :      0.95s CPU      0.98s WALL (       1 calls)
     potinit      :      0.01s CPU      0.01s WALL (       1 calls)

     Called by electrons:
     c_bands      :     32.64s CPU     33.44s WALL (       8 calls)
     sum_band     :      2.20s CPU      2.29s WALL (       8 calls)
     v_of_rho     :      0.03s CPU      0.03s WALL (       8 calls)
     newd         :      0.04s CPU      0.03s WALL (       8 calls)
     mix_rho      :      0.00s CPU      0.00s WALL (       8 calls)

     Called by c_bands:
     init_us_2    :      0.20s CPU      0.19s WALL (    6588 calls)
     cegterg      :     32.13s CPU     32.75s WALL (    2928 calls)

     Called by sum_band:
     sum_band:bec :      0.02s CPU      0.03s WALL (    2928 calls)
     addusdens    :      0.06s CPU      0.04s WALL (       8 calls)

     Called by *egterg:
     h_psi        :     10.09s CPU     10.37s WALL (   12718 calls)
     s_psi        :      0.26s CPU      0.27s WALL (   12718 calls)
     g_psi        :      0.04s CPU      0.05s WALL (    9424 calls)
     cdiaghg      :     19.50s CPU     19.74s WALL (   11986 calls)

     Called by h_psi:
     add_vuspsi   :      0.26s CPU      0.30s WALL (   12718 calls)

     General routines
     calbec       :      0.72s CPU      0.80s WALL (   16012 calls)
     fft          :      0.00s CPU      0.02s WALL (     133 calls)
     ffts         :      0.00s CPU      0.00s WALL (      16 calls)
     fftw         :      9.67s CPU      9.83s WALL (  242002 calls)
     interpolate  :      0.00s CPU      0.00s WALL (      16 calls)
 
     Parallel routines
     fft_scatter  :      5.46s CPU      5.62s WALL (  242151 calls)
 
     PWSCF        :    37.82s CPU        46.47s WALL

 
   This run was terminated on:  23:50:44  28Mar2018            

=------------------------------------------------------------------------------=
   JOB DONE.
=------------------------------------------------------------------------------=
Application 30384975 resources: utime ~1090s, stime ~19s, Rss ~41876, inblocks ~180122, outblocks ~536092
