
     Program PHONON v.5.4.0 starts on 27Mar2018 at  1:46:16 

     This program is part of the open-source Quantum ESPRESSO suite
     for quantum simulation of materials; please cite
         "P. Giannozzi et al., J. Phys.:Condens. Matter 21 395502 (2009);
          URL http://www.quantum-espresso.org", 
     in publications or presentations arising from this work. More details at
     http://www.quantum-espresso.org/quote

     Parallel version (MPI & OpenMP), running on     192 processor cores
     Number of MPI processes:               192
     Threads/MPI process:                     1
     K-points division:     npool     =      24
     R & G space division:  proc/nbgrp/npool/nimage =       8

     Reading data from directory:
     ./na_hcp_6.98348186215975/na_hcp_6.98348186215975.save

   Info: using nr1, nr2, nr3 values from input

   Info: using nr1, nr2, nr3 values from input

     IMPORTANT: XC functional enforced from input :
     Exchange-correlation      = SLA  PW   PBE  PBE ( 1  4  3  4 0 0)
     Any further DFT definition will be discarded
     Please, verify this is what you really want

 
     Parallelization info
     --------------------
     sticks:   dense  smooth     PW     G-vecs:    dense   smooth      PW
     Min         133      68     20                 5813     2041     346
     Max         134      69     21                 5820     2054     351
     Sum        1069     547    163                46541    16395    2779
 


     Dynamical matrices for ( 4, 4, 4)  uniform grid of q-points
     (  12q-points):
       N         xq(1)         xq(2)         xq(3) 
       1   0.000000000   0.000000000   0.000000000
       2   0.000000000   0.000000000   0.153214289
       3   0.000000000   0.000000000  -0.306428577
       4   0.000000000   0.288675135   0.000000000
       5   0.000000000   0.288675135   0.153214289
       6   0.000000000   0.288675135  -0.306428577
       7   0.000000000  -0.577350269   0.000000000
       8   0.000000000  -0.577350269   0.153214289
       9   0.000000000  -0.577350269  -0.306428577
      10   0.250000000   0.433012702   0.000000000
      11   0.250000000   0.433012702   0.153214289
      12   0.250000000   0.433012702  -0.306428577

     Calculation of q =    0.0000000   0.0000000   0.0000000

                                                                                

     bravais-lattice index     =            4
     lattice parameter (alat)  =       6.9835  a.u.
     unit-cell volume          =     481.2685 (a.u.)^3
     number of atoms/cell      =            2
     number of atomic types    =            1
     kinetic-energy cut-off    =      40.0000  Ry
     charge density cut-off    =     320.0000  Ry
     convergence threshold     =      1.0E-15
     beta                      =       0.7000
     number of iterations used =            4
     Exchange-correlation      = SLA  PW   PBE  PBE ( 1  4  3  4 0 0)


     celldm(1)=    6.98348  celldm(2)=    0.00000  celldm(3)=    1.63170
     celldm(4)=    0.00000  celldm(5)=    0.00000  celldm(6)=    0.00000

     crystal axes: (cart. coord. in units of alat)
               a(1) = (  1.0000  0.0000  0.0000 )  
               a(2) = ( -0.5000  0.8660  0.0000 )  
               a(3) = (  0.0000  0.0000  1.6317 )  

     reciprocal axes: (cart. coord. in units 2 pi/alat)
               b(1) = (  1.0000  0.5774  0.0000 )  
               b(2) = (  0.0000  1.1547  0.0000 )  
               b(3) = (  0.0000  0.0000  0.6129 )  


     Atoms inside the unit cell: 

     Cartesian axes

     site n.  atom      mass           positions (alat units)
        1     Na  22.9900   tau(    1) = (    0.00000    0.00000    0.00000  )
        2     Na  22.9900   tau(    2) = (    0.50000    0.28868    0.81585  )

     Computing dynamical matrix for 
                    q = (   0.0000000   0.0000000   0.0000000 )
 
     13 Sym.Ops. (with q -> -q+G )


     G cutoff =  395.3068  (   5815 G-vectors)     FFT grid: ( 40, 40, 72)
     G cutoff =  197.6534  (   2054 G-vectors)  smooth grid: ( 30, 30, 45)

     number of k points=   366  Marzari-Vanderbilt smearing, width (Ry)=  0.0200

     PseudoPot. # 1 for Na read from file:
     ./Na_pbe_v1.uspp.F.UPF
     MD5 check sum: 76a99c7e9422403d3e93cbc85ab7bccb
     Pseudo is Ultrasoft, Zval =  9.0
     Generated by new atomic code, or converted to UPF format
     Using radial grid of  819 points,  5 beta functions with: 
                l(1) =   0
                l(2) =   0
                l(3) =   1
                l(4) =   1
                l(5) =   2
     Q(r) pseudized with  8 coefficients,  rinner =    1.250   1.250   1.250
                                                       1.250   1.250

     Mode symmetry, D_3h (-62m) point group:


     Atomic displacements:
     There are   4 irreducible representations

     Representation     1      2 modes -E'  To be done

     Representation     2      2 modes -E'  To be done

     Representation     3      1 modes -A''2  To be done

     Representation     4      1 modes -A''2  To be done



     Alpha used in Ewald sum =   2.8000
     PHONON       :     5.38s CPU         8.31s WALL



     Representation #  1 modes #   1  2

     Self-consistent Calculation
 
     Pert. #  1: Fermi energy shift (Ry) =     0.0000E+00     0.0000E+00
     Pert. #  2: Fermi energy shift (Ry) =    -2.5298E-19     0.0000E+00

      iter #   1 total cpu time :     9.6 secs   av.it.:   5.2
      thresh= 1.000E-02 alpha_mix =  0.700 |ddv_scf|^2 =  9.430E-07
 
     Pert. #  1: Fermi energy shift (Ry) =     0.0000E+00     0.0000E+00
     Pert. #  2: Fermi energy shift (Ry) =    -4.0658E-20     0.0000E+00

      iter #   2 total cpu time :    11.6 secs   av.it.:   8.7
      thresh= 9.711E-05 alpha_mix =  0.700 |ddv_scf|^2 =  1.691E-08
 
     Pert. #  1: Fermi energy shift (Ry) =     0.0000E+00     0.0000E+00
     Pert. #  2: Fermi energy shift (Ry) =     2.8234E-21     0.0000E+00

      iter #   3 total cpu time :    13.6 secs   av.it.:   8.9
      thresh= 1.300E-05 alpha_mix =  0.700 |ddv_scf|^2 =  4.420E-10
 
     Pert. #  1: Fermi energy shift (Ry) =     0.0000E+00     0.0000E+00
     Pert. #  2: Fermi energy shift (Ry) =     7.3410E-21     0.0000E+00

      iter #   4 total cpu time :    15.9 secs   av.it.:   8.4
      thresh= 2.102E-06 alpha_mix =  0.700 |ddv_scf|^2 =  1.553E-12
 
     Pert. #  1: Fermi energy shift (Ry) =     0.0000E+00     0.0000E+00
     Pert. #  2: Fermi energy shift (Ry) =     0.0000E+00     0.0000E+00

      iter #   5 total cpu time :    17.6 secs   av.it.:   8.9
      thresh= 1.246E-07 alpha_mix =  0.700 |ddv_scf|^2 =  5.855E-15
 
     Pert. #  1: Fermi energy shift (Ry) =     1.1294E-21     0.0000E+00
     Pert. #  2: Fermi energy shift (Ry) =    -4.5175E-21     0.0000E+00

      iter #   6 total cpu time :    20.2 secs   av.it.:   8.6
      thresh= 7.652E-09 alpha_mix =  0.700 |ddv_scf|^2 =  1.051E-16

     End of self-consistent calculation

     Convergence has been achieved 


     Representation #  2 modes #   3  4

     Self-consistent Calculation
 
     Pert. #  1: Fermi energy shift (Ry) =    -4.3368E-19     0.0000E+00
     Pert. #  2: Fermi energy shift (Ry) =     0.0000E+00     0.0000E+00

      iter #   1 total cpu time :    22.2 secs   av.it.:   5.2
      thresh= 1.000E-02 alpha_mix =  0.700 |ddv_scf|^2 =  9.430E-07
 
     Pert. #  1: Fermi energy shift (Ry) =    -3.6140E-20     0.0000E+00
     Pert. #  2: Fermi energy shift (Ry) =     4.5175E-20     0.0000E+00

      iter #   2 total cpu time :    24.1 secs   av.it.:   8.7
      thresh= 9.711E-05 alpha_mix =  0.700 |ddv_scf|^2 =  1.691E-08
 
     Pert. #  1: Fermi energy shift (Ry) =    -6.7763E-21    -4.7831E-42
     Pert. #  2: Fermi energy shift (Ry) =    -4.5175E-21     0.0000E+00

      iter #   3 total cpu time :    26.4 secs   av.it.:   8.9
      thresh= 1.300E-05 alpha_mix =  0.700 |ddv_scf|^2 =  4.432E-10
 
     Pert. #  1: Fermi energy shift (Ry) =    -4.5175E-21     7.6530E-41
     Pert. #  2: Fermi energy shift (Ry) =    -3.9528E-21     0.0000E+00

      iter #   4 total cpu time :    28.2 secs   av.it.:   8.5
      thresh= 2.105E-06 alpha_mix =  0.700 |ddv_scf|^2 =  1.546E-12
 
     Pert. #  1: Fermi energy shift (Ry) =    -3.3881E-21    -1.1958E-42
     Pert. #  2: Fermi energy shift (Ry) =     0.0000E+00     0.0000E+00

      iter #   5 total cpu time :    30.0 secs   av.it.:   8.9
      thresh= 1.243E-07 alpha_mix =  0.700 |ddv_scf|^2 =  5.858E-15
 
     Pert. #  1: Fermi energy shift (Ry) =    -3.3881E-21    -2.3915E-42
     Pert. #  2: Fermi energy shift (Ry) =    -3.3881E-21     0.0000E+00

      iter #   6 total cpu time :    32.4 secs   av.it.:   8.7
      thresh= 7.654E-09 alpha_mix =  0.700 |ddv_scf|^2 =  1.052E-16

     End of self-consistent calculation

     Convergence has been achieved 


     Representation #  3 mode #   5

     Self-consistent Calculation
 
     Pert. #  1: Fermi energy shift (Ry) =     0.0000E+00     0.0000E+00

      iter #   1 total cpu time :    34.2 secs   av.it.:   5.5
      thresh= 1.000E-02 alpha_mix =  0.700 |ddv_scf|^2 =  2.043E-05
 
     Pert. #  1: Fermi energy shift (Ry) =     0.0000E+00     0.0000E+00

      iter #   2 total cpu time :    36.0 secs   av.it.:   8.0
      thresh= 4.520E-04 alpha_mix =  0.700 |ddv_scf|^2 =  1.147E-05
 
     Pert. #  1: Fermi energy shift (Ry) =     5.6469E-22     0.0000E+00

      iter #   3 total cpu time :    36.9 secs   av.it.:   7.0
      thresh= 3.386E-04 alpha_mix =  0.700 |ddv_scf|^2 =  1.917E-08
 
     Pert. #  1: Fermi energy shift (Ry) =    -1.4117E-22     0.0000E+00

      iter #   4 total cpu time :    38.2 secs   av.it.:   8.4
      thresh= 1.385E-05 alpha_mix =  0.700 |ddv_scf|^2 =  4.000E-10
 
     Pert. #  1: Fermi energy shift (Ry) =     2.8234E-22     0.0000E+00

      iter #   5 total cpu time :    39.5 secs   av.it.:   7.9
      thresh= 2.000E-06 alpha_mix =  0.700 |ddv_scf|^2 =  3.087E-12
 
     Pert. #  1: Fermi energy shift (Ry) =    -2.8234E-22     0.0000E+00

      iter #   6 total cpu time :    41.0 secs   av.it.:   8.0
      thresh= 1.757E-07 alpha_mix =  0.700 |ddv_scf|^2 =  3.152E-14
 
     Pert. #  1: Fermi energy shift (Ry) =     2.8234E-22     0.0000E+00

      iter #   7 total cpu time :    42.5 secs   av.it.:   8.2
      thresh= 1.775E-08 alpha_mix =  0.700 |ddv_scf|^2 =  6.033E-16

     End of self-consistent calculation

     Convergence has been achieved 


     Representation #  4 mode #   6

     Self-consistent Calculation
 
     Pert. #  1: Fermi energy shift (Ry) =     0.0000E+00     0.0000E+00

      iter #   1 total cpu time :    43.3 secs   av.it.:   5.5
      thresh= 1.000E-02 alpha_mix =  0.700 |ddv_scf|^2 =  2.043E-05
 
     Pert. #  1: Fermi energy shift (Ry) =    -1.1294E-21     0.0000E+00

      iter #   2 total cpu time :    43.8 secs   av.it.:   8.0
      thresh= 4.520E-04 alpha_mix =  0.700 |ddv_scf|^2 =  1.147E-05
 
     Pert. #  1: Fermi energy shift (Ry) =     5.6469E-22     0.0000E+00

      iter #   3 total cpu time :    44.3 secs   av.it.:   7.0
      thresh= 3.386E-04 alpha_mix =  0.700 |ddv_scf|^2 =  1.917E-08
 
     Pert. #  1: Fermi energy shift (Ry) =    -1.4117E-22     0.0000E+00

      iter #   4 total cpu time :    44.8 secs   av.it.:   8.4
      thresh= 1.385E-05 alpha_mix =  0.700 |ddv_scf|^2 =  4.001E-10
 
     Pert. #  1: Fermi energy shift (Ry) =    -2.8234E-22     0.0000E+00

      iter #   5 total cpu time :    45.3 secs   av.it.:   7.9
      thresh= 2.000E-06 alpha_mix =  0.700 |ddv_scf|^2 =  3.087E-12
 
     Pert. #  1: Fermi energy shift (Ry) =    -2.8234E-22     0.0000E+00

      iter #   6 total cpu time :    45.8 secs   av.it.:   8.0
      thresh= 1.757E-07 alpha_mix =  0.700 |ddv_scf|^2 =  3.152E-14
 
     Pert. #  1: Fermi energy shift (Ry) =    -2.8234E-22     0.0000E+00

      iter #   7 total cpu time :    46.4 secs   av.it.:   8.2
      thresh= 1.775E-08 alpha_mix =  0.700 |ddv_scf|^2 =  6.032E-16

     End of self-consistent calculation

     Convergence has been achieved 
 
     Number of q in the star =    1
     List of q in the star:
          1   0.000000000   0.000000000   0.000000000

     Diagonalizing the dynamical matrix

     q = (    0.000000000   0.000000000   0.000000000 ) 

 **************************************************************************
     freq (    1) =      -0.544944 [THz] =     -18.177373 [cm-1]
     freq (    2) =      -0.544944 [THz] =     -18.177373 [cm-1]
     freq (    3) =       0.583817 [THz] =      19.474045 [cm-1]
     freq (    4) =       1.681159 [THz] =      56.077432 [cm-1]
     freq (    5) =       1.681159 [THz] =      56.077432 [cm-1]
     freq (    6) =       4.063001 [THz] =     135.527135 [cm-1]
 **************************************************************************

     Mode symmetry, D_3h (-62m) point group:

     freq (  1 -  2) =        -18.2  [cm-1]   --> E'              I+R
     freq (  3 -  3) =         19.5  [cm-1]   --> A''2            I  
     freq (  4 -  5) =         56.1  [cm-1]   --> E'              I+R
     freq (  6 -  6) =        135.5  [cm-1]   --> A''2            I  

     Calculation of q =    0.0000000   0.0000000   0.1532143
 
     Parallelization info
     --------------------
     sticks:   dense  smooth     PW     G-vecs:    dense   smooth      PW
     Min         133      68     20                 5813     2041     348
     Max         134      69     21                 5820     2054     355
     Sum        1069     547    163                46541    16395    2803
 


     bravais-lattice index     =            4
     lattice parameter (alat)  =       6.9835  a.u.
     unit-cell volume          =     481.2685 (a.u.)^3
     number of atoms/cell      =            2
     number of atomic types    =            1
     number of electrons       =        18.00
     number of Kohn-Sham states=           13
     kinetic-energy cutoff     =      40.0000  Ry
     charge density cutoff     =     320.0000  Ry
     Exchange-correlation      = SLA  PW   PBE  PBE ( 1  4  3  4 0 0)

     celldm(1)=   6.983482  celldm(2)=   0.000000  celldm(3)=   1.631702
     celldm(4)=   0.000000  celldm(5)=   0.000000  celldm(6)=   0.000000

     crystal axes: (cart. coord. in units of alat)
               a(1) = (   1.000000   0.000000   0.000000 )  
               a(2) = (  -0.500000   0.866025   0.000000 )  
               a(3) = (   0.000000   0.000000   1.631702 )  

     reciprocal axes: (cart. coord. in units 2 pi/alat)
               b(1) = (  1.000000  0.577350  0.000000 )  
               b(2) = (  0.000000  1.154701  0.000000 )  
               b(3) = (  0.000000  0.000000  0.612857 )  


     PseudoPot. # 1 for Na read from file:
     ./Na_pbe_v1.uspp.F.UPF
     MD5 check sum: 76a99c7e9422403d3e93cbc85ab7bccb
     Pseudo is Ultrasoft, Zval =  9.0
     Generated by new atomic code, or converted to UPF format
     Using radial grid of  819 points,  5 beta functions with: 
                l(1) =   0
                l(2) =   0
                l(3) =   1
                l(4) =   1
                l(5) =   2
     Q(r) pseudized with  8 coefficients,  rinner =    1.250   1.250   1.250
                                                       1.250   1.250

     atomic species   valence    mass     pseudopotential
        Na             9.00    22.99000     Na( 1.00)

     12 Sym. Ops. (no inversion) found



   Cartesian axes

     site n.     atom                  positions (alat units)
         1           Na  tau(   1) = (   0.0000000   0.0000000   0.0000000  )
         2           Na  tau(   2) = (   0.4999999   0.2886751   0.8158508  )

     number of k points=  2616  Marzari-Vanderbilt smearing, width (Ry)=  0.0200

     Number of k-points >= 100: set verbosity='high' to print them.

     Dense  grid:    46541 G-vectors     FFT dimensions: (  40,  40,  72)

     Smooth grid:    16395 G-vectors     FFT dimensions: (  30,  30,  45)

     Largest allocated arrays     est. size (Mb)     dimensions
        Kohn-Sham Wavefunctions         0.05 Mb     (     272,   13)
        NL pseudopotentials             0.11 Mb     (     272,   26)
        Each V/rho on FFT grid          0.22 Mb     (   14400)
        Each G-vector array             0.04 Mb     (    5815)
        G-vector shells                 0.01 Mb     (    1718)
     Largest temporary arrays     est. size (Mb)     dimensions
        Auxiliary wavefunctions         0.22 Mb     (     272,   52)
        Each subspace H/S matrix        0.01 Mb     (      26,   26)
        Each <psi_i|beta_j> matrix      0.01 Mb     (      26,   13)

     The potential is recalculated from file :
     ./na_hcp_6.98348186215975/_ph0/na_hcp_6.98348186215975.save/charge-density.dat

     Starting wfc are   10 atomic +    3 random wfc

     Band Structure Calculation
     Davidson diagonalization with overlap

     ethr =  5.56E-11,  avg # of iterations = 23.1

     total cpu time spent up to now is        8.0 secs

     End of band structure calculation

     Number of k-points >= 100: set verbosity='high' to print the bands.

     the Fermi energy is     1.7689 ev

     Writing output data file na_hcp_6.98348186215975.save

                                                                                

     bravais-lattice index     =            4
     lattice parameter (alat)  =       6.9835  a.u.
     unit-cell volume          =     481.2685 (a.u.)^3
     number of atoms/cell      =            2
     number of atomic types    =            1
     kinetic-energy cut-off    =      40.0000  Ry
     charge density cut-off    =     320.0000  Ry
     convergence threshold     =      1.0E-15
     beta                      =       0.7000
     number of iterations used =            4
     Exchange-correlation      = SLA  PW   PBE  PBE ( 1  4  3  4 0 0)


     celldm(1)=    6.98348  celldm(2)=    0.00000  celldm(3)=    1.63170
     celldm(4)=    0.00000  celldm(5)=    0.00000  celldm(6)=    0.00000

     crystal axes: (cart. coord. in units of alat)
               a(1) = (  1.0000  0.0000  0.0000 )  
               a(2) = ( -0.5000  0.8660  0.0000 )  
               a(3) = (  0.0000  0.0000  1.6317 )  

     reciprocal axes: (cart. coord. in units 2 pi/alat)
               b(1) = (  1.0000  0.5774  0.0000 )  
               b(2) = (  0.0000  1.1547  0.0000 )  
               b(3) = (  0.0000  0.0000  0.6129 )  


     Atoms inside the unit cell: 

     Cartesian axes

     site n.  atom      mass           positions (alat units)
        1     Na  22.9900   tau(    1) = (    0.00000    0.00000    0.00000  )
        2     Na  22.9900   tau(    2) = (    0.50000    0.28868    0.81585  )

     Computing dynamical matrix for 
                    q = (   0.0000000   0.0000000   0.1532143 )
 
      6 Sym.Ops. (no q -> -q+G )


     G cutoff =  395.3068  (   5815 G-vectors)     FFT grid: ( 40, 40, 72)
     G cutoff =  197.6534  (   2054 G-vectors)  smooth grid: ( 30, 30, 45)

     number of k points=  2616  Marzari-Vanderbilt smearing, width (Ry)=  0.0200

     PseudoPot. # 1 for Na read from file:
     ./Na_pbe_v1.uspp.F.UPF
     MD5 check sum: 76a99c7e9422403d3e93cbc85ab7bccb
     Pseudo is Ultrasoft, Zval =  9.0
     Generated by new atomic code, or converted to UPF format
     Using radial grid of  819 points,  5 beta functions with: 
                l(1) =   0
                l(2) =   0
                l(3) =   1
                l(4) =   1
                l(5) =   2
     Q(r) pseudized with  8 coefficients,  rinner =    1.250   1.250   1.250
                                                       1.250   1.250

     Mode symmetry, C_3v (3m)   point group:


     Atomic displacements:
     There are   4 irreducible representations

     Representation     1      1 modes -A_1  L_1  To be done

     Representation     2      1 modes -A_1  L_1  To be done

     Representation     3      2 modes -E    L_3  To be done

     Representation     4      2 modes -E    L_3  To be done



     Alpha used in Ewald sum =   2.8000
     PHONON       :    48.68s CPU        58.73s WALL



     Representation #  1 mode #   1

     Self-consistent Calculation

      iter #   1 total cpu time :    60.0 secs   av.it.:   5.8
      thresh= 1.000E-02 alpha_mix =  0.700 |ddv_scf|^2 =  3.083E-02

      iter #   2 total cpu time :    70.1 secs   av.it.:   6.8
      thresh= 1.000E-02 alpha_mix =  0.700 |ddv_scf|^2 =  1.690E+01

      iter #   3 total cpu time :    81.2 secs   av.it.:   6.7
      thresh= 1.000E-02 alpha_mix =  0.700 |ddv_scf|^2 =  2.007E-04

      iter #   4 total cpu time :    88.9 secs   av.it.:   7.3
      thresh= 1.417E-03 alpha_mix =  0.700 |ddv_scf|^2 =  3.613E-04

      iter #   5 total cpu time :    92.8 secs   av.it.:   6.4
      thresh= 1.901E-03 alpha_mix =  0.700 |ddv_scf|^2 =  1.262E-08

      iter #   6 total cpu time :    95.3 secs   av.it.:   8.3
      thresh= 1.123E-05 alpha_mix =  0.700 |ddv_scf|^2 =  2.522E-09

      iter #   7 total cpu time :   100.0 secs   av.it.:   7.4
      thresh= 5.022E-06 alpha_mix =  0.700 |ddv_scf|^2 =  2.613E-07

      iter #   8 total cpu time :   104.5 secs   av.it.:   5.2
      thresh= 5.112E-05 alpha_mix =  0.700 |ddv_scf|^2 =  4.153E-10

      iter #   9 total cpu time :   108.3 secs   av.it.:   7.4
      thresh= 2.038E-06 alpha_mix =  0.700 |ddv_scf|^2 =  6.458E-09

      iter #  10 total cpu time :   112.6 secs   av.it.:   6.0
      thresh= 8.036E-06 alpha_mix =  0.700 |ddv_scf|^2 =  2.362E-12

      iter #  11 total cpu time :   117.7 secs   av.it.:   8.0
      thresh= 1.537E-07 alpha_mix =  0.700 |ddv_scf|^2 =  1.320E-12

      iter #  12 total cpu time :   122.3 secs   av.it.:   7.1
      thresh= 1.149E-07 alpha_mix =  0.700 |ddv_scf|^2 =  4.355E-14

      iter #  13 total cpu time :   127.1 secs   av.it.:   8.4
      thresh= 2.087E-08 alpha_mix =  0.700 |ddv_scf|^2 =  6.308E-13

      iter #  14 total cpu time :   130.3 secs   av.it.:   4.3
      thresh= 7.942E-08 alpha_mix =  0.700 |ddv_scf|^2 =  4.592E-14

      iter #  15 total cpu time :   138.9 secs   av.it.:   7.3
      thresh= 2.143E-08 alpha_mix =  0.700 |ddv_scf|^2 =  9.037E-15

      iter #  16 total cpu time :   156.8 secs   av.it.:   6.1
      thresh= 9.506E-09 alpha_mix =  0.700 |ddv_scf|^2 =  6.110E-15

      iter #  17 total cpu time :   165.5 secs   av.it.:   6.7
      thresh= 7.817E-09 alpha_mix =  0.700 |ddv_scf|^2 =  3.147E-17

     End of self-consistent calculation

     Convergence has been achieved 


     Representation #  2 mode #   2

     Self-consistent Calculation

      iter #   1 total cpu time :   174.3 secs   av.it.:   5.8
      thresh= 1.000E-02 alpha_mix =  0.700 |ddv_scf|^2 =  3.083E-02

      iter #   2 total cpu time :   179.2 secs   av.it.:   6.8
      thresh= 1.000E-02 alpha_mix =  0.700 |ddv_scf|^2 =  1.690E+01

      iter #   3 total cpu time :   183.6 secs   av.it.:   6.7
      thresh= 1.000E-02 alpha_mix =  0.700 |ddv_scf|^2 =  2.007E-04

      iter #   4 total cpu time :   187.8 secs   av.it.:   7.3
      thresh= 1.417E-03 alpha_mix =  0.700 |ddv_scf|^2 =  3.613E-04

      iter #   5 total cpu time :   192.0 secs   av.it.:   6.4
      thresh= 1.901E-03 alpha_mix =  0.700 |ddv_scf|^2 =  1.262E-08

      iter #   6 total cpu time :   196.6 secs   av.it.:   8.3
      thresh= 1.123E-05 alpha_mix =  0.700 |ddv_scf|^2 =  1.247E-08

      iter #   7 total cpu time :   200.7 secs   av.it.:   5.8
      thresh= 1.117E-05 alpha_mix =  0.700 |ddv_scf|^2 =  1.164E-07

      iter #   8 total cpu time :   204.5 secs   av.it.:   6.2
      thresh= 3.412E-05 alpha_mix =  0.700 |ddv_scf|^2 =  3.879E-10

      iter #   9 total cpu time :   208.9 secs   av.it.:   7.4
      thresh= 1.970E-06 alpha_mix =  0.700 |ddv_scf|^2 =  6.276E-09

      iter #  10 total cpu time :   213.3 secs   av.it.:   6.0
      thresh= 7.922E-06 alpha_mix =  0.700 |ddv_scf|^2 =  2.378E-12

      iter #  11 total cpu time :   217.0 secs   av.it.:   8.0
      thresh= 1.542E-07 alpha_mix =  0.700 |ddv_scf|^2 =  9.073E-13

      iter #  12 total cpu time :   221.1 secs   av.it.:   7.2
      thresh= 9.525E-08 alpha_mix =  0.700 |ddv_scf|^2 =  5.588E-14

      iter #  13 total cpu time :   225.1 secs   av.it.:   8.3
      thresh= 2.364E-08 alpha_mix =  0.700 |ddv_scf|^2 =  3.606E-12

      iter #  14 total cpu time :   228.3 secs   av.it.:   3.9
      thresh= 1.899E-07 alpha_mix =  0.700 |ddv_scf|^2 =  1.022E-14

      iter #  15 total cpu time :   231.9 secs   av.it.:   7.9
      thresh= 1.011E-08 alpha_mix =  0.700 |ddv_scf|^2 =  1.028E-14

      iter #  16 total cpu time :   236.0 secs   av.it.:   6.0
      thresh= 1.014E-08 alpha_mix =  0.700 |ddv_scf|^2 =  6.382E-15

      iter #  17 total cpu time :   239.6 secs   av.it.:   6.7
      thresh= 7.989E-09 alpha_mix =  0.700 |ddv_scf|^2 =  2.934E-17

     End of self-consistent calculation

     Convergence has been achieved 


     Representation #  3 modes #   3  4

     Self-consistent Calculation

      iter #   1 total cpu time :   245.4 secs   av.it.:   5.2
      thresh= 1.000E-02 alpha_mix =  0.700 |ddv_scf|^2 =  9.420E-07

      iter #   2 total cpu time :   253.4 secs   av.it.:   8.7
      thresh= 9.706E-05 alpha_mix =  0.700 |ddv_scf|^2 =  1.692E-08

      iter #   3 total cpu time :   261.0 secs   av.it.:   9.0
      thresh= 1.301E-05 alpha_mix =  0.700 |ddv_scf|^2 =  4.350E-10

      iter #   4 total cpu time :   268.6 secs   av.it.:   8.6
      thresh= 2.086E-06 alpha_mix =  0.700 |ddv_scf|^2 =  1.486E-12

      iter #   5 total cpu time :   277.6 secs   av.it.:   9.0
      thresh= 1.219E-07 alpha_mix =  0.700 |ddv_scf|^2 =  4.337E-15

      iter #   6 total cpu time :   284.9 secs   av.it.:   8.6
      thresh= 6.586E-09 alpha_mix =  0.700 |ddv_scf|^2 =  1.002E-16

     End of self-consistent calculation

     Convergence has been achieved 


     Representation #  4 modes #   5  6

     Self-consistent Calculation

      iter #   1 total cpu time :   293.3 secs   av.it.:   5.2
      thresh= 1.000E-02 alpha_mix =  0.700 |ddv_scf|^2 =  9.419E-07

      iter #   2 total cpu time :   300.7 secs   av.it.:   8.7
      thresh= 9.705E-05 alpha_mix =  0.700 |ddv_scf|^2 =  1.693E-08

      iter #   3 total cpu time :   309.3 secs   av.it.:   9.0
      thresh= 1.301E-05 alpha_mix =  0.700 |ddv_scf|^2 =  4.363E-10

      iter #   4 total cpu time :   317.2 secs   av.it.:   8.5
      thresh= 2.089E-06 alpha_mix =  0.700 |ddv_scf|^2 =  1.479E-12

      iter #   5 total cpu time :   324.2 secs   av.it.:   8.9
      thresh= 1.216E-07 alpha_mix =  0.700 |ddv_scf|^2 =  4.343E-15

      iter #   6 total cpu time :   331.9 secs   av.it.:   8.6
      thresh= 6.590E-09 alpha_mix =  0.700 |ddv_scf|^2 =  1.003E-16

     End of self-consistent calculation

     Convergence has been achieved 
 
     Number of q in the star =    2
     List of q in the star:
          1   0.000000000   0.000000000   0.153214289
          2   0.000000000   0.000000000  -0.153214289

     Diagonalizing the dynamical matrix

     q = (    0.000000000   0.000000000   0.153214289 ) 

 **************************************************************************
     freq (    1) =       0.420205 [THz] =      14.016539 [cm-1]
     freq (    2) =       0.420205 [THz] =      14.016539 [cm-1]
     freq (    3) =       1.555989 [THz] =      51.902200 [cm-1]
     freq (    4) =       1.555989 [THz] =      51.902200 [cm-1]
     freq (    5) =       1.655746 [THz] =      55.229741 [cm-1]
     freq (    6) =       3.817103 [THz] =     127.324853 [cm-1]
 **************************************************************************

     Mode symmetry, C_3v (3m)   point group:

     freq (  1 -  2) =         14.0  [cm-1]   --> E    L_3           
     freq (  3 -  4) =         51.9  [cm-1]   --> E    L_3           
     freq (  5 -  5) =         55.2  [cm-1]   --> A_1  L_1           
     freq (  6 -  6) =        127.3  [cm-1]   --> A_1  L_1           

     Calculation of q =    0.0000000   0.0000000  -0.3064286
 
     Parallelization info
     --------------------
     sticks:   dense  smooth     PW     G-vecs:    dense   smooth      PW
     Min         133      68     20                 5813     2041     346
     Max         134      69     21                 5820     2054     351
     Sum        1069     547    163                46541    16395    2779
 


     bravais-lattice index     =            4
     lattice parameter (alat)  =       6.9835  a.u.
     unit-cell volume          =     481.2685 (a.u.)^3
     number of atoms/cell      =            2
     number of atomic types    =            1
     number of electrons       =        18.00
     number of Kohn-Sham states=           13
     kinetic-energy cutoff     =      40.0000  Ry
     charge density cutoff     =     320.0000  Ry
     Exchange-correlation      = SLA  PW   PBE  PBE ( 1  4  3  4 0 0)

     celldm(1)=   6.983482  celldm(2)=   0.000000  celldm(3)=   1.631702
     celldm(4)=   0.000000  celldm(5)=   0.000000  celldm(6)=   0.000000

     crystal axes: (cart. coord. in units of alat)
               a(1) = (   1.000000   0.000000   0.000000 )  
               a(2) = (  -0.500000   0.866025   0.000000 )  
               a(3) = (   0.000000   0.000000   1.631702 )  

     reciprocal axes: (cart. coord. in units 2 pi/alat)
               b(1) = (  1.000000  0.577350  0.000000 )  
               b(2) = (  0.000000  1.154701  0.000000 )  
               b(3) = (  0.000000  0.000000  0.612857 )  


     PseudoPot. # 1 for Na read from file:
     ./Na_pbe_v1.uspp.F.UPF
     MD5 check sum: 76a99c7e9422403d3e93cbc85ab7bccb
     Pseudo is Ultrasoft, Zval =  9.0
     Generated by new atomic code, or converted to UPF format
     Using radial grid of  819 points,  5 beta functions with: 
                l(1) =   0
                l(2) =   0
                l(3) =   1
                l(4) =   1
                l(5) =   2
     Q(r) pseudized with  8 coefficients,  rinner =    1.250   1.250   1.250
                                                       1.250   1.250

     atomic species   valence    mass     pseudopotential
        Na             9.00    22.99000     Na( 1.00)

     12 Sym. Ops. (no inversion) found



   Cartesian axes

     site n.     atom                  positions (alat units)
         1           Na  tau(   1) = (   0.0000000   0.0000000   0.0000000  )
         2           Na  tau(   2) = (   0.4999999   0.2886751   0.8158508  )

     number of k points=   732  Marzari-Vanderbilt smearing, width (Ry)=  0.0200

     Number of k-points >= 100: set verbosity='high' to print them.

     Dense  grid:    46541 G-vectors     FFT dimensions: (  40,  40,  72)

     Smooth grid:    16395 G-vectors     FFT dimensions: (  30,  30,  45)

     Largest allocated arrays     est. size (Mb)     dimensions
        Kohn-Sham Wavefunctions         0.05 Mb     (     274,   13)
        NL pseudopotentials             0.11 Mb     (     274,   26)
        Each V/rho on FFT grid          0.22 Mb     (   14400)
        Each G-vector array             0.04 Mb     (    5815)
        G-vector shells                 0.01 Mb     (    1718)
     Largest temporary arrays     est. size (Mb)     dimensions
        Auxiliary wavefunctions         0.22 Mb     (     274,   52)
        Each subspace H/S matrix        0.01 Mb     (      26,   26)
        Each <psi_i|beta_j> matrix      0.01 Mb     (      26,   13)

     The potential is recalculated from file :
     ./na_hcp_6.98348186215975/_ph0/na_hcp_6.98348186215975.save/charge-density.dat

     Starting wfc are   10 atomic +    3 random wfc

     Band Structure Calculation
     Davidson diagonalization with overlap

     ethr =  5.56E-11,  avg # of iterations = 23.3

     total cpu time spent up to now is       13.3 secs

     End of band structure calculation

     Number of k-points >= 100: set verbosity='high' to print the bands.

     the Fermi energy is     1.7689 ev

     Writing output data file na_hcp_6.98348186215975.save

                                                                                

     bravais-lattice index     =            4
     lattice parameter (alat)  =       6.9835  a.u.
     unit-cell volume          =     481.2685 (a.u.)^3
     number of atoms/cell      =            2
     number of atomic types    =            1
     kinetic-energy cut-off    =      40.0000  Ry
     charge density cut-off    =     320.0000  Ry
     convergence threshold     =      1.0E-15
     beta                      =       0.7000
     number of iterations used =            4
     Exchange-correlation      = SLA  PW   PBE  PBE ( 1  4  3  4 0 0)


     celldm(1)=    6.98348  celldm(2)=    0.00000  celldm(3)=    1.63170
     celldm(4)=    0.00000  celldm(5)=    0.00000  celldm(6)=    0.00000

     crystal axes: (cart. coord. in units of alat)
               a(1) = (  1.0000  0.0000  0.0000 )  
               a(2) = ( -0.5000  0.8660  0.0000 )  
               a(3) = (  0.0000  0.0000  1.6317 )  

     reciprocal axes: (cart. coord. in units 2 pi/alat)
               b(1) = (  1.0000  0.5774  0.0000 )  
               b(2) = (  0.0000  1.1547  0.0000 )  
               b(3) = (  0.0000  0.0000  0.6129 )  


     Atoms inside the unit cell: 

     Cartesian axes

     site n.  atom      mass           positions (alat units)
        1     Na  22.9900   tau(    1) = (    0.00000    0.00000    0.00000  )
        2     Na  22.9900   tau(    2) = (    0.50000    0.28868    0.81585  )

     Computing dynamical matrix for 
                    q = (   0.0000000   0.0000000  -0.3064286 )
 
     13 Sym.Ops. (with q -> -q+G )


     G cutoff =  395.3068  (   5815 G-vectors)     FFT grid: ( 40, 40, 72)
     G cutoff =  197.6534  (   2054 G-vectors)  smooth grid: ( 30, 30, 45)

     number of k points=   732  Marzari-Vanderbilt smearing, width (Ry)=  0.0200

     PseudoPot. # 1 for Na read from file:
     ./Na_pbe_v1.uspp.F.UPF
     MD5 check sum: 76a99c7e9422403d3e93cbc85ab7bccb
     Pseudo is Ultrasoft, Zval =  9.0
     Generated by new atomic code, or converted to UPF format
     Using radial grid of  819 points,  5 beta functions with: 
                l(1) =   0
                l(2) =   0
                l(3) =   1
                l(4) =   1
                l(5) =   2
     Q(r) pseudized with  8 coefficients,  rinner =    1.250   1.250   1.250
                                                       1.250   1.250

     Mode symmetry, D_3h (-62m) point group:


     Atomic displacements:
     There are   4 irreducible representations

     Representation     1      1 modes -A'_1  To be done

     Representation     2      2 modes -E'  To be done

     Representation     3      1 modes -A''2  To be done

     Representation     4      2 modes -E''  To be done



     Alpha used in Ewald sum =   2.8000
     PHONON       :  4m56.07s CPU     5m36.23s WALL



     Representation #  1 mode #   1

     Self-consistent Calculation

      iter #   1 total cpu time :   336.9 secs   av.it.:   5.7
      thresh= 1.000E-02 alpha_mix =  0.700 |ddv_scf|^2 =  9.802E-04

      iter #   2 total cpu time :   338.0 secs   av.it.:   7.0
      thresh= 3.131E-03 alpha_mix =  0.700 |ddv_scf|^2 =  2.630E-02

      iter #   3 total cpu time :   338.4 secs   av.it.:   5.9
      thresh= 1.000E-02 alpha_mix =  0.700 |ddv_scf|^2 =  7.143E-07

      iter #   4 total cpu time :   338.9 secs   av.it.:   7.9
      thresh= 8.452E-05 alpha_mix =  0.700 |ddv_scf|^2 =  3.491E-09

      iter #   5 total cpu time :   339.5 secs   av.it.:   8.7
      thresh= 5.908E-06 alpha_mix =  0.700 |ddv_scf|^2 =  2.626E-10

      iter #   6 total cpu time :   340.5 secs   av.it.:   8.5
      thresh= 1.621E-06 alpha_mix =  0.700 |ddv_scf|^2 =  6.971E-12

      iter #   7 total cpu time :   341.0 secs   av.it.:   8.9
      thresh= 2.640E-07 alpha_mix =  0.700 |ddv_scf|^2 =  9.713E-13

      iter #   8 total cpu time :   341.5 secs   av.it.:   7.6
      thresh= 9.856E-08 alpha_mix =  0.700 |ddv_scf|^2 =  4.760E-16

     End of self-consistent calculation

     Convergence has been achieved 


     Representation #  2 modes #   2  3

     Self-consistent Calculation

      iter #   1 total cpu time :   343.1 secs   av.it.:   5.2
      thresh= 1.000E-02 alpha_mix =  0.700 |ddv_scf|^2 =  9.410E-07

      iter #   2 total cpu time :   345.2 secs   av.it.:   8.7
      thresh= 9.700E-05 alpha_mix =  0.700 |ddv_scf|^2 =  1.692E-08

      iter #   3 total cpu time :   364.7 secs   av.it.:   9.0
      thresh= 1.301E-05 alpha_mix =  0.700 |ddv_scf|^2 =  4.271E-10

      iter #   4 total cpu time :   366.9 secs   av.it.:   8.5
      thresh= 2.067E-06 alpha_mix =  0.700 |ddv_scf|^2 =  1.427E-12

      iter #   5 total cpu time :   369.2 secs   av.it.:   8.9
      thresh= 1.194E-07 alpha_mix =  0.700 |ddv_scf|^2 =  2.737E-15

      iter #   6 total cpu time :   370.9 secs   av.it.:   8.2
      thresh= 5.232E-09 alpha_mix =  0.700 |ddv_scf|^2 =  9.139E-17

     End of self-consistent calculation

     Convergence has been achieved 


     Representation #  3 mode #   4

     Self-consistent Calculation

      iter #   1 total cpu time :   373.1 secs   av.it.:   5.7
      thresh= 1.000E-02 alpha_mix =  0.700 |ddv_scf|^2 =  9.802E-04

      iter #   2 total cpu time :   379.8 secs   av.it.:   7.0
      thresh= 3.131E-03 alpha_mix =  0.700 |ddv_scf|^2 =  2.630E-02

      iter #   3 total cpu time :   381.0 secs   av.it.:   5.9
      thresh= 1.000E-02 alpha_mix =  0.700 |ddv_scf|^2 =  7.147E-07

      iter #   4 total cpu time :   382.2 secs   av.it.:   7.9
      thresh= 8.454E-05 alpha_mix =  0.700 |ddv_scf|^2 =  3.495E-09

      iter #   5 total cpu time :   383.4 secs   av.it.:   8.7
      thresh= 5.912E-06 alpha_mix =  0.700 |ddv_scf|^2 =  2.625E-10

      iter #   6 total cpu time :   384.8 secs   av.it.:   8.5
      thresh= 1.620E-06 alpha_mix =  0.700 |ddv_scf|^2 =  6.975E-12

      iter #   7 total cpu time :   386.0 secs   av.it.:   8.9
      thresh= 2.641E-07 alpha_mix =  0.700 |ddv_scf|^2 =  9.719E-13

      iter #   8 total cpu time :   387.7 secs   av.it.:   7.6
      thresh= 9.858E-08 alpha_mix =  0.700 |ddv_scf|^2 =  4.700E-16

     End of self-consistent calculation

     Convergence has been achieved 


     Representation #  4 modes #   5  6

     Self-consistent Calculation

      iter #   1 total cpu time :   390.1 secs   av.it.:   5.2
      thresh= 1.000E-02 alpha_mix =  0.700 |ddv_scf|^2 =  9.409E-07

      iter #   2 total cpu time :   392.8 secs   av.it.:   8.7
      thresh= 9.700E-05 alpha_mix =  0.700 |ddv_scf|^2 =  1.693E-08

      iter #   3 total cpu time :   395.3 secs   av.it.:   9.0
      thresh= 1.301E-05 alpha_mix =  0.700 |ddv_scf|^2 =  4.284E-10

      iter #   4 total cpu time :   399.3 secs   av.it.:   8.5
      thresh= 2.070E-06 alpha_mix =  0.700 |ddv_scf|^2 =  1.420E-12

      iter #   5 total cpu time :   401.5 secs   av.it.:   9.0
      thresh= 1.192E-07 alpha_mix =  0.700 |ddv_scf|^2 =  2.745E-15

      iter #   6 total cpu time :   404.5 secs   av.it.:   8.3
      thresh= 5.239E-09 alpha_mix =  0.700 |ddv_scf|^2 =  9.147E-17

     End of self-consistent calculation

     Convergence has been achieved 
 
     Number of q in the star =    1
     List of q in the star:
          1   0.000000000   0.000000000  -0.306428577

     Diagonalizing the dynamical matrix

     q = (    0.000000000   0.000000000  -0.306428577 ) 

 **************************************************************************
     freq (    1) =       1.122605 [THz] =      37.446086 [cm-1]
     freq (    2) =       1.122605 [THz] =      37.446086 [cm-1]
     freq (    3) =       1.153223 [THz] =      38.467391 [cm-1]
     freq (    4) =       1.153223 [THz] =      38.467391 [cm-1]
     freq (    5) =       2.984332 [THz] =      99.546602 [cm-1]
     freq (    6) =       2.985018 [THz] =      99.569476 [cm-1]
 **************************************************************************

     Mode symmetry, D_3h (-62m) point group:

     freq (  1 -  2) =         37.4  [cm-1]   --> E'                 
     freq (  3 -  4) =         38.5  [cm-1]   --> E''                
     freq (  5 -  5) =         99.5  [cm-1]   --> A'_1               
     freq (  6 -  6) =         99.6  [cm-1]   --> A''2               

     Calculation of q =    0.0000000   0.2886751   0.0000000
 
     Parallelization info
     --------------------
     sticks:   dense  smooth     PW     G-vecs:    dense   smooth      PW
     Min         133      68     20                 5813     2043     372
     Max         134      69     21                 5820     2056     381
     Sum        1069     547    163                46541    16395    3009
 


     bravais-lattice index     =            4
     lattice parameter (alat)  =       6.9835  a.u.
     unit-cell volume          =     481.2685 (a.u.)^3
     number of atoms/cell      =            2
     number of atomic types    =            1
     number of electrons       =        18.00
     number of Kohn-Sham states=           13
     kinetic-energy cutoff     =      40.0000  Ry
     charge density cutoff     =     320.0000  Ry
     Exchange-correlation      = SLA  PW   PBE  PBE ( 1  4  3  4 0 0)

     celldm(1)=   6.983482  celldm(2)=   0.000000  celldm(3)=   1.631702
     celldm(4)=   0.000000  celldm(5)=   0.000000  celldm(6)=   0.000000

     crystal axes: (cart. coord. in units of alat)
               a(1) = (   1.000000   0.000000   0.000000 )  
               a(2) = (  -0.500000   0.866025   0.000000 )  
               a(3) = (   0.000000   0.000000   1.631702 )  

     reciprocal axes: (cart. coord. in units 2 pi/alat)
               b(1) = (  1.000000  0.577350  0.000000 )  
               b(2) = (  0.000000  1.154701  0.000000 )  
               b(3) = (  0.000000  0.000000  0.612857 )  


     PseudoPot. # 1 for Na read from file:
     ./Na_pbe_v1.uspp.F.UPF
     MD5 check sum: 76a99c7e9422403d3e93cbc85ab7bccb
     Pseudo is Ultrasoft, Zval =  9.0
     Generated by new atomic code, or converted to UPF format
     Using radial grid of  819 points,  5 beta functions with: 
                l(1) =   0
                l(2) =   0
                l(3) =   1
                l(4) =   1
                l(5) =   2
     Q(r) pseudized with  8 coefficients,  rinner =    1.250   1.250   1.250
                                                       1.250   1.250

     atomic species   valence    mass     pseudopotential
        Na             9.00    22.99000     Na( 1.00)

     12 Sym. Ops. (no inversion) found



   Cartesian axes

     site n.     atom                  positions (alat units)
         1           Na  tau(   1) = (   0.0000000   0.0000000   0.0000000  )
         2           Na  tau(   2) = (   0.4999999   0.2886751   0.8158508  )

     number of k points=  3600  Marzari-Vanderbilt smearing, width (Ry)=  0.0200

     Number of k-points >= 100: set verbosity='high' to print them.

     Dense  grid:    46541 G-vectors     FFT dimensions: (  40,  40,  72)

     Smooth grid:    16395 G-vectors     FFT dimensions: (  30,  30,  45)

     Largest allocated arrays     est. size (Mb)     dimensions
        Kohn-Sham Wavefunctions         0.05 Mb     (     275,   13)
        NL pseudopotentials             0.11 Mb     (     275,   26)
        Each V/rho on FFT grid          0.22 Mb     (   14400)
        Each G-vector array             0.04 Mb     (    5815)
        G-vector shells                 0.01 Mb     (    1749)
     Largest temporary arrays     est. size (Mb)     dimensions
        Auxiliary wavefunctions         0.22 Mb     (     275,   52)
        Each subspace H/S matrix        0.01 Mb     (      26,   26)
        Each <psi_i|beta_j> matrix      0.01 Mb     (      26,   13)

     The potential is recalculated from file :
     ./na_hcp_6.98348186215975/_ph0/na_hcp_6.98348186215975.save/charge-density.dat

     Starting wfc are   10 atomic +    3 random wfc

     Band Structure Calculation
     Davidson diagonalization with overlap

     ethr =  5.56E-11,  avg # of iterations = 22.7

     total cpu time spent up to now is       24.6 secs

     End of band structure calculation

     Number of k-points >= 100: set verbosity='high' to print the bands.

     the Fermi energy is     1.7689 ev

     Writing output data file na_hcp_6.98348186215975.save

                                                                                

     bravais-lattice index     =            4
     lattice parameter (alat)  =       6.9835  a.u.
     unit-cell volume          =     481.2685 (a.u.)^3
     number of atoms/cell      =            2
     number of atomic types    =            1
     kinetic-energy cut-off    =      40.0000  Ry
     charge density cut-off    =     320.0000  Ry
     convergence threshold     =      1.0E-15
     beta                      =       0.7000
     number of iterations used =            4
     Exchange-correlation      = SLA  PW   PBE  PBE ( 1  4  3  4 0 0)


     celldm(1)=    6.98348  celldm(2)=    0.00000  celldm(3)=    1.63170
     celldm(4)=    0.00000  celldm(5)=    0.00000  celldm(6)=    0.00000

     crystal axes: (cart. coord. in units of alat)
               a(1) = (  1.0000  0.0000  0.0000 )  
               a(2) = ( -0.5000  0.8660  0.0000 )  
               a(3) = (  0.0000  0.0000  1.6317 )  

     reciprocal axes: (cart. coord. in units 2 pi/alat)
               b(1) = (  1.0000  0.5774  0.0000 )  
               b(2) = (  0.0000  1.1547  0.0000 )  
               b(3) = (  0.0000  0.0000  0.6129 )  


     Atoms inside the unit cell: 

     Cartesian axes

     site n.  atom      mass           positions (alat units)
        1     Na  22.9900   tau(    1) = (    0.00000    0.00000    0.00000  )
        2     Na  22.9900   tau(    2) = (    0.50000    0.28868    0.81585  )

     Computing dynamical matrix for 
                    q = (   0.0000000   0.2886751   0.0000000 )
 
      4 Sym.Ops. (no q -> -q+G )


     G cutoff =  395.3068  (   5815 G-vectors)     FFT grid: ( 40, 40, 72)
     G cutoff =  197.6534  (   2056 G-vectors)  smooth grid: ( 30, 30, 45)

     number of k points=  3600  Marzari-Vanderbilt smearing, width (Ry)=  0.0200

     PseudoPot. # 1 for Na read from file:
     ./Na_pbe_v1.uspp.F.UPF
     MD5 check sum: 76a99c7e9422403d3e93cbc85ab7bccb
     Pseudo is Ultrasoft, Zval =  9.0
     Generated by new atomic code, or converted to UPF format
     Using radial grid of  819 points,  5 beta functions with: 
                l(1) =   0
                l(2) =   0
                l(3) =   1
                l(4) =   1
                l(5) =   2
     Q(r) pseudized with  8 coefficients,  rinner =    1.250   1.250   1.250
                                                       1.250   1.250

     Mode symmetry, C_2v (mm2)  point group:


     Atomic displacements:
     There are   6 irreducible representations

     Representation     1      1 modes -A_1  D_1  S_1  To be done

     Representation     2      1 modes -A_1  D_1  S_1  To be done

     Representation     3      1 modes -B_1  D_3  S_3  To be done

     Representation     4      1 modes -B_1  D_3  S_3  To be done

     Representation     5      1 modes -B_2  D_4  S_4  To be done

     Representation     6      1 modes -B_2  D_4  S_4  To be done



     Alpha used in Ewald sum =   2.8000
     PHONON       :  6m 2.72s CPU     7m 1.46s WALL



     Representation #  1 mode #   1

     Self-consistent Calculation

      iter #   1 total cpu time :   423.3 secs   av.it.:   5.7
      thresh= 1.000E-02 alpha_mix =  0.700 |ddv_scf|^2 =  7.048E-04

      iter #   2 total cpu time :   428.5 secs   av.it.:   7.2
      thresh= 2.655E-03 alpha_mix =  0.700 |ddv_scf|^2 =  2.486E-02

      iter #   3 total cpu time :   431.5 secs   av.it.:   5.4
      thresh= 1.000E-02 alpha_mix =  0.700 |ddv_scf|^2 =  6.062E-07

      iter #   4 total cpu time :   435.8 secs   av.it.:   8.1
      thresh= 7.786E-05 alpha_mix =  0.700 |ddv_scf|^2 =  3.342E-08

      iter #   5 total cpu time :   441.6 secs   av.it.:   8.2
      thresh= 1.828E-05 alpha_mix =  0.700 |ddv_scf|^2 =  8.227E-10

      iter #   6 total cpu time :   446.1 secs   av.it.:   8.7
      thresh= 2.868E-06 alpha_mix =  0.700 |ddv_scf|^2 =  1.480E-10

      iter #   7 total cpu time :   450.1 secs   av.it.:   7.9
      thresh= 1.217E-06 alpha_mix =  0.700 |ddv_scf|^2 =  1.809E-09

      iter #   8 total cpu time :   453.5 secs   av.it.:   6.5
      thresh= 4.253E-06 alpha_mix =  0.700 |ddv_scf|^2 =  3.929E-12

      iter #   9 total cpu time :   456.9 secs   av.it.:   8.6
      thresh= 1.982E-07 alpha_mix =  0.700 |ddv_scf|^2 =  7.091E-13

      iter #  10 total cpu time :   461.8 secs   av.it.:   7.6
      thresh= 8.421E-08 alpha_mix =  0.700 |ddv_scf|^2 =  2.268E-12

      iter #  11 total cpu time :   465.8 secs   av.it.:   6.9
      thresh= 1.506E-07 alpha_mix =  0.700 |ddv_scf|^2 =  2.005E-15

      iter #  12 total cpu time :   469.8 secs   av.it.:   8.8
      thresh= 4.478E-09 alpha_mix =  0.700 |ddv_scf|^2 =  1.223E-16

     End of self-consistent calculation

     Convergence has been achieved 


     Representation #  2 mode #   2

     Self-consistent Calculation

      iter #   1 total cpu time :   474.0 secs   av.it.:   5.7
      thresh= 1.000E-02 alpha_mix =  0.700 |ddv_scf|^2 =  7.048E-04

      iter #   2 total cpu time :   478.9 secs   av.it.:   7.2
      thresh= 2.655E-03 alpha_mix =  0.700 |ddv_scf|^2 =  2.486E-02

      iter #   3 total cpu time :   482.0 secs   av.it.:   5.4
      thresh= 1.000E-02 alpha_mix =  0.700 |ddv_scf|^2 =  6.062E-07

      iter #   4 total cpu time :   486.1 secs   av.it.:   8.1
      thresh= 7.786E-05 alpha_mix =  0.700 |ddv_scf|^2 =  3.345E-08

      iter #   5 total cpu time :   490.2 secs   av.it.:   8.2
      thresh= 1.829E-05 alpha_mix =  0.700 |ddv_scf|^2 =  8.247E-10

      iter #   6 total cpu time :   494.6 secs   av.it.:   8.7
      thresh= 2.872E-06 alpha_mix =  0.700 |ddv_scf|^2 =  1.313E-10

      iter #   7 total cpu time :   498.9 secs   av.it.:   8.0
      thresh= 1.146E-06 alpha_mix =  0.700 |ddv_scf|^2 =  1.742E-09

      iter #   8 total cpu time :   504.0 secs   av.it.:   6.4
      thresh= 4.173E-06 alpha_mix =  0.700 |ddv_scf|^2 =  4.191E-12

      iter #   9 total cpu time :   509.0 secs   av.it.:   8.6
      thresh= 2.047E-07 alpha_mix =  0.700 |ddv_scf|^2 =  7.056E-13

      iter #  10 total cpu time :   512.9 secs   av.it.:   7.6
      thresh= 8.400E-08 alpha_mix =  0.700 |ddv_scf|^2 =  2.273E-12

      iter #  11 total cpu time :   518.5 secs   av.it.:   6.9
      thresh= 1.508E-07 alpha_mix =  0.700 |ddv_scf|^2 =  2.002E-15

      iter #  12 total cpu time :   522.9 secs   av.it.:   8.8
      thresh= 4.474E-09 alpha_mix =  0.700 |ddv_scf|^2 =  1.227E-16

     End of self-consistent calculation

     Convergence has been achieved 


     Representation #  3 mode #   3

     Self-consistent Calculation

      iter #   1 total cpu time :   526.1 secs   av.it.:   5.3
      thresh= 1.000E-02 alpha_mix =  0.700 |ddv_scf|^2 =  4.084E-06

      iter #   2 total cpu time :   530.1 secs   av.it.:   8.3
      thresh= 2.021E-04 alpha_mix =  0.700 |ddv_scf|^2 =  6.542E-08

      iter #   3 total cpu time :   535.6 secs   av.it.:   8.5
      thresh= 2.558E-05 alpha_mix =  0.700 |ddv_scf|^2 =  2.916E-09

      iter #   4 total cpu time :   539.6 secs   av.it.:   8.1
      thresh= 5.400E-06 alpha_mix =  0.700 |ddv_scf|^2 =  1.743E-11

      iter #   5 total cpu time :   543.9 secs   av.it.:   8.1
      thresh= 4.175E-07 alpha_mix =  0.700 |ddv_scf|^2 =  1.292E-13

      iter #   6 total cpu time :   548.5 secs   av.it.:   8.5
      thresh= 3.595E-08 alpha_mix =  0.700 |ddv_scf|^2 =  4.549E-16

     End of self-consistent calculation

     Convergence has been achieved 


     Representation #  4 mode #   4

     Self-consistent Calculation

      iter #   1 total cpu time :   554.7 secs   av.it.:   5.3
      thresh= 1.000E-02 alpha_mix =  0.700 |ddv_scf|^2 =  4.084E-06

      iter #   2 total cpu time :   559.5 secs   av.it.:   8.3
      thresh= 2.021E-04 alpha_mix =  0.700 |ddv_scf|^2 =  6.546E-08

      iter #   3 total cpu time :   563.4 secs   av.it.:   8.5
      thresh= 2.559E-05 alpha_mix =  0.700 |ddv_scf|^2 =  2.924E-09

      iter #   4 total cpu time :   567.8 secs   av.it.:   8.1
      thresh= 5.407E-06 alpha_mix =  0.700 |ddv_scf|^2 =  1.740E-11

      iter #   5 total cpu time :   573.5 secs   av.it.:   8.1
      thresh= 4.171E-07 alpha_mix =  0.700 |ddv_scf|^2 =  1.289E-13

      iter #   6 total cpu time :   577.8 secs   av.it.:   8.6
      thresh= 3.590E-08 alpha_mix =  0.700 |ddv_scf|^2 =  4.551E-16

     End of self-consistent calculation

     Convergence has been achieved 


     Representation #  5 mode #   5

     Self-consistent Calculation

      iter #   1 total cpu time :   581.4 secs   av.it.:   5.5
      thresh= 1.000E-02 alpha_mix =  0.700 |ddv_scf|^2 =  1.130E-05

      iter #   2 total cpu time :   585.1 secs   av.it.:   8.4
      thresh= 3.362E-04 alpha_mix =  0.700 |ddv_scf|^2 =  2.385E-06

      iter #   3 total cpu time :   589.3 secs   av.it.:   7.6
      thresh= 1.544E-04 alpha_mix =  0.700 |ddv_scf|^2 =  1.378E-08

      iter #   4 total cpu time :   594.0 secs   av.it.:   8.6
      thresh= 1.174E-05 alpha_mix =  0.700 |ddv_scf|^2 =  4.655E-10

      iter #   5 total cpu time :   597.7 secs   av.it.:   8.1
      thresh= 2.158E-06 alpha_mix =  0.700 |ddv_scf|^2 =  2.729E-12

      iter #   6 total cpu time :   602.8 secs   av.it.:   8.5
      thresh= 1.652E-07 alpha_mix =  0.700 |ddv_scf|^2 =  1.424E-14

      iter #   7 total cpu time :   607.3 secs   av.it.:   8.2
      thresh= 1.193E-08 alpha_mix =  0.700 |ddv_scf|^2 =  6.587E-16

     End of self-consistent calculation

     Convergence has been achieved 


     Representation #  6 mode #   6

     Self-consistent Calculation

      iter #   1 total cpu time :   611.4 secs   av.it.:   5.5
      thresh= 1.000E-02 alpha_mix =  0.700 |ddv_scf|^2 =  1.130E-05

      iter #   2 total cpu time :   616.3 secs   av.it.:   8.4
      thresh= 3.362E-04 alpha_mix =  0.700 |ddv_scf|^2 =  2.385E-06

      iter #   3 total cpu time :   620.6 secs   av.it.:   7.6
      thresh= 1.544E-04 alpha_mix =  0.700 |ddv_scf|^2 =  1.378E-08

      iter #   4 total cpu time :   624.6 secs   av.it.:   8.6
      thresh= 1.174E-05 alpha_mix =  0.700 |ddv_scf|^2 =  4.656E-10

      iter #   5 total cpu time :   628.4 secs   av.it.:   8.1
      thresh= 2.158E-06 alpha_mix =  0.700 |ddv_scf|^2 =  2.728E-12

      iter #   6 total cpu time :   633.0 secs   av.it.:   8.5
      thresh= 1.652E-07 alpha_mix =  0.700 |ddv_scf|^2 =  1.423E-14

      iter #   7 total cpu time :   648.0 secs   av.it.:   8.2
      thresh= 1.193E-08 alpha_mix =  0.700 |ddv_scf|^2 =  6.587E-16

     End of self-consistent calculation

     Convergence has been achieved 
 
     Number of q in the star =    3
     List of q in the star:
          1   0.000000000   0.288675135   0.000000000
          2   0.250000000  -0.144337567   0.000000000
          3  -0.250000000  -0.144337567   0.000000000
     In addition there is the -q list: 
          1   0.000000000  -0.288675135   0.000000000
          2  -0.250000000   0.144337567   0.000000000
          3   0.250000000   0.144337567   0.000000000

     Diagonalizing the dynamical matrix

     q = (    0.000000000   0.288675135   0.000000000 ) 

 **************************************************************************
     freq (    1) =       1.167887 [THz] =      38.956508 [cm-1]
     freq (    2) =       1.450634 [THz] =      48.387941 [cm-1]
     freq (    3) =       2.436829 [THz] =      81.283860 [cm-1]
     freq (    4) =       2.615410 [THz] =      87.240695 [cm-1]
     freq (    5) =       3.188257 [THz] =     106.348802 [cm-1]
     freq (    6) =       3.817543 [THz] =     127.339531 [cm-1]
 **************************************************************************

     Mode symmetry, C_2v (mm2)  point group:

     freq (  1 -  1) =         39.0  [cm-1]   --> B_1  D_3  S_3      
     freq (  2 -  2) =         48.4  [cm-1]   --> B_2  D_4  S_4      
     freq (  3 -  3) =         81.3  [cm-1]   --> B_1  D_3  S_3      
     freq (  4 -  4) =         87.2  [cm-1]   --> A_1  D_1  S_1      
     freq (  5 -  5) =        106.3  [cm-1]   --> A_1  D_1  S_1      
     freq (  6 -  6) =        127.3  [cm-1]   --> B_2  D_4  S_4      

     Calculation of q =    0.0000000   0.2886751   0.1532143
 
     Parallelization info
     --------------------
     sticks:   dense  smooth     PW     G-vecs:    dense   smooth      PW
     Min         133      68     21                 5813     2043     377
     Max         134      69     22                 5820     2060     383
     Sum        1069     547    169                46541    16395    3039
 


     bravais-lattice index     =            4
     lattice parameter (alat)  =       6.9835  a.u.
     unit-cell volume          =     481.2685 (a.u.)^3
     number of atoms/cell      =            2
     number of atomic types    =            1
     number of electrons       =        18.00
     number of Kohn-Sham states=           13
     kinetic-energy cutoff     =      40.0000  Ry
     charge density cutoff     =     320.0000  Ry
     Exchange-correlation      = SLA  PW   PBE  PBE ( 1  4  3  4 0 0)

     celldm(1)=   6.983482  celldm(2)=   0.000000  celldm(3)=   1.631702
     celldm(4)=   0.000000  celldm(5)=   0.000000  celldm(6)=   0.000000

     crystal axes: (cart. coord. in units of alat)
               a(1) = (   1.000000   0.000000   0.000000 )  
               a(2) = (  -0.500000   0.866025   0.000000 )  
               a(3) = (   0.000000   0.000000   1.631702 )  

     reciprocal axes: (cart. coord. in units 2 pi/alat)
               b(1) = (  1.000000  0.577350  0.000000 )  
               b(2) = (  0.000000  1.154701  0.000000 )  
               b(3) = (  0.000000  0.000000  0.612857 )  


     PseudoPot. # 1 for Na read from file:
     ./Na_pbe_v1.uspp.F.UPF
     MD5 check sum: 76a99c7e9422403d3e93cbc85ab7bccb
     Pseudo is Ultrasoft, Zval =  9.0
     Generated by new atomic code, or converted to UPF format
     Using radial grid of  819 points,  5 beta functions with: 
                l(1) =   0
                l(2) =   0
                l(3) =   1
                l(4) =   1
                l(5) =   2
     Q(r) pseudized with  8 coefficients,  rinner =    1.250   1.250   1.250
                                                       1.250   1.250

     atomic species   valence    mass     pseudopotential
        Na             9.00    22.99000     Na( 1.00)

     12 Sym. Ops. (no inversion) found



   Cartesian axes

     site n.     atom                  positions (alat units)
         1           Na  tau(   1) = (   0.0000000   0.0000000   0.0000000  )
         2           Na  tau(   2) = (   0.4999999   0.2886751   0.8158508  )

     number of k points=  7200  Marzari-Vanderbilt smearing, width (Ry)=  0.0200

     Number of k-points >= 100: set verbosity='high' to print them.

     Dense  grid:    46541 G-vectors     FFT dimensions: (  40,  40,  72)

     Smooth grid:    16395 G-vectors     FFT dimensions: (  30,  30,  45)

     Largest allocated arrays     est. size (Mb)     dimensions
        Kohn-Sham Wavefunctions         0.05 Mb     (     273,   13)
        NL pseudopotentials             0.11 Mb     (     273,   26)
        Each V/rho on FFT grid          0.22 Mb     (   14400)
        Each G-vector array             0.04 Mb     (    5815)
        G-vector shells                 0.01 Mb     (    1780)
     Largest temporary arrays     est. size (Mb)     dimensions
        Auxiliary wavefunctions         0.22 Mb     (     273,   52)
        Each subspace H/S matrix        0.01 Mb     (      26,   26)
        Each <psi_i|beta_j> matrix      0.01 Mb     (      26,   13)

     The potential is recalculated from file :
     ./na_hcp_6.98348186215975/_ph0/na_hcp_6.98348186215975.save/charge-density.dat

     Starting wfc are   10 atomic +    3 random wfc

     Band Structure Calculation
     Davidson diagonalization with overlap

     ethr =  5.56E-11,  avg # of iterations = 22.7

     total cpu time spent up to now is       48.6 secs

     End of band structure calculation

     Number of k-points >= 100: set verbosity='high' to print the bands.

     the Fermi energy is     1.7689 ev

     Writing output data file na_hcp_6.98348186215975.save

                                                                                

     bravais-lattice index     =            4
     lattice parameter (alat)  =       6.9835  a.u.
     unit-cell volume          =     481.2685 (a.u.)^3
     number of atoms/cell      =            2
     number of atomic types    =            1
     kinetic-energy cut-off    =      40.0000  Ry
     charge density cut-off    =     320.0000  Ry
     convergence threshold     =      1.0E-15
     beta                      =       0.7000
     number of iterations used =            4
     Exchange-correlation      = SLA  PW   PBE  PBE ( 1  4  3  4 0 0)


     celldm(1)=    6.98348  celldm(2)=    0.00000  celldm(3)=    1.63170
     celldm(4)=    0.00000  celldm(5)=    0.00000  celldm(6)=    0.00000

     crystal axes: (cart. coord. in units of alat)
               a(1) = (  1.0000  0.0000  0.0000 )  
               a(2) = ( -0.5000  0.8660  0.0000 )  
               a(3) = (  0.0000  0.0000  1.6317 )  

     reciprocal axes: (cart. coord. in units 2 pi/alat)
               b(1) = (  1.0000  0.5774  0.0000 )  
               b(2) = (  0.0000  1.1547  0.0000 )  
               b(3) = (  0.0000  0.0000  0.6129 )  


     Atoms inside the unit cell: 

     Cartesian axes

     site n.  atom      mass           positions (alat units)
        1     Na  22.9900   tau(    1) = (    0.00000    0.00000    0.00000  )
        2     Na  22.9900   tau(    2) = (    0.50000    0.28868    0.81585  )

     Computing dynamical matrix for 
                    q = (   0.0000000   0.2886751   0.1532143 )
 
      2 Sym.Ops. (no q -> -q+G )


     G cutoff =  395.3068  (   5815 G-vectors)     FFT grid: ( 40, 40, 72)
     G cutoff =  197.6534  (   2054 G-vectors)  smooth grid: ( 30, 30, 45)

     number of k points=  7200  Marzari-Vanderbilt smearing, width (Ry)=  0.0200

     PseudoPot. # 1 for Na read from file:
     ./Na_pbe_v1.uspp.F.UPF
     MD5 check sum: 76a99c7e9422403d3e93cbc85ab7bccb
     Pseudo is Ultrasoft, Zval =  9.0
     Generated by new atomic code, or converted to UPF format
     Using radial grid of  819 points,  5 beta functions with: 
                l(1) =   0
                l(2) =   0
                l(3) =   1
                l(4) =   1
                l(5) =   2
     Q(r) pseudized with  8 coefficients,  rinner =    1.250   1.250   1.250
                                                       1.250   1.250

     Mode symmetry, C_s (m)     point group:


     Atomic displacements:
     There are   6 irreducible representations

     Representation     1      1 modes -A'  To be done

     Representation     2      1 modes -A'  To be done

     Representation     3      1 modes -A'  To be done

     Representation     4      1 modes -A'  To be done

     Representation     5      1 modes -A''  To be done

     Representation     6      1 modes -A''  To be done



     Alpha used in Ewald sum =   2.8000
     PHONON       :  9m53.69s CPU    11m19.73s WALL



     Representation #  1 mode #   1

     Self-consistent Calculation

      iter #   1 total cpu time :   682.9 secs   av.it.:   5.7
      thresh= 1.000E-02 alpha_mix =  0.700 |ddv_scf|^2 =  2.765E-04

      iter #   2 total cpu time :   697.0 secs   av.it.:   7.5
      thresh= 1.663E-03 alpha_mix =  0.700 |ddv_scf|^2 =  5.409E-03

      iter #   3 total cpu time :   703.4 secs   av.it.:   5.4
      thresh= 7.354E-03 alpha_mix =  0.700 |ddv_scf|^2 =  2.489E-06

      iter #   4 total cpu time :   710.7 secs   av.it.:   7.7
      thresh= 1.578E-04 alpha_mix =  0.700 |ddv_scf|^2 =  3.488E-07

      iter #   5 total cpu time :   716.0 secs   av.it.:   7.7
      thresh= 5.906E-05 alpha_mix =  0.700 |ddv_scf|^2 =  1.571E-09

      iter #   6 total cpu time :   736.7 secs   av.it.:   8.7
      thresh= 3.964E-06 alpha_mix =  0.700 |ddv_scf|^2 =  7.868E-11

      iter #   7 total cpu time :   743.5 secs   av.it.:   8.6
      thresh= 8.870E-07 alpha_mix =  0.700 |ddv_scf|^2 =  9.887E-11

      iter #   8 total cpu time :   749.9 secs   av.it.:   7.0
      thresh= 9.943E-07 alpha_mix =  0.700 |ddv_scf|^2 =  4.187E-11

      iter #   9 total cpu time :   756.4 secs   av.it.:   7.6
      thresh= 6.471E-07 alpha_mix =  0.700 |ddv_scf|^2 =  9.000E-13

      iter #  10 total cpu time :   765.4 secs   av.it.:   7.8
      thresh= 9.487E-08 alpha_mix =  0.700 |ddv_scf|^2 =  8.766E-13

      iter #  11 total cpu time :   774.3 secs   av.it.:   7.5
      thresh= 9.363E-08 alpha_mix =  0.700 |ddv_scf|^2 =  7.580E-15

      iter #  12 total cpu time :   783.8 secs   av.it.:   8.4
      thresh= 8.706E-09 alpha_mix =  0.700 |ddv_scf|^2 =  2.297E-15

      iter #  13 total cpu time :   788.3 secs   av.it.:   8.3
      thresh= 4.793E-09 alpha_mix =  0.700 |ddv_scf|^2 =  8.388E-16

     End of self-consistent calculation

     Convergence has been achieved 


     Representation #  2 mode #   2

     Self-consistent Calculation

      iter #   1 total cpu time :   797.4 secs   av.it.:   5.7
      thresh= 1.000E-02 alpha_mix =  0.700 |ddv_scf|^2 =  4.743E-05

      iter #   2 total cpu time :   803.6 secs   av.it.:   7.8
      thresh= 6.887E-04 alpha_mix =  0.700 |ddv_scf|^2 =  5.657E-04

      iter #   3 total cpu time :   809.8 secs   av.it.:   5.8
      thresh= 2.378E-03 alpha_mix =  0.700 |ddv_scf|^2 =  1.830E-05

      iter #   4 total cpu time :   817.0 secs   av.it.:   7.1
      thresh= 4.278E-04 alpha_mix =  0.700 |ddv_scf|^2 =  8.627E-08

      iter #   5 total cpu time :   821.9 secs   av.it.:   8.5
      thresh= 2.937E-05 alpha_mix =  0.700 |ddv_scf|^2 =  9.867E-10

      iter #   6 total cpu time :   832.3 secs   av.it.:   8.8
      thresh= 3.141E-06 alpha_mix =  0.700 |ddv_scf|^2 =  8.177E-11

      iter #   7 total cpu time :   848.6 secs   av.it.:   8.7
      thresh= 9.043E-07 alpha_mix =  0.700 |ddv_scf|^2 =  4.959E-11

      iter #   8 total cpu time :   856.5 secs   av.it.:   7.7
      thresh= 7.042E-07 alpha_mix =  0.700 |ddv_scf|^2 =  1.895E-10

      iter #   9 total cpu time :   864.3 secs   av.it.:   6.8
      thresh= 1.376E-06 alpha_mix =  0.700 |ddv_scf|^2 =  3.937E-12

      iter #  10 total cpu time :   873.4 secs   av.it.:   7.6
      thresh= 1.984E-07 alpha_mix =  0.700 |ddv_scf|^2 =  4.180E-12

      iter #  11 total cpu time :   892.5 secs   av.it.:   7.5
      thresh= 2.045E-07 alpha_mix =  0.700 |ddv_scf|^2 =  1.076E-14

      iter #  12 total cpu time :   903.2 secs   av.it.:   8.4
      thresh= 1.037E-08 alpha_mix =  0.700 |ddv_scf|^2 =  2.917E-15

      iter #  13 total cpu time :   912.4 secs   av.it.:   8.4
      thresh= 5.401E-09 alpha_mix =  0.700 |ddv_scf|^2 =  9.926E-17

     End of self-consistent calculation

     Convergence has been achieved 


     Representation #  3 mode #   3

     Self-consistent Calculation

      iter #   1 total cpu time :   924.3 secs   av.it.:   5.8
      thresh= 1.000E-02 alpha_mix =  0.700 |ddv_scf|^2 =  3.166E-04

      iter #   2 total cpu time :   938.6 secs   av.it.:   7.5
      thresh= 1.779E-03 alpha_mix =  0.700 |ddv_scf|^2 =  6.277E-03

      iter #   3 total cpu time :   944.4 secs   av.it.:   5.4
      thresh= 7.922E-03 alpha_mix =  0.700 |ddv_scf|^2 =  8.124E-07

      iter #   4 total cpu time :   952.1 secs   av.it.:   7.9
      thresh= 9.013E-05 alpha_mix =  0.700 |ddv_scf|^2 =  3.658E-07

      iter #   5 total cpu time :   959.3 secs   av.it.:   7.6
      thresh= 6.048E-05 alpha_mix =  0.700 |ddv_scf|^2 =  1.937E-09

      iter #   6 total cpu time :   967.8 secs   av.it.:   8.7
      thresh= 4.401E-06 alpha_mix =  0.700 |ddv_scf|^2 =  9.461E-11

      iter #   7 total cpu time :   975.2 secs   av.it.:   8.5
      thresh= 9.727E-07 alpha_mix =  0.700 |ddv_scf|^2 =  3.062E-12

      iter #   8 total cpu time :   982.3 secs   av.it.:   8.9
      thresh= 1.750E-07 alpha_mix =  0.700 |ddv_scf|^2 =  1.262E-11

      iter #   9 total cpu time :   991.3 secs   av.it.:   7.1
      thresh= 3.553E-07 alpha_mix =  0.700 |ddv_scf|^2 =  2.434E-12

      iter #  10 total cpu time :   996.4 secs   av.it.:   7.8
      thresh= 1.560E-07 alpha_mix =  0.700 |ddv_scf|^2 =  5.461E-13

      iter #  11 total cpu time :  1003.3 secs   av.it.:   7.1
      thresh= 7.390E-08 alpha_mix =  0.700 |ddv_scf|^2 =  2.073E-14

      iter #  12 total cpu time :  1009.7 secs   av.it.:   8.1
      thresh= 1.440E-08 alpha_mix =  0.700 |ddv_scf|^2 =  1.916E-15

      iter #  13 total cpu time :  1017.1 secs   av.it.:   8.1
      thresh= 4.377E-09 alpha_mix =  0.700 |ddv_scf|^2 =  2.094E-16

     End of self-consistent calculation

     Convergence has been achieved 


     Representation #  4 mode #   4

     Self-consistent Calculation

      iter #   1 total cpu time :  1023.7 secs   av.it.:   5.7
      thresh= 1.000E-02 alpha_mix =  0.700 |ddv_scf|^2 =  8.743E-05

      iter #   2 total cpu time :  1031.0 secs   av.it.:   7.8
      thresh= 9.350E-04 alpha_mix =  0.700 |ddv_scf|^2 =  1.433E-03

      iter #   3 total cpu time :  1039.6 secs   av.it.:   5.6
      thresh= 3.785E-03 alpha_mix =  0.700 |ddv_scf|^2 =  9.112E-06

      iter #   4 total cpu time :  1048.6 secs   av.it.:   7.4
      thresh= 3.019E-04 alpha_mix =  0.700 |ddv_scf|^2 =  1.366E-07

      iter #   5 total cpu time :  1055.1 secs   av.it.:   8.1
      thresh= 3.696E-05 alpha_mix =  0.700 |ddv_scf|^2 =  1.123E-09

      iter #   6 total cpu time :  1064.1 secs   av.it.:   8.8
      thresh= 3.351E-06 alpha_mix =  0.700 |ddv_scf|^2 =  9.615E-11

      iter #   7 total cpu time :  1071.1 secs   av.it.:   8.7
      thresh= 9.805E-07 alpha_mix =  0.700 |ddv_scf|^2 =  3.572E-11

      iter #   8 total cpu time :  1078.2 secs   av.it.:   8.0
      thresh= 5.977E-07 alpha_mix =  0.700 |ddv_scf|^2 =  2.879E-10

      iter #   9 total cpu time :  1085.9 secs   av.it.:   6.6
      thresh= 1.697E-06 alpha_mix =  0.700 |ddv_scf|^2 =  3.987E-12

      iter #  10 total cpu time :  1094.4 secs   av.it.:   7.7
      thresh= 1.997E-07 alpha_mix =  0.700 |ddv_scf|^2 =  3.615E-12

      iter #  11 total cpu time :  1100.3 secs   av.it.:   7.5
      thresh= 1.901E-07 alpha_mix =  0.700 |ddv_scf|^2 =  1.470E-14

      iter #  12 total cpu time :  1109.6 secs   av.it.:   8.3
      thresh= 1.213E-08 alpha_mix =  0.700 |ddv_scf|^2 =  3.773E-15

      iter #  13 total cpu time :  1117.3 secs   av.it.:   8.4
      thresh= 6.143E-09 alpha_mix =  0.700 |ddv_scf|^2 =  9.676E-17

     End of self-consistent calculation

     Convergence has been achieved 


     Representation #  5 mode #   5

     Self-consistent Calculation

      iter #   1 total cpu time :  1124.6 secs   av.it.:   5.3
      thresh= 1.000E-02 alpha_mix =  0.700 |ddv_scf|^2 =  4.075E-06

      iter #   2 total cpu time :  1134.8 secs   av.it.:   8.3
      thresh= 2.019E-04 alpha_mix =  0.700 |ddv_scf|^2 =  6.521E-08

      iter #   3 total cpu time :  1147.2 secs   av.it.:   8.5
      thresh= 2.554E-05 alpha_mix =  0.700 |ddv_scf|^2 =  2.930E-09

      iter #   4 total cpu time :  1158.4 secs   av.it.:   8.0
      thresh= 5.413E-06 alpha_mix =  0.700 |ddv_scf|^2 =  1.352E-11

      iter #   5 total cpu time :  1166.6 secs   av.it.:   8.3
      thresh= 3.677E-07 alpha_mix =  0.700 |ddv_scf|^2 =  9.639E-14

      iter #   6 total cpu time :  1172.9 secs   av.it.:   8.5
      thresh= 3.105E-08 alpha_mix =  0.700 |ddv_scf|^2 =  4.352E-16

     End of self-consistent calculation

     Convergence has been achieved 


     Representation #  6 mode #   6

     Self-consistent Calculation

      iter #   1 total cpu time :  1180.1 secs   av.it.:   5.3
      thresh= 1.000E-02 alpha_mix =  0.700 |ddv_scf|^2 =  4.075E-06

      iter #   2 total cpu time :  1187.4 secs   av.it.:   8.3
      thresh= 2.019E-04 alpha_mix =  0.700 |ddv_scf|^2 =  6.524E-08

      iter #   3 total cpu time :  1195.6 secs   av.it.:   8.5
      thresh= 2.554E-05 alpha_mix =  0.700 |ddv_scf|^2 =  2.938E-09

      iter #   4 total cpu time :  1202.8 secs   av.it.:   8.0
      thresh= 5.420E-06 alpha_mix =  0.700 |ddv_scf|^2 =  1.348E-11

      iter #   5 total cpu time :  1210.3 secs   av.it.:   8.3
      thresh= 3.671E-07 alpha_mix =  0.700 |ddv_scf|^2 =  9.621E-14

      iter #   6 total cpu time :  1221.0 secs   av.it.:   8.5
      thresh= 3.102E-08 alpha_mix =  0.700 |ddv_scf|^2 =  4.354E-16

     End of self-consistent calculation

     Convergence has been achieved 
 
     Number of q in the star =    6
     List of q in the star:
          1   0.000000000   0.288675135   0.153214289
          2   0.000000000   0.288675135  -0.153214289
          3   0.250000000  -0.144337567   0.153214289
          4  -0.250000000  -0.144337567   0.153214289
          5   0.250000000  -0.144337567  -0.153214289
          6  -0.250000000  -0.144337567  -0.153214289
     In addition there is the -q list: 
          1   0.000000000  -0.288675135  -0.153214289
          2   0.000000000  -0.288675135   0.153214289
          3  -0.250000000   0.144337567  -0.153214289
          4   0.250000000   0.144337567  -0.153214289
          5  -0.250000000   0.144337567   0.153214289
          6   0.250000000   0.144337567   0.153214289

     Diagonalizing the dynamical matrix

     q = (    0.000000000   0.288675135   0.153214289 ) 

 **************************************************************************
     freq (    1) =       1.419255 [THz] =      47.341237 [cm-1]
     freq (    2) =       1.675007 [THz] =      55.872209 [cm-1]
     freq (    3) =       2.303896 [THz] =      76.849698 [cm-1]
     freq (    4) =       2.872163 [THz] =      95.805046 [cm-1]
     freq (    5) =       2.982948 [THz] =      99.500423 [cm-1]
     freq (    6) =       3.720818 [THz] =     124.113121 [cm-1]
 **************************************************************************

     Mode symmetry, C_s (m)     point group:

     freq (  1 -  1) =         47.3  [cm-1]   --> A''                
     freq (  2 -  2) =         55.9  [cm-1]   --> A'                 
     freq (  3 -  3) =         76.8  [cm-1]   --> A''                
     freq (  4 -  4) =         95.8  [cm-1]   --> A'                 
     freq (  5 -  5) =         99.5  [cm-1]   --> A'                 
     freq (  6 -  6) =        124.1  [cm-1]   --> A'                 

     Calculation of q =    0.0000000   0.2886751  -0.3064286
 
     Parallelization info
     --------------------
     sticks:   dense  smooth     PW     G-vecs:    dense   smooth      PW
     Min         133      68     20                 5813     2043     372
     Max         134      69     21                 5820     2056     381
     Sum        1069     547    163                46541    16395    3009
 


     bravais-lattice index     =            4
     lattice parameter (alat)  =       6.9835  a.u.
     unit-cell volume          =     481.2685 (a.u.)^3
     number of atoms/cell      =            2
     number of atomic types    =            1
     number of electrons       =        18.00
     number of Kohn-Sham states=           13
     kinetic-energy cutoff     =      40.0000  Ry
     charge density cutoff     =     320.0000  Ry
     Exchange-correlation      = SLA  PW   PBE  PBE ( 1  4  3  4 0 0)

     celldm(1)=   6.983482  celldm(2)=   0.000000  celldm(3)=   1.631702
     celldm(4)=   0.000000  celldm(5)=   0.000000  celldm(6)=   0.000000

     crystal axes: (cart. coord. in units of alat)
               a(1) = (   1.000000   0.000000   0.000000 )  
               a(2) = (  -0.500000   0.866025   0.000000 )  
               a(3) = (   0.000000   0.000000   1.631702 )  

     reciprocal axes: (cart. coord. in units 2 pi/alat)
               b(1) = (  1.000000  0.577350  0.000000 )  
               b(2) = (  0.000000  1.154701  0.000000 )  
               b(3) = (  0.000000  0.000000  0.612857 )  


     PseudoPot. # 1 for Na read from file:
     ./Na_pbe_v1.uspp.F.UPF
     MD5 check sum: 76a99c7e9422403d3e93cbc85ab7bccb
     Pseudo is Ultrasoft, Zval =  9.0
     Generated by new atomic code, or converted to UPF format
     Using radial grid of  819 points,  5 beta functions with: 
                l(1) =   0
                l(2) =   0
                l(3) =   1
                l(4) =   1
                l(5) =   2
     Q(r) pseudized with  8 coefficients,  rinner =    1.250   1.250   1.250
                                                       1.250   1.250

     atomic species   valence    mass     pseudopotential
        Na             9.00    22.99000     Na( 1.00)

     12 Sym. Ops. (no inversion) found



   Cartesian axes

     site n.     atom                  positions (alat units)
         1           Na  tau(   1) = (   0.0000000   0.0000000   0.0000000  )
         2           Na  tau(   2) = (   0.4999999   0.2886751   0.8158508  )

     number of k points=  3600  Marzari-Vanderbilt smearing, width (Ry)=  0.0200

     Number of k-points >= 100: set verbosity='high' to print them.

     Dense  grid:    46541 G-vectors     FFT dimensions: (  40,  40,  72)

     Smooth grid:    16395 G-vectors     FFT dimensions: (  30,  30,  45)

     Largest allocated arrays     est. size (Mb)     dimensions
        Kohn-Sham Wavefunctions         0.05 Mb     (     275,   13)
        NL pseudopotentials             0.11 Mb     (     275,   26)
        Each V/rho on FFT grid          0.22 Mb     (   14400)
        Each G-vector array             0.04 Mb     (    5815)
        G-vector shells                 0.01 Mb     (    1749)
     Largest temporary arrays     est. size (Mb)     dimensions
        Auxiliary wavefunctions         0.22 Mb     (     275,   52)
        Each subspace H/S matrix        0.01 Mb     (      26,   26)
        Each <psi_i|beta_j> matrix      0.01 Mb     (      26,   13)

     The potential is recalculated from file :
     ./na_hcp_6.98348186215975/_ph0/na_hcp_6.98348186215975.save/charge-density.dat

     Starting wfc are   10 atomic +    3 random wfc

     Band Structure Calculation
     Davidson diagonalization with overlap

     ethr =  5.56E-11,  avg # of iterations = 22.7

     total cpu time spent up to now is       68.4 secs

     End of band structure calculation

     Number of k-points >= 100: set verbosity='high' to print the bands.

     the Fermi energy is     1.7689 ev

     Writing output data file na_hcp_6.98348186215975.save

                                                                                

     bravais-lattice index     =            4
     lattice parameter (alat)  =       6.9835  a.u.
     unit-cell volume          =     481.2685 (a.u.)^3
     number of atoms/cell      =            2
     number of atomic types    =            1
     kinetic-energy cut-off    =      40.0000  Ry
     charge density cut-off    =     320.0000  Ry
     convergence threshold     =      1.0E-15
     beta                      =       0.7000
     number of iterations used =            4
     Exchange-correlation      = SLA  PW   PBE  PBE ( 1  4  3  4 0 0)


     celldm(1)=    6.98348  celldm(2)=    0.00000  celldm(3)=    1.63170
     celldm(4)=    0.00000  celldm(5)=    0.00000  celldm(6)=    0.00000

     crystal axes: (cart. coord. in units of alat)
               a(1) = (  1.0000  0.0000  0.0000 )  
               a(2) = ( -0.5000  0.8660  0.0000 )  
               a(3) = (  0.0000  0.0000  1.6317 )  

     reciprocal axes: (cart. coord. in units 2 pi/alat)
               b(1) = (  1.0000  0.5774  0.0000 )  
               b(2) = (  0.0000  1.1547  0.0000 )  
               b(3) = (  0.0000  0.0000  0.6129 )  


     Atoms inside the unit cell: 

     Cartesian axes

     site n.  atom      mass           positions (alat units)
[...]
         1           Na  tau(   1) = (   0.0000000   0.0000000   0.0000000  )
         2           Na  tau(   2) = (   0.4999999   0.2886751   0.8158508  )

     number of k points=  6912  Marzari-Vanderbilt smearing, width (Ry)=  0.0200

     Number of k-points >= 100: set verbosity='high' to print them.

     Dense  grid:    46541 G-vectors     FFT dimensions: (  40,  40,  72)

     Smooth grid:    16395 G-vectors     FFT dimensions: (  30,  30,  45)

     Largest allocated arrays     est. size (Mb)     dimensions
        Kohn-Sham Wavefunctions         0.05 Mb     (     273,   13)
        NL pseudopotentials             0.11 Mb     (     273,   26)
        Each V/rho on FFT grid          0.22 Mb     (   14400)
        Each G-vector array             0.04 Mb     (    5815)
        G-vector shells                 0.01 Mb     (    1716)
     Largest temporary arrays     est. size (Mb)     dimensions
        Auxiliary wavefunctions         0.22 Mb     (     273,   52)
        Each subspace H/S matrix        0.01 Mb     (      26,   26)
        Each <psi_i|beta_j> matrix      0.01 Mb     (      26,   13)

     The potential is recalculated from file :
     ./na_hcp_6.98348186215975/_ph0/na_hcp_6.98348186215975.save/charge-density.dat

     Starting wfc are   10 atomic +    3 random wfc

     Band Structure Calculation
     Davidson diagonalization with overlap

     ethr =  5.56E-11,  avg # of iterations = 22.4

     total cpu time spent up to now is      231.8 secs

     End of band structure calculation

     Number of k-points >= 100: set verbosity='high' to print the bands.

     the Fermi energy is     1.7689 ev

     Writing output data file na_hcp_6.98348186215975.save

                                                                                

     bravais-lattice index     =            4
     lattice parameter (alat)  =       6.9835  a.u.
     unit-cell volume          =     481.2685 (a.u.)^3
     number of atoms/cell      =            2
     number of atomic types    =            1
     kinetic-energy cut-off    =      40.0000  Ry
     charge density cut-off    =     320.0000  Ry
     convergence threshold     =      1.0E-15
     beta                      =       0.7000
     number of iterations used =            4
     Exchange-correlation      = SLA  PW   PBE  PBE ( 1  4  3  4 0 0)


     celldm(1)=    6.98348  celldm(2)=    0.00000  celldm(3)=    1.63170
     celldm(4)=    0.00000  celldm(5)=    0.00000  celldm(6)=    0.00000

     crystal axes: (cart. coord. in units of alat)
               a(1) = (  1.0000  0.0000  0.0000 )  
               a(2) = ( -0.5000  0.8660  0.0000 )  
               a(3) = (  0.0000  0.0000  1.6317 )  

     reciprocal axes: (cart. coord. in units 2 pi/alat)
               b(1) = (  1.0000  0.5774  0.0000 )  
               b(2) = (  0.0000  1.1547  0.0000 )  
               b(3) = (  0.0000  0.0000  0.6129 )  


     Atoms inside the unit cell: 

     Cartesian axes

     site n.  atom      mass           positions (alat units)
        1     Na  22.9900   tau(    1) = (    0.00000    0.00000    0.00000  )
        2     Na  22.9900   tau(    2) = (    0.50000    0.28868    0.81585  )

     Computing dynamical matrix for 
                    q = (   0.2500000   0.4330127  -0.3064286 )
 
      2 Sym.Ops. (no q -> -q+G )


     G cutoff =  395.3068  (   5815 G-vectors)     FFT grid: ( 40, 40, 72)
     G cutoff =  197.6534  (   2054 G-vectors)  smooth grid: ( 30, 30, 45)

     number of k points=  6912  Marzari-Vanderbilt smearing, width (Ry)=  0.0200

     PseudoPot. # 1 for Na read from file:
     ./Na_pbe_v1.uspp.F.UPF
     MD5 check sum: 76a99c7e9422403d3e93cbc85ab7bccb
     Pseudo is Ultrasoft, Zval =  9.0
     Generated by new atomic code, or converted to UPF format
     Using radial grid of  819 points,  5 beta functions with: 
                l(1) =   0
                l(2) =   0
                l(3) =   1
                l(4) =   1
                l(5) =   2
     Q(r) pseudized with  8 coefficients,  rinner =    1.250   1.250   1.250
                                                       1.250   1.250

     Mode symmetry, C_s (m)     point group:


     Atomic displacements:
     There are   6 irreducible representations

     Representation     1      1 modes -A'  To be done

     Representation     2      1 modes -A'  To be done

     Representation     3      1 modes -A'  To be done

     Representation     4      1 modes -A''  To be done

     Representation     5      1 modes -A''  To be done

     Representation     6      1 modes -A''  To be done



     Alpha used in Ewald sum =   2.8000
     PHONON       :     0h56m CPU        1h 1m WALL



     Representation #  1 mode #   1

     Self-consistent Calculation

      iter #   1 total cpu time :  3722.0 secs   av.it.:   5.7
      thresh= 1.000E-02 alpha_mix =  0.700 |ddv_scf|^2 =  2.006E-05

      iter #   2 total cpu time :  3733.0 secs   av.it.:   8.4
      thresh= 4.479E-04 alpha_mix =  0.700 |ddv_scf|^2 =  1.233E-05

      iter #   3 total cpu time :  3755.0 secs   av.it.:   7.7
      thresh= 3.511E-04 alpha_mix =  0.700 |ddv_scf|^2 =  4.101E-08

      iter #   4 total cpu time :  3776.0 secs   av.it.:   8.8
      thresh= 2.025E-05 alpha_mix =  0.700 |ddv_scf|^2 =  1.564E-09

      iter #   5 total cpu time :  3785.5 secs   av.it.:   8.9
      thresh= 3.954E-06 alpha_mix =  0.700 |ddv_scf|^2 =  7.620E-11

      iter #   6 total cpu time :  3792.9 secs   av.it.:   9.0
      thresh= 8.730E-07 alpha_mix =  0.700 |ddv_scf|^2 =  5.507E-12

      iter #   7 total cpu time :  3815.1 secs   av.it.:   8.8
      thresh= 2.347E-07 alpha_mix =  0.700 |ddv_scf|^2 =  3.924E-14

      iter #   8 total cpu time :  3825.4 secs   av.it.:   8.8
      thresh= 1.981E-08 alpha_mix =  0.700 |ddv_scf|^2 =  1.012E-15

      iter #   9 total cpu time :  3835.5 secs   av.it.:   8.5
      thresh= 3.182E-09 alpha_mix =  0.700 |ddv_scf|^2 =  1.024E-16

     End of self-consistent calculation

     Convergence has been achieved 


     Representation #  2 mode #   2

     Self-consistent Calculation

      iter #   1 total cpu time :  3846.8 secs   av.it.:   5.6
      thresh= 1.000E-02 alpha_mix =  0.700 |ddv_scf|^2 =  1.082E-05

      iter #   2 total cpu time :  3854.2 secs   av.it.:   8.6
      thresh= 3.290E-04 alpha_mix =  0.700 |ddv_scf|^2 =  5.265E-06

      iter #   3 total cpu time :  3861.8 secs   av.it.:   7.8
      thresh= 2.294E-04 alpha_mix =  0.700 |ddv_scf|^2 =  6.485E-08

      iter #   4 total cpu time :  3870.0 secs   av.it.:   8.6
      thresh= 2.547E-05 alpha_mix =  0.700 |ddv_scf|^2 =  1.338E-09

      iter #   5 total cpu time :  3878.6 secs   av.it.:   8.7
      thresh= 3.657E-06 alpha_mix =  0.700 |ddv_scf|^2 =  1.120E-10

      iter #   6 total cpu time :  3887.2 secs   av.it.:   8.7
      thresh= 1.058E-06 alpha_mix =  0.700 |ddv_scf|^2 =  3.433E-12

      iter #   7 total cpu time :  3895.8 secs   av.it.:   9.1
      thresh= 1.853E-07 alpha_mix =  0.700 |ddv_scf|^2 =  7.065E-14

      iter #   8 total cpu time :  3904.7 secs   av.it.:   8.9
      thresh= 2.658E-08 alpha_mix =  0.700 |ddv_scf|^2 =  4.250E-15

      iter #   9 total cpu time :  3914.3 secs   av.it.:   8.9
      thresh= 6.519E-09 alpha_mix =  0.700 |ddv_scf|^2 =  1.616E-16

     End of self-consistent calculation

     Convergence has been achieved 


     Representation #  3 mode #   3

     Self-consistent Calculation

      iter #   1 total cpu time :  3924.3 secs   av.it.:   5.7
      thresh= 1.000E-02 alpha_mix =  0.700 |ddv_scf|^2 =  7.802E-06

      iter #   2 total cpu time :  3932.0 secs   av.it.:   8.7
      thresh= 2.793E-04 alpha_mix =  0.700 |ddv_scf|^2 =  1.362E-06

      iter #   3 total cpu time :  3940.3 secs   av.it.:   7.9
      thresh= 1.167E-04 alpha_mix =  0.700 |ddv_scf|^2 =  1.889E-07

      iter #   4 total cpu time :  3949.0 secs   av.it.:   8.0
      thresh= 4.346E-05 alpha_mix =  0.700 |ddv_scf|^2 =  2.625E-09

      iter #   5 total cpu time :  3957.5 secs   av.it.:   8.7
      thresh= 5.124E-06 alpha_mix =  0.700 |ddv_scf|^2 =  4.623E-11

      iter #   6 total cpu time :  3965.6 secs   av.it.:   8.7
      thresh= 6.799E-07 alpha_mix =  0.700 |ddv_scf|^2 =  1.978E-12

      iter #   7 total cpu time :  3973.9 secs   av.it.:   9.2
      thresh= 1.406E-07 alpha_mix =  0.700 |ddv_scf|^2 =  9.146E-14

      iter #   8 total cpu time :  3981.3 secs   av.it.:   9.2
      thresh= 3.024E-08 alpha_mix =  0.700 |ddv_scf|^2 =  9.163E-16

     End of self-consistent calculation

     Convergence has been achieved 


     Representation #  4 mode #   4

     Self-consistent Calculation

      iter #   1 total cpu time :  3990.2 secs   av.it.:   5.6
      thresh= 1.000E-02 alpha_mix =  0.700 |ddv_scf|^2 =  7.969E-06

      iter #   2 total cpu time :  4000.1 secs   av.it.:   8.7
      thresh= 2.823E-04 alpha_mix =  0.700 |ddv_scf|^2 =  1.523E-06

      iter #   3 total cpu time :  4007.8 secs   av.it.:   7.9
      thresh= 1.234E-04 alpha_mix =  0.700 |ddv_scf|^2 =  1.899E-07

      iter #   4 total cpu time :  4016.8 secs   av.it.:   8.0
      thresh= 4.357E-05 alpha_mix =  0.700 |ddv_scf|^2 =  2.538E-09

      iter #   5 total cpu time :  4025.1 secs   av.it.:   8.7
      thresh= 5.038E-06 alpha_mix =  0.700 |ddv_scf|^2 =  4.695E-11

      iter #   6 total cpu time :  4035.1 secs   av.it.:   8.7
      thresh= 6.852E-07 alpha_mix =  0.700 |ddv_scf|^2 =  2.150E-12

      iter #   7 total cpu time :  4044.0 secs   av.it.:   9.2
      thresh= 1.466E-07 alpha_mix =  0.700 |ddv_scf|^2 =  9.682E-14

      iter #   8 total cpu time :  4052.2 secs   av.it.:   9.2
      thresh= 3.112E-08 alpha_mix =  0.700 |ddv_scf|^2 =  9.389E-16

     End of self-consistent calculation

     Convergence has been achieved 


     Representation #  5 mode #   5

     Self-consistent Calculation

      iter #   1 total cpu time :  4060.4 secs   av.it.:   5.6
      thresh= 1.000E-02 alpha_mix =  0.700 |ddv_scf|^2 =  1.082E-05

      iter #   2 total cpu time :  4081.9 secs   av.it.:   8.6
      thresh= 3.290E-04 alpha_mix =  0.700 |ddv_scf|^2 =  5.265E-06

      iter #   3 total cpu time :  4091.8 secs   av.it.:   7.8
      thresh= 2.295E-04 alpha_mix =  0.700 |ddv_scf|^2 =  6.484E-08

      iter #   4 total cpu time :  4100.4 secs   av.it.:   8.6
      thresh= 2.546E-05 alpha_mix =  0.700 |ddv_scf|^2 =  1.339E-09

      iter #   5 total cpu time :  4109.2 secs   av.it.:   8.7
      thresh= 3.659E-06 alpha_mix =  0.700 |ddv_scf|^2 =  1.122E-10

      iter #   6 total cpu time :  4117.2 secs   av.it.:   8.7
      thresh= 1.059E-06 alpha_mix =  0.700 |ddv_scf|^2 =  3.435E-12

      iter #   7 total cpu time :  4126.3 secs   av.it.:   9.1
      thresh= 1.853E-07 alpha_mix =  0.700 |ddv_scf|^2 =  7.069E-14

      iter #   8 total cpu time :  4135.6 secs   av.it.:   8.9
      thresh= 2.659E-08 alpha_mix =  0.700 |ddv_scf|^2 =  4.252E-15

      iter #   9 total cpu time :  4143.9 secs   av.it.:   8.9
      thresh= 6.521E-09 alpha_mix =  0.700 |ddv_scf|^2 =  1.621E-16

     End of self-consistent calculation

     Convergence has been achieved 


     Representation #  6 mode #   6

     Self-consistent Calculation

      iter #   1 total cpu time :  4153.3 secs   av.it.:   5.7
      thresh= 1.000E-02 alpha_mix =  0.700 |ddv_scf|^2 =  1.989E-05

      iter #   2 total cpu time :  4164.3 secs   av.it.:   8.4
      thresh= 4.460E-04 alpha_mix =  0.700 |ddv_scf|^2 =  1.217E-05

      iter #   3 total cpu time :  4176.8 secs   av.it.:   7.7
      thresh= 3.488E-04 alpha_mix =  0.700 |ddv_scf|^2 =  4.170E-08

      iter #   4 total cpu time :  4185.5 secs   av.it.:   8.8
      thresh= 2.042E-05 alpha_mix =  0.700 |ddv_scf|^2 =  1.582E-09

      iter #   5 total cpu time :  4195.9 secs   av.it.:   8.9
      thresh= 3.978E-06 alpha_mix =  0.700 |ddv_scf|^2 =  7.552E-11

      iter #   6 total cpu time :  4207.5 secs   av.it.:   9.0
      thresh= 8.690E-07 alpha_mix =  0.700 |ddv_scf|^2 =  5.521E-12

      iter #   7 total cpu time :  4216.9 secs   av.it.:   8.8
      thresh= 2.350E-07 alpha_mix =  0.700 |ddv_scf|^2 =  3.943E-14

      iter #   8 total cpu time :  4228.3 secs   av.it.:   8.8
      thresh= 1.986E-08 alpha_mix =  0.700 |ddv_scf|^2 =  1.052E-15

      iter #   9 total cpu time :  4241.9 secs   av.it.:   8.6
      thresh= 3.243E-09 alpha_mix =  0.700 |ddv_scf|^2 =  9.883E-17

     End of self-consistent calculation

     Convergence has been achieved 
 
     Number of q in the star =    6
     List of q in the star:
          1   0.250000000   0.433012702  -0.306428577
          2  -0.250000000   0.433012702  -0.306428577
          3   0.250000000  -0.433012702  -0.306428577
          4  -0.500000000   0.000000000  -0.306428577
          5   0.500000000   0.000000000  -0.306428577
          6  -0.250000000  -0.433012702  -0.306428577

     Diagonalizing the dynamical matrix

     q = (    0.250000000   0.433012702  -0.306428577 ) 

 **************************************************************************
     freq (    1) =       2.075082 [THz] =      69.217293 [cm-1]
     freq (    2) =       2.081848 [THz] =      69.442987 [cm-1]
     freq (    3) =       3.119958 [THz] =     104.070593 [cm-1]
     freq (    4) =       3.126717 [THz] =     104.296041 [cm-1]
     freq (    5) =       3.870966 [THz] =     129.121529 [cm-1]
     freq (    6) =       3.878109 [THz] =     129.359792 [cm-1]
 **************************************************************************

     Mode symmetry, C_s (m)     point group:

     freq (  1 -  1) =         69.2  [cm-1]   --> A'                 
     freq (  2 -  2) =         69.4  [cm-1]   --> A''                
     freq (  3 -  3) =        104.1  [cm-1]   --> A'                 
     freq (  4 -  4) =        104.3  [cm-1]   --> A''                
     freq (  5 -  5) =        129.1  [cm-1]   --> A'                 
     freq (  6 -  6) =        129.4  [cm-1]   --> A''                
 
     init_run     :      1.49s CPU      1.68s WALL (      11 calls)
     electrons    :    161.38s CPU    164.82s WALL (      11 calls)

     Called by init_run:
     wfcinit      :      0.00s CPU      0.12s WALL (      11 calls)
     potinit      :      0.26s CPU      0.32s WALL (      11 calls)

     Called by electrons:
     c_bands      :    161.30s CPU    164.74s WALL (      11 calls)
     v_of_rho     :      0.10s CPU      0.09s WALL (      12 calls)
     newd         :      0.14s CPU      0.14s WALL (      12 calls)

     Called by c_bands:
     init_us_2    :      5.38s CPU      5.47s WALL (   80220 calls)
     cegterg      :    101.93s CPU    103.89s WALL (    4176 calls)

     Called by sum_band:

     Called by *egterg:
     h_psi        :     59.62s CPU     61.14s WALL (   67489 calls)
     s_psi        :     67.84s CPU     70.65s WALL ( 1873375 calls)
     g_psi        :      0.58s CPU      0.62s WALL (   60959 calls)
     cdiaghg      :     29.07s CPU     29.70s WALL (   63313 calls)

     Called by h_psi:
     add_vuspsi   :     38.62s CPU     40.58s WALL (  936879 calls)

     General routines
     calbec       :     99.48s CPU    105.00s WALL ( 1992973 calls)
     fft          :      2.68s CPU      2.66s WALL (    9758 calls)
     ffts         :      0.98s CPU      1.11s WALL (    9607 calls)
     fftw         :   1960.21s CPU   1999.82s WALL (14359953 calls)
     interpolate  :      0.73s CPU      0.73s WALL (    1341 calls)
     davcio       :     14.72s CPU    259.64s WALL (  348691 calls)
 
     Parallel routines
     fft_scatter  :   1370.86s CPU   1389.29s WALL (14379318 calls)
 
     PHONON       :     1h 4m CPU        1h10m WALL

     INITIALIZATION: 
     phq_setup    :      0.32s CPU      0.52s WALL (      12 calls)
     phq_init     :     15.89s CPU     16.80s WALL (      12 calls)
 
     phq_init     :     15.89s CPU     16.80s WALL (      12 calls)
     init_vloc    :      0.13s CPU      0.12s WALL (      12 calls)
     init_us_1    :      0.48s CPU      0.48s WALL (      12 calls)
     newd         :      0.14s CPU      0.14s WALL (      12 calls)
     dvanqq       :      1.39s CPU      1.39s WALL (      12 calls)
     drho         :     11.30s CPU     11.75s WALL (      12 calls)
 
     DYNAMICAL MATRIX:
     dynmat0      :      2.02s CPU      2.32s WALL (      12 calls)
     phqscf       :   3638.48s CPU   3972.50s WALL (      12 calls)
     dynmatrix    :      0.03s CPU      0.69s WALL (      12 calls)
 
     phqscf       :   3638.48s CPU   3972.50s WALL (      12 calls)
     solve_linter :   3634.69s CPU   3966.48s WALL (      66 calls)
     drhodv       :      3.66s CPU      3.99s WALL (      66 calls)
 
     dynmat0      :      2.02s CPU      2.32s WALL (      12 calls)
     dynmat_us    :      1.99s CPU      2.02s WALL (      12 calls)
     d2ionq       :      0.02s CPU      0.03s WALL (      12 calls)
 
     dynmat_us    :      1.99s CPU      2.02s WALL (      12 calls)
     addusdynmat  :      0.00s CPU      0.00s WALL (      12 calls)
 
     phqscf       :   3638.48s CPU   3972.50s WALL (      12 calls)
     solve_linter :   3634.69s CPU   3966.48s WALL (      66 calls)
 
     solve_linter :   3634.69s CPU   3966.48s WALL (      66 calls)
     dvqpsi_us    :     16.46s CPU     17.47s WALL (    7158 calls)
     ortho        :     37.02s CPU     37.88s WALL (   67106 calls)
     cgsolve      :   1037.44s CPU   1076.22s WALL (   67106 calls)
     incdrhoscf   :   1220.08s CPU   1230.20s WALL (   67106 calls)
     addusddens   :      8.74s CPU      8.81s WALL (     651 calls)
     vpsifft      :     72.54s CPU     78.28s WALL (   59948 calls)
     dv_of_drho   :      3.23s CPU      3.25s WALL (     621 calls)
     mix_pot      :      3.31s CPU     12.46s WALL (     585 calls)
     ef_shift     :      0.05s CPU      0.70s WALL (      30 calls)
     localdos     :      0.14s CPU      0.15s WALL (       4 calls)
     psymdvscf    :     16.36s CPU     16.36s WALL (     522 calls)
     newdq        :      7.76s CPU      7.85s WALL (     585 calls)
     adddvscf     :      4.86s CPU      5.55s WALL (   59948 calls)
     drhodvus     :      0.08s CPU      0.06s WALL (      66 calls)
 
     dvqpsi_us    :     16.46s CPU     17.47s WALL (    7158 calls)
     dvqpsi_us_on :      4.10s CPU      4.23s WALL (    7158 calls)
 
     cgsolve      :   1037.44s CPU   1076.22s WALL (   67106 calls)
     ch_psi       :   1000.05s CPU   1037.05s WALL (  869390 calls)
 
     ch_psi       :   1000.05s CPU   1037.05s WALL (  869390 calls)
     h_psiq       :    869.77s CPU    901.07s WALL (  869390 calls)
     last         :    124.77s CPU    130.53s WALL (  869390 calls)
 
     h_psiq       :    869.77s CPU    901.07s WALL (  869390 calls)
     firstfft     :    404.86s CPU    418.03s WALL ( 5433599 calls)
     secondfft    :    310.68s CPU    322.41s WALL ( 5433599 calls)
     add_vuspsi   :     38.62s CPU     40.58s WALL (  936879 calls)
 
     incdrhoscf   :   1220.08s CPU   1230.20s WALL (   67106 calls)
     addusdbec    :      6.46s CPU      6.78s WALL (   74264 calls)
 
     drhodvus     :      0.08s CPU      0.06s WALL (      66 calls)
 
      General routines
     calbec       :     99.48s CPU    105.00s WALL ( 1992973 calls)
     fft          :      2.68s CPU      2.66s WALL (    9758 calls)
     ffts         :      0.98s CPU      1.11s WALL (    9607 calls)
     fftw         :   1960.21s CPU   1999.82s WALL (14359953 calls)
     davcio       :     14.72s CPU    259.64s WALL (  348691 calls)
     write_rec    :      1.25s CPU     19.20s WALL (     651 calls)
 
 
     PHONON       :     1h 4m CPU        1h10m WALL

 
   This run was terminated on:   2:56:59  27Mar2018            

=------------------------------------------------------------------------------=
   JOB DONE.
=------------------------------------------------------------------------------=
Application 30370474 resources: utime ~755158s, stime ~11244s, Rss ~49320, inblocks ~6052161498, outblocks ~1892664652
