
     Program PHONON v.5.4.0 starts on 27Mar2018 at  2:58: 2 

     This program is part of the open-source Quantum ESPRESSO suite
     for quantum simulation of materials; please cite
         "P. Giannozzi et al., J. Phys.:Condens. Matter 21 395502 (2009);
          URL http://www.quantum-espresso.org", 
     in publications or presentations arising from this work. More details at
     http://www.quantum-espresso.org/quote

     Parallel version (MPI & OpenMP), running on     192 processor cores
     Number of MPI processes:               192
     Threads/MPI process:                     1
     K-points division:     npool     =      24
     R & G space division:  proc/nbgrp/npool/nimage =       8

     Reading data from directory:
     ./na_hcp_6.99410908717325/na_hcp_6.99410908717325.save

   Info: using nr1, nr2, nr3 values from input

   Info: using nr1, nr2, nr3 values from input

     IMPORTANT: XC functional enforced from input :
     Exchange-correlation      = SLA  PW   PBE  PBE ( 1  4  3  4 0 0)
     Any further DFT definition will be discarded
     Please, verify this is what you really want

 
     Parallelization info
     --------------------
     sticks:   dense  smooth     PW     G-vecs:    dense   smooth      PW
     Min         133      68     20                 5835     2056     346
     Max         134      69     21                 5844     2068     351
     Sum        1069     547    163                46721    16503    2779
 


     Dynamical matrices for ( 4, 4, 4)  uniform grid of q-points
     (  12q-points):
       N         xq(1)         xq(2)         xq(3) 
       1   0.000000000   0.000000000   0.000000000
       2   0.000000000   0.000000000   0.153314970
       3   0.000000000   0.000000000  -0.306629940
       4   0.000000000   0.288675135   0.000000000
       5   0.000000000   0.288675135   0.153314970
       6   0.000000000   0.288675135  -0.306629940
       7   0.000000000  -0.577350269   0.000000000
       8   0.000000000  -0.577350269   0.153314970
       9   0.000000000  -0.577350269  -0.306629940
      10   0.250000000   0.433012702   0.000000000
      11   0.250000000   0.433012702   0.153314970
      12   0.250000000   0.433012702  -0.306629940

     Calculation of q =    0.0000000   0.0000000   0.0000000

                                                                                

     bravais-lattice index     =            4
     lattice parameter (alat)  =       6.9941  a.u.
     unit-cell volume          =     483.1514 (a.u.)^3
     number of atoms/cell      =            2
     number of atomic types    =            1
     kinetic-energy cut-off    =      40.0000  Ry
     charge density cut-off    =     320.0000  Ry
     convergence threshold     =      1.0E-15
     beta                      =       0.7000
     number of iterations used =            4
     Exchange-correlation      = SLA  PW   PBE  PBE ( 1  4  3  4 0 0)


     celldm(1)=    6.99411  celldm(2)=    0.00000  celldm(3)=    1.63063
     celldm(4)=    0.00000  celldm(5)=    0.00000  celldm(6)=    0.00000

     crystal axes: (cart. coord. in units of alat)
               a(1) = (  1.0000  0.0000  0.0000 )  
               a(2) = ( -0.5000  0.8660  0.0000 )  
               a(3) = (  0.0000  0.0000  1.6306 )  

     reciprocal axes: (cart. coord. in units 2 pi/alat)
               b(1) = (  1.0000  0.5774  0.0000 )  
               b(2) = (  0.0000  1.1547  0.0000 )  
               b(3) = (  0.0000  0.0000  0.6133 )  


     Atoms inside the unit cell: 

     Cartesian axes

     site n.  atom      mass           positions (alat units)
        1     Na  22.9900   tau(    1) = (    0.00000    0.00000    0.00000  )
        2     Na  22.9900   tau(    2) = (    0.50000    0.28868    0.81532  )

     Computing dynamical matrix for 
                    q = (   0.0000000   0.0000000   0.0000000 )
 
     13 Sym.Ops. (with q -> -q+G )


     G cutoff =  396.5108  (   5844 G-vectors)     FFT grid: ( 40, 40, 72)
     G cutoff =  198.2554  (   2066 G-vectors)  smooth grid: ( 30, 30, 45)

     number of k points=   366  Marzari-Vanderbilt smearing, width (Ry)=  0.0200

     PseudoPot. # 1 for Na read from file:
     ./Na_pbe_v1.uspp.F.UPF
     MD5 check sum: 76a99c7e9422403d3e93cbc85ab7bccb
     Pseudo is Ultrasoft, Zval =  9.0
     Generated by new atomic code, or converted to UPF format
     Using radial grid of  819 points,  5 beta functions with: 
                l(1) =   0
                l(2) =   0
                l(3) =   1
                l(4) =   1
                l(5) =   2
     Q(r) pseudized with  8 coefficients,  rinner =    1.250   1.250   1.250
                                                       1.250   1.250

     Mode symmetry, D_3h (-62m) point group:


     Atomic displacements:
     There are   4 irreducible representations

     Representation     1      2 modes -E'  To be done

     Representation     2      2 modes -E'  To be done

     Representation     3      1 modes -A''2  To be done

     Representation     4      1 modes -A''2  To be done



     Alpha used in Ewald sum =   2.8000
     PHONON       :     5.65s CPU         8.42s WALL



     Representation #  1 modes #   1  2

     Self-consistent Calculation
 
     Pert. #  1: Fermi energy shift (Ry) =     0.0000E+00     0.0000E+00
     Pert. #  2: Fermi energy shift (Ry) =     3.6140E-20     0.0000E+00

      iter #   1 total cpu time :     9.7 secs   av.it.:   5.2
      thresh= 1.000E-02 alpha_mix =  0.700 |ddv_scf|^2 =  9.406E-07
 
     Pert. #  1: Fermi energy shift (Ry) =     0.0000E+00     0.0000E+00
     Pert. #  2: Fermi energy shift (Ry) =    -4.0658E-20     0.0000E+00

      iter #   2 total cpu time :    11.9 secs   av.it.:   8.7
      thresh= 9.699E-05 alpha_mix =  0.700 |ddv_scf|^2 =  1.685E-08
 
     Pert. #  1: Fermi energy shift (Ry) =     0.0000E+00     0.0000E+00
     Pert. #  2: Fermi energy shift (Ry) =     6.2116E-21     0.0000E+00

      iter #   3 total cpu time :    14.0 secs   av.it.:   8.9
      thresh= 1.298E-05 alpha_mix =  0.700 |ddv_scf|^2 =  4.437E-10
 
     Pert. #  1: Fermi energy shift (Ry) =     0.0000E+00     0.0000E+00
     Pert. #  2: Fermi energy shift (Ry) =    -3.3881E-21     0.0000E+00

      iter #   4 total cpu time :    15.7 secs   av.it.:   8.5
      thresh= 2.106E-06 alpha_mix =  0.700 |ddv_scf|^2 =  1.559E-12
 
     Pert. #  1: Fermi energy shift (Ry) =     0.0000E+00     0.0000E+00
     Pert. #  2: Fermi energy shift (Ry) =    -1.1294E-21     0.0000E+00

      iter #   5 total cpu time :    17.3 secs   av.it.:   8.9
      thresh= 1.248E-07 alpha_mix =  0.700 |ddv_scf|^2 =  5.870E-15
 
     Pert. #  1: Fermi energy shift (Ry) =    -1.1294E-21     0.0000E+00
     Pert. #  2: Fermi energy shift (Ry) =     0.0000E+00     0.0000E+00

      iter #   6 total cpu time :    19.3 secs   av.it.:   8.6
      thresh= 7.662E-09 alpha_mix =  0.700 |ddv_scf|^2 =  1.053E-16

     End of self-consistent calculation

     Convergence has been achieved 


     Representation #  2 modes #   3  4

     Self-consistent Calculation
 
     Pert. #  1: Fermi energy shift (Ry) =     7.2280E-20     0.0000E+00
     Pert. #  2: Fermi energy shift (Ry) =    -2.5298E-19     3.7616E-37

      iter #   1 total cpu time :    21.3 secs   av.it.:   5.2
      thresh= 1.000E-02 alpha_mix =  0.700 |ddv_scf|^2 =  9.406E-07
 
     Pert. #  1: Fermi energy shift (Ry) =    -1.8070E-20     0.0000E+00
     Pert. #  2: Fermi energy shift (Ry) =     3.6140E-20    -1.4694E-39

      iter #   2 total cpu time :    23.0 secs   av.it.:   8.7
      thresh= 9.698E-05 alpha_mix =  0.700 |ddv_scf|^2 =  1.686E-08
 
     Pert. #  1: Fermi energy shift (Ry) =     2.2588E-21     0.0000E+00
     Pert. #  2: Fermi energy shift (Ry) =     1.1294E-21     2.2959E-41

      iter #   3 total cpu time :    24.8 secs   av.it.:   8.9
      thresh= 1.298E-05 alpha_mix =  0.700 |ddv_scf|^2 =  4.450E-10
 
     Pert. #  1: Fermi energy shift (Ry) =     2.2588E-21     1.5306E-41
     Pert. #  2: Fermi energy shift (Ry) =    -5.6469E-22     3.8265E-41

      iter #   4 total cpu time :    27.6 secs   av.it.:   8.5
      thresh= 2.109E-06 alpha_mix =  0.700 |ddv_scf|^2 =  1.551E-12
 
     Pert. #  1: Fermi energy shift (Ry) =     5.0822E-21    -1.0762E-42
     Pert. #  2: Fermi energy shift (Ry) =    -5.0822E-21     7.1746E-43

      iter #   5 total cpu time :    29.2 secs   av.it.:   8.9
      thresh= 1.246E-07 alpha_mix =  0.700 |ddv_scf|^2 =  5.872E-15
 
     Pert. #  1: Fermi energy shift (Ry) =     3.3881E-21    -9.5662E-43
     Pert. #  2: Fermi energy shift (Ry) =     0.0000E+00     3.5873E-42

      iter #   6 total cpu time :    31.4 secs   av.it.:   8.7
      thresh= 7.663E-09 alpha_mix =  0.700 |ddv_scf|^2 =  1.054E-16

     End of self-consistent calculation

     Convergence has been achieved 


     Representation #  3 mode #   5

     Self-consistent Calculation
 
     Pert. #  1: Fermi energy shift (Ry) =    -9.0350E-21     7.8366E-39

      iter #   1 total cpu time :    33.3 secs   av.it.:   5.5
      thresh= 1.000E-02 alpha_mix =  0.700 |ddv_scf|^2 =  2.032E-05
 
     Pert. #  1: Fermi energy shift (Ry) =     1.1294E-21     1.9592E-39

      iter #   2 total cpu time :    34.5 secs   av.it.:   8.0
      thresh= 4.507E-04 alpha_mix =  0.700 |ddv_scf|^2 =  1.137E-05
 
     Pert. #  1: Fermi energy shift (Ry) =    -5.6469E-22    -1.9592E-39

      iter #   3 total cpu time :    35.4 secs   av.it.:   7.0
      thresh= 3.373E-04 alpha_mix =  0.700 |ddv_scf|^2 =  1.911E-08
 
     Pert. #  1: Fermi energy shift (Ry) =     1.4117E-22    -3.0612E-41

      iter #   4 total cpu time :    36.7 secs   av.it.:   8.4
      thresh= 1.382E-05 alpha_mix =  0.700 |ddv_scf|^2 =  4.002E-10
 
     Pert. #  1: Fermi energy shift (Ry) =     2.8234E-22     3.0612E-41

      iter #   5 total cpu time :    37.8 secs   av.it.:   7.9
      thresh= 2.001E-06 alpha_mix =  0.700 |ddv_scf|^2 =  3.074E-12
 
     Pert. #  1: Fermi energy shift (Ry) =    -2.8234E-22     9.5662E-43

      iter #   6 total cpu time :    39.2 secs   av.it.:   8.0
      thresh= 1.753E-07 alpha_mix =  0.700 |ddv_scf|^2 =  3.137E-14
 
     Pert. #  1: Fermi energy shift (Ry) =     2.8234E-22     9.5662E-43

      iter #   7 total cpu time :    41.6 secs   av.it.:   8.2
      thresh= 1.771E-08 alpha_mix =  0.700 |ddv_scf|^2 =  6.028E-16

     End of self-consistent calculation

     Convergence has been achieved 


     Representation #  4 mode #   6

     Self-consistent Calculation
 
     Pert. #  1: Fermi energy shift (Ry) =     9.0350E-21     7.8366E-39

      iter #   1 total cpu time :    42.9 secs   av.it.:   5.5
      thresh= 1.000E-02 alpha_mix =  0.700 |ddv_scf|^2 =  2.032E-05
 
     Pert. #  1: Fermi energy shift (Ry) =    -1.1294E-21     1.9592E-39

      iter #   2 total cpu time :    43.9 secs   av.it.:   8.0
      thresh= 4.507E-04 alpha_mix =  0.700 |ddv_scf|^2 =  1.137E-05
 
     Pert. #  1: Fermi energy shift (Ry) =    -5.6469E-22    -1.9592E-39

      iter #   3 total cpu time :    44.5 secs   av.it.:   7.0
      thresh= 3.373E-04 alpha_mix =  0.700 |ddv_scf|^2 =  1.911E-08
 
     Pert. #  1: Fermi energy shift (Ry) =     1.4117E-22    -3.8265E-42

      iter #   4 total cpu time :    45.1 secs   av.it.:   8.4
      thresh= 1.382E-05 alpha_mix =  0.700 |ddv_scf|^2 =  4.003E-10
 
     Pert. #  1: Fermi energy shift (Ry) =    -2.8234E-22     3.0612E-41

      iter #   5 total cpu time :    45.6 secs   av.it.:   7.9
      thresh= 2.001E-06 alpha_mix =  0.700 |ddv_scf|^2 =  3.074E-12
 
     Pert. #  1: Fermi energy shift (Ry) =    -2.8234E-22     1.4947E-44

      iter #   6 total cpu time :    46.1 secs   av.it.:   8.0
      thresh= 1.753E-07 alpha_mix =  0.700 |ddv_scf|^2 =  3.136E-14
 
     Pert. #  1: Fermi energy shift (Ry) =     2.8234E-22     2.3915E-43

      iter #   7 total cpu time :    46.6 secs   av.it.:   8.2
      thresh= 1.771E-08 alpha_mix =  0.700 |ddv_scf|^2 =  6.027E-16

     End of self-consistent calculation

     Convergence has been achieved 
 
     Number of q in the star =    1
     List of q in the star:
          1   0.000000000   0.000000000   0.000000000

     Diagonalizing the dynamical matrix

     q = (    0.000000000   0.000000000   0.000000000 ) 

 **************************************************************************
     freq (    1) =      -0.551470 [THz] =     -18.395054 [cm-1]
     freq (    2) =      -0.551470 [THz] =     -18.395054 [cm-1]
     freq (    3) =       0.587096 [THz] =      19.583422 [cm-1]
     freq (    4) =       1.689215 [THz] =      56.346160 [cm-1]
     freq (    5) =       1.689215 [THz] =      56.346160 [cm-1]
     freq (    6) =       4.043368 [THz] =     134.872236 [cm-1]
 **************************************************************************

     Mode symmetry, D_3h (-62m) point group:

     freq (  1 -  2) =        -18.4  [cm-1]   --> E'              I+R
     freq (  3 -  3) =         19.6  [cm-1]   --> A''2            I  
     freq (  4 -  5) =         56.3  [cm-1]   --> E'              I+R
     freq (  6 -  6) =        134.9  [cm-1]   --> A''2            I  

     Calculation of q =    0.0000000   0.0000000   0.1533150
 
     Parallelization info
     --------------------
     sticks:   dense  smooth     PW     G-vecs:    dense   smooth      PW
     Min         133      68     20                 5835     2056     348
     Max         134      69     21                 5844     2068     355
     Sum        1069     547    163                46721    16503    2803
 


     bravais-lattice index     =            4
     lattice parameter (alat)  =       6.9941  a.u.
     unit-cell volume          =     483.1514 (a.u.)^3
     number of atoms/cell      =            2
     number of atomic types    =            1
     number of electrons       =        18.00
     number of Kohn-Sham states=           13
     kinetic-energy cutoff     =      40.0000  Ry
     charge density cutoff     =     320.0000  Ry
     Exchange-correlation      = SLA  PW   PBE  PBE ( 1  4  3  4 0 0)

     celldm(1)=   6.994109  celldm(2)=   0.000000  celldm(3)=   1.630630
     celldm(4)=   0.000000  celldm(5)=   0.000000  celldm(6)=   0.000000

     crystal axes: (cart. coord. in units of alat)
               a(1) = (   1.000000   0.000000   0.000000 )  
               a(2) = (  -0.500000   0.866025   0.000000 )  
               a(3) = (   0.000000   0.000000   1.630630 )  

     reciprocal axes: (cart. coord. in units 2 pi/alat)
               b(1) = (  1.000000  0.577350  0.000000 )  
               b(2) = (  0.000000  1.154701  0.000000 )  
               b(3) = (  0.000000  0.000000  0.613260 )  


     PseudoPot. # 1 for Na read from file:
     ./Na_pbe_v1.uspp.F.UPF
     MD5 check sum: 76a99c7e9422403d3e93cbc85ab7bccb
     Pseudo is Ultrasoft, Zval =  9.0
     Generated by new atomic code, or converted to UPF format
     Using radial grid of  819 points,  5 beta functions with: 
                l(1) =   0
                l(2) =   0
                l(3) =   1
                l(4) =   1
                l(5) =   2
     Q(r) pseudized with  8 coefficients,  rinner =    1.250   1.250   1.250
                                                       1.250   1.250

     atomic species   valence    mass     pseudopotential
        Na             9.00    22.99000     Na( 1.00)

     12 Sym. Ops. (no inversion) found



   Cartesian axes

     site n.     atom                  positions (alat units)
         1           Na  tau(   1) = (   0.0000000   0.0000000   0.0000000  )
         2           Na  tau(   2) = (   0.5000000   0.2886751   0.8153150  )

     number of k points=  2616  Marzari-Vanderbilt smearing, width (Ry)=  0.0200

     Number of k-points >= 100: set verbosity='high' to print them.

     Dense  grid:    46721 G-vectors     FFT dimensions: (  40,  40,  72)

     Smooth grid:    16503 G-vectors     FFT dimensions: (  30,  30,  45)

     Largest allocated arrays     est. size (Mb)     dimensions
        Kohn-Sham Wavefunctions         0.05 Mb     (     273,   13)
        NL pseudopotentials             0.11 Mb     (     273,   26)
        Each V/rho on FFT grid          0.22 Mb     (   14400)
        Each G-vector array             0.04 Mb     (    5844)
        G-vector shells                 0.01 Mb     (    1734)
     Largest temporary arrays     est. size (Mb)     dimensions
        Auxiliary wavefunctions         0.22 Mb     (     273,   52)
        Each subspace H/S matrix        0.01 Mb     (      26,   26)
        Each <psi_i|beta_j> matrix      0.01 Mb     (      26,   13)

     The potential is recalculated from file :
     ./na_hcp_6.99410908717325/_ph0/na_hcp_6.99410908717325.save/charge-density.dat

     Starting wfc are   10 atomic +    3 random wfc

     Band Structure Calculation
     Davidson diagonalization with overlap

     ethr =  5.56E-11,  avg # of iterations = 23.2

     total cpu time spent up to now is        8.3 secs

     End of band structure calculation

     Number of k-points >= 100: set verbosity='high' to print the bands.

     the Fermi energy is     1.7520 ev

     Writing output data file na_hcp_6.99410908717325.save

                                                                                

     bravais-lattice index     =            4
     lattice parameter (alat)  =       6.9941  a.u.
     unit-cell volume          =     483.1514 (a.u.)^3
     number of atoms/cell      =            2
     number of atomic types    =            1
     kinetic-energy cut-off    =      40.0000  Ry
     charge density cut-off    =     320.0000  Ry
     convergence threshold     =      1.0E-15
     beta                      =       0.7000
     number of iterations used =            4
     Exchange-correlation      = SLA  PW   PBE  PBE ( 1  4  3  4 0 0)


     celldm(1)=    6.99411  celldm(2)=    0.00000  celldm(3)=    1.63063
     celldm(4)=    0.00000  celldm(5)=    0.00000  celldm(6)=    0.00000

     crystal axes: (cart. coord. in units of alat)
               a(1) = (  1.0000  0.0000  0.0000 )  
               a(2) = ( -0.5000  0.8660  0.0000 )  
               a(3) = (  0.0000  0.0000  1.6306 )  

     reciprocal axes: (cart. coord. in units 2 pi/alat)
               b(1) = (  1.0000  0.5774  0.0000 )  
               b(2) = (  0.0000  1.1547  0.0000 )  
               b(3) = (  0.0000  0.0000  0.6133 )  


     Atoms inside the unit cell: 

     Cartesian axes

     site n.  atom      mass           positions (alat units)
        1     Na  22.9900   tau(    1) = (    0.00000    0.00000    0.00000  )
        2     Na  22.9900   tau(    2) = (    0.50000    0.28868    0.81532  )

     Computing dynamical matrix for 
                    q = (   0.0000000   0.0000000   0.1533150 )
 
      6 Sym.Ops. (no q -> -q+G )


     G cutoff =  396.5108  (   5844 G-vectors)     FFT grid: ( 40, 40, 72)
     G cutoff =  198.2554  (   2066 G-vectors)  smooth grid: ( 30, 30, 45)

     number of k points=  2616  Marzari-Vanderbilt smearing, width (Ry)=  0.0200

     PseudoPot. # 1 for Na read from file:
     ./Na_pbe_v1.uspp.F.UPF
     MD5 check sum: 76a99c7e9422403d3e93cbc85ab7bccb
     Pseudo is Ultrasoft, Zval =  9.0
     Generated by new atomic code, or converted to UPF format
     Using radial grid of  819 points,  5 beta functions with: 
                l(1) =   0
                l(2) =   0
                l(3) =   1
                l(4) =   1
                l(5) =   2
     Q(r) pseudized with  8 coefficients,  rinner =    1.250   1.250   1.250
                                                       1.250   1.250

     Mode symmetry, C_3v (3m)   point group:


     Atomic displacements:
     There are   4 irreducible representations

     Representation     1      1 modes -A_1  L_1  To be done

     Representation     2      1 modes -A_1  L_1  To be done

     Representation     3      2 modes -E    L_3  To be done

     Representation     4      2 modes -E    L_3  To be done



     Alpha used in Ewald sum =   2.8000
     PHONON       :    47.05s CPU        59.13s WALL



     Representation #  1 mode #   1

     Self-consistent Calculation

      iter #   1 total cpu time :    60.6 secs   av.it.:   5.8
      thresh= 1.000E-02 alpha_mix =  0.700 |ddv_scf|^2 =  3.065E-02

      iter #   2 total cpu time :    64.8 secs   av.it.:   6.8
      thresh= 1.000E-02 alpha_mix =  0.700 |ddv_scf|^2 =  1.681E+01

      iter #   3 total cpu time :    69.6 secs   av.it.:   6.7
      thresh= 1.000E-02 alpha_mix =  0.700 |ddv_scf|^2 =  1.995E-04

      iter #   4 total cpu time :    73.6 secs   av.it.:   7.3
      thresh= 1.412E-03 alpha_mix =  0.700 |ddv_scf|^2 =  3.588E-04

      iter #   5 total cpu time :    79.7 secs   av.it.:   6.4
      thresh= 1.894E-03 alpha_mix =  0.700 |ddv_scf|^2 =  1.310E-08

      iter #   6 total cpu time :    84.0 secs   av.it.:   8.3
      thresh= 1.145E-05 alpha_mix =  0.700 |ddv_scf|^2 =  3.202E-07

      iter #   7 total cpu time :    87.5 secs   av.it.:   3.5
      thresh= 5.658E-05 alpha_mix =  0.700 |ddv_scf|^2 =  6.079E-09

      iter #   8 total cpu time :    91.6 secs   av.it.:   7.5
      thresh= 7.797E-06 alpha_mix =  0.700 |ddv_scf|^2 =  3.765E-10

      iter #   9 total cpu time :    94.8 secs   av.it.:   7.4
      thresh= 1.940E-06 alpha_mix =  0.700 |ddv_scf|^2 =  6.261E-09

      iter #  10 total cpu time :    98.5 secs   av.it.:   6.0
      thresh= 7.912E-06 alpha_mix =  0.700 |ddv_scf|^2 =  2.557E-12

      iter #  11 total cpu time :   102.2 secs   av.it.:   8.0
      thresh= 1.599E-07 alpha_mix =  0.700 |ddv_scf|^2 =  4.874E-13

      iter #  12 total cpu time :   106.8 secs   av.it.:   7.3
      thresh= 6.981E-08 alpha_mix =  0.700 |ddv_scf|^2 =  2.916E-13

      iter #  13 total cpu time :   111.6 secs   av.it.:   6.8
      thresh= 5.400E-08 alpha_mix =  0.700 |ddv_scf|^2 =  1.649E-11

      iter #  14 total cpu time :   114.9 secs   av.it.:   5.6
      thresh= 4.060E-07 alpha_mix =  0.700 |ddv_scf|^2 =  1.138E-15

      iter #  15 total cpu time :   118.7 secs   av.it.:   8.8
      thresh= 3.373E-09 alpha_mix =  0.700 |ddv_scf|^2 =  1.343E-14

      iter #  16 total cpu time :   122.7 secs   av.it.:   5.9
      thresh= 1.159E-08 alpha_mix =  0.700 |ddv_scf|^2 =  7.301E-15

      iter #  17 total cpu time :   126.5 secs   av.it.:   6.7
      thresh= 8.545E-09 alpha_mix =  0.700 |ddv_scf|^2 =  2.319E-17

     End of self-consistent calculation

     Convergence has been achieved 


     Representation #  2 mode #   2

     Self-consistent Calculation

      iter #   1 total cpu time :   130.3 secs   av.it.:   5.8
      thresh= 1.000E-02 alpha_mix =  0.700 |ddv_scf|^2 =  3.065E-02

      iter #   2 total cpu time :   134.7 secs   av.it.:   6.8
      thresh= 1.000E-02 alpha_mix =  0.700 |ddv_scf|^2 =  1.681E+01

      iter #   3 total cpu time :   138.7 secs   av.it.:   6.7
      thresh= 1.000E-02 alpha_mix =  0.700 |ddv_scf|^2 =  1.995E-04

      iter #   4 total cpu time :   142.3 secs   av.it.:   7.3
      thresh= 1.412E-03 alpha_mix =  0.700 |ddv_scf|^2 =  3.588E-04

      iter #   5 total cpu time :   146.2 secs   av.it.:   6.4
      thresh= 1.894E-03 alpha_mix =  0.700 |ddv_scf|^2 =  1.255E-08

      iter #   6 total cpu time :   150.8 secs   av.it.:   8.3
      thresh= 1.120E-05 alpha_mix =  0.700 |ddv_scf|^2 =  8.473E-09

      iter #   7 total cpu time :   154.9 secs   av.it.:   6.2
      thresh= 9.205E-06 alpha_mix =  0.700 |ddv_scf|^2 =  1.523E-07

      iter #   8 total cpu time :   158.3 secs   av.it.:   6.0
      thresh= 3.902E-05 alpha_mix =  0.700 |ddv_scf|^2 =  3.869E-10

      iter #   9 total cpu time :   162.1 secs   av.it.:   7.4
      thresh= 1.967E-06 alpha_mix =  0.700 |ddv_scf|^2 =  6.292E-09

      iter #  10 total cpu time :   166.1 secs   av.it.:   6.0
      thresh= 7.932E-06 alpha_mix =  0.700 |ddv_scf|^2 =  2.342E-12

      iter #  11 total cpu time :   169.9 secs   av.it.:   8.0
      thresh= 1.530E-07 alpha_mix =  0.700 |ddv_scf|^2 =  9.756E-13

      iter #  12 total cpu time :   173.7 secs   av.it.:   7.2
      thresh= 9.877E-08 alpha_mix =  0.700 |ddv_scf|^2 =  5.166E-14

      iter #  13 total cpu time :   178.0 secs   av.it.:   8.4
      thresh= 2.273E-08 alpha_mix =  0.700 |ddv_scf|^2 =  2.458E-12

      iter #  14 total cpu time :   181.5 secs   av.it.:   4.0
      thresh= 1.568E-07 alpha_mix =  0.700 |ddv_scf|^2 =  1.418E-14

      iter #  15 total cpu time :   185.4 secs   av.it.:   7.8
      thresh= 1.191E-08 alpha_mix =  0.700 |ddv_scf|^2 =  9.908E-15

      iter #  16 total cpu time :   189.7 secs   av.it.:   6.0
      thresh= 9.954E-09 alpha_mix =  0.700 |ddv_scf|^2 =  6.292E-15

      iter #  17 total cpu time :   193.3 secs   av.it.:   6.7
      thresh= 7.932E-09 alpha_mix =  0.700 |ddv_scf|^2 =  3.003E-17

     End of self-consistent calculation

     Convergence has been achieved 


     Representation #  3 modes #   3  4

     Self-consistent Calculation

      iter #   1 total cpu time :   199.4 secs   av.it.:   5.2
      thresh= 1.000E-02 alpha_mix =  0.700 |ddv_scf|^2 =  9.396E-07

      iter #   2 total cpu time :   207.1 secs   av.it.:   8.7
      thresh= 9.693E-05 alpha_mix =  0.700 |ddv_scf|^2 =  1.687E-08

      iter #   3 total cpu time :   214.2 secs   av.it.:   9.0
      thresh= 1.299E-05 alpha_mix =  0.700 |ddv_scf|^2 =  4.367E-10

      iter #   4 total cpu time :   222.9 secs   av.it.:   8.5
      thresh= 2.090E-06 alpha_mix =  0.700 |ddv_scf|^2 =  1.491E-12

      iter #   5 total cpu time :   230.5 secs   av.it.:   8.9
      thresh= 1.221E-07 alpha_mix =  0.700 |ddv_scf|^2 =  4.342E-15

      iter #   6 total cpu time :   243.1 secs   av.it.:   8.6
      thresh= 6.589E-09 alpha_mix =  0.700 |ddv_scf|^2 =  1.005E-16

     End of self-consistent calculation

     Convergence has been achieved 


     Representation #  4 modes #   5  6

     Self-consistent Calculation

      iter #   1 total cpu time :   261.5 secs   av.it.:   5.2
      thresh= 1.000E-02 alpha_mix =  0.700 |ddv_scf|^2 =  9.395E-07

      iter #   2 total cpu time :   268.6 secs   av.it.:   8.7
      thresh= 9.693E-05 alpha_mix =  0.700 |ddv_scf|^2 =  1.688E-08

      iter #   3 total cpu time :   276.8 secs   av.it.:   9.0
      thresh= 1.299E-05 alpha_mix =  0.700 |ddv_scf|^2 =  4.380E-10

      iter #   4 total cpu time :   285.3 secs   av.it.:   8.5
      thresh= 2.093E-06 alpha_mix =  0.700 |ddv_scf|^2 =  1.483E-12

      iter #   5 total cpu time :   293.5 secs   av.it.:   8.9
      thresh= 1.218E-07 alpha_mix =  0.700 |ddv_scf|^2 =  4.345E-15

      iter #   6 total cpu time :   301.4 secs   av.it.:   8.6
      thresh= 6.591E-09 alpha_mix =  0.700 |ddv_scf|^2 =  1.005E-16

     End of self-consistent calculation

     Convergence has been achieved 
 
     Number of q in the star =    2
     List of q in the star:
          1   0.000000000   0.000000000   0.153314970
          2   0.000000000   0.000000000  -0.153314970

     Diagonalizing the dynamical matrix

     q = (    0.000000000   0.000000000   0.153314970 ) 

 **************************************************************************
     freq (    1) =       0.410499 [THz] =      13.692759 [cm-1]
     freq (    2) =       0.410499 [THz] =      13.692759 [cm-1]
     freq (    3) =       1.565161 [THz] =      52.208154 [cm-1]
     freq (    4) =       1.565161 [THz] =      52.208154 [cm-1]
     freq (    5) =       1.649936 [THz] =      55.035944 [cm-1]
     freq (    6) =       3.800139 [THz] =     126.759006 [cm-1]
 **************************************************************************

     Mode symmetry, C_3v (3m)   point group:

     freq (  1 -  2) =         13.7  [cm-1]   --> E    L_3           
     freq (  3 -  4) =         52.2  [cm-1]   --> E    L_3           
     freq (  5 -  5) =         55.0  [cm-1]   --> A_1  L_1           
     freq (  6 -  6) =        126.8  [cm-1]   --> A_1  L_1           

     Calculation of q =    0.0000000   0.0000000  -0.3066299
 
     Parallelization info
     --------------------
     sticks:   dense  smooth     PW     G-vecs:    dense   smooth      PW
     Min         133      68     20                 5835     2056     346
     Max         134      69     21                 5844     2068     351
     Sum        1069     547    163                46721    16503    2779
 


     bravais-lattice index     =            4
     lattice parameter (alat)  =       6.9941  a.u.
     unit-cell volume          =     483.1514 (a.u.)^3
     number of atoms/cell      =            2
     number of atomic types    =            1
     number of electrons       =        18.00
     number of Kohn-Sham states=           13
     kinetic-energy cutoff     =      40.0000  Ry
     charge density cutoff     =     320.0000  Ry
     Exchange-correlation      = SLA  PW   PBE  PBE ( 1  4  3  4 0 0)

     celldm(1)=   6.994109  celldm(2)=   0.000000  celldm(3)=   1.630630
     celldm(4)=   0.000000  celldm(5)=   0.000000  celldm(6)=   0.000000

     crystal axes: (cart. coord. in units of alat)
               a(1) = (   1.000000   0.000000   0.000000 )  
               a(2) = (  -0.500000   0.866025   0.000000 )  
               a(3) = (   0.000000   0.000000   1.630630 )  

     reciprocal axes: (cart. coord. in units 2 pi/alat)
               b(1) = (  1.000000  0.577350  0.000000 )  
               b(2) = (  0.000000  1.154701  0.000000 )  
               b(3) = (  0.000000  0.000000  0.613260 )  


     PseudoPot. # 1 for Na read from file:
     ./Na_pbe_v1.uspp.F.UPF
     MD5 check sum: 76a99c7e9422403d3e93cbc85ab7bccb
     Pseudo is Ultrasoft, Zval =  9.0
     Generated by new atomic code, or converted to UPF format
     Using radial grid of  819 points,  5 beta functions with: 
                l(1) =   0
                l(2) =   0
                l(3) =   1
                l(4) =   1
                l(5) =   2
     Q(r) pseudized with  8 coefficients,  rinner =    1.250   1.250   1.250
                                                       1.250   1.250

     atomic species   valence    mass     pseudopotential
        Na             9.00    22.99000     Na( 1.00)

     12 Sym. Ops. (no inversion) found



   Cartesian axes

     site n.     atom                  positions (alat units)
         1           Na  tau(   1) = (   0.0000000   0.0000000   0.0000000  )
         2           Na  tau(   2) = (   0.5000000   0.2886751   0.8153150  )

     number of k points=   732  Marzari-Vanderbilt smearing, width (Ry)=  0.0200

     Number of k-points >= 100: set verbosity='high' to print them.

     Dense  grid:    46721 G-vectors     FFT dimensions: (  40,  40,  72)

     Smooth grid:    16503 G-vectors     FFT dimensions: (  30,  30,  45)

     Largest allocated arrays     est. size (Mb)     dimensions
        Kohn-Sham Wavefunctions         0.05 Mb     (     276,   13)
        NL pseudopotentials             0.11 Mb     (     276,   26)
        Each V/rho on FFT grid          0.22 Mb     (   14400)
        Each G-vector array             0.04 Mb     (    5844)
        G-vector shells                 0.01 Mb     (    1763)
     Largest temporary arrays     est. size (Mb)     dimensions
        Auxiliary wavefunctions         0.22 Mb     (     276,   52)
        Each subspace H/S matrix        0.01 Mb     (      26,   26)
        Each <psi_i|beta_j> matrix      0.01 Mb     (      26,   13)

     The potential is recalculated from file :
     ./na_hcp_6.99410908717325/_ph0/na_hcp_6.99410908717325.save/charge-density.dat

     Starting wfc are   10 atomic +    3 random wfc

     Band Structure Calculation
     Davidson diagonalization with overlap

     ethr =  5.56E-11,  avg # of iterations = 23.4

     total cpu time spent up to now is       13.5 secs

     End of band structure calculation

     Number of k-points >= 100: set verbosity='high' to print the bands.

     the Fermi energy is     1.7520 ev

     Writing output data file na_hcp_6.99410908717325.save

                                                                                

     bravais-lattice index     =            4
     lattice parameter (alat)  =       6.9941  a.u.
     unit-cell volume          =     483.1514 (a.u.)^3
     number of atoms/cell      =            2
     number of atomic types    =            1
     kinetic-energy cut-off    =      40.0000  Ry
     charge density cut-off    =     320.0000  Ry
     convergence threshold     =      1.0E-15
     beta                      =       0.7000
     number of iterations used =            4
     Exchange-correlation      = SLA  PW   PBE  PBE ( 1  4  3  4 0 0)


     celldm(1)=    6.99411  celldm(2)=    0.00000  celldm(3)=    1.63063
     celldm(4)=    0.00000  celldm(5)=    0.00000  celldm(6)=    0.00000

     crystal axes: (cart. coord. in units of alat)
               a(1) = (  1.0000  0.0000  0.0000 )  
               a(2) = ( -0.5000  0.8660  0.0000 )  
               a(3) = (  0.0000  0.0000  1.6306 )  

     reciprocal axes: (cart. coord. in units 2 pi/alat)
               b(1) = (  1.0000  0.5774  0.0000 )  
               b(2) = (  0.0000  1.1547  0.0000 )  
               b(3) = (  0.0000  0.0000  0.6133 )  


     Atoms inside the unit cell: 

     Cartesian axes

     site n.  atom      mass           positions (alat units)
        1     Na  22.9900   tau(    1) = (    0.00000    0.00000    0.00000  )
        2     Na  22.9900   tau(    2) = (    0.50000    0.28868    0.81532  )

     Computing dynamical matrix for 
                    q = (   0.0000000   0.0000000  -0.3066299 )
 
     13 Sym.Ops. (with q -> -q+G )


     G cutoff =  396.5108  (   5844 G-vectors)     FFT grid: ( 40, 40, 72)
     G cutoff =  198.2554  (   2066 G-vectors)  smooth grid: ( 30, 30, 45)

     number of k points=   732  Marzari-Vanderbilt smearing, width (Ry)=  0.0200

     PseudoPot. # 1 for Na read from file:
     ./Na_pbe_v1.uspp.F.UPF
     MD5 check sum: 76a99c7e9422403d3e93cbc85ab7bccb
     Pseudo is Ultrasoft, Zval =  9.0
     Generated by new atomic code, or converted to UPF format
     Using radial grid of  819 points,  5 beta functions with: 
                l(1) =   0
                l(2) =   0
                l(3) =   1
                l(4) =   1
                l(5) =   2
     Q(r) pseudized with  8 coefficients,  rinner =    1.250   1.250   1.250
                                                       1.250   1.250

     Mode symmetry, D_3h (-62m) point group:


     Atomic displacements:
     There are   4 irreducible representations

     Representation     1      1 modes -A'_1  To be done

     Representation     2      2 modes -E'  To be done

     Representation     3      1 modes -A''2  To be done

     Representation     4      2 modes -E''  To be done



     Alpha used in Ewald sum =   2.8000
     PHONON       :  4m 5.58s CPU     5m 5.69s WALL



     Representation #  1 mode #   1

     Self-consistent Calculation

      iter #   1 total cpu time :   306.1 secs   av.it.:   5.7
      thresh= 1.000E-02 alpha_mix =  0.700 |ddv_scf|^2 =  9.743E-04

      iter #   2 total cpu time :   306.6 secs   av.it.:   7.0
      thresh= 3.121E-03 alpha_mix =  0.700 |ddv_scf|^2 =  2.615E-02

      iter #   3 total cpu time :   307.1 secs   av.it.:   5.9
      thresh= 1.000E-02 alpha_mix =  0.700 |ddv_scf|^2 =  7.100E-07

      iter #   4 total cpu time :   307.6 secs   av.it.:   7.9
      thresh= 8.426E-05 alpha_mix =  0.700 |ddv_scf|^2 =  3.485E-09

      iter #   5 total cpu time :   308.1 secs   av.it.:   8.7
      thresh= 5.903E-06 alpha_mix =  0.700 |ddv_scf|^2 =  2.601E-10

      iter #   6 total cpu time :   308.6 secs   av.it.:   8.5
      thresh= 1.613E-06 alpha_mix =  0.700 |ddv_scf|^2 =  6.977E-12

      iter #   7 total cpu time :   309.1 secs   av.it.:   8.9
      thresh= 2.641E-07 alpha_mix =  0.700 |ddv_scf|^2 =  9.637E-13

      iter #   8 total cpu time :   309.7 secs   av.it.:   7.6
      thresh= 9.817E-08 alpha_mix =  0.700 |ddv_scf|^2 =  4.247E-16

     End of self-consistent calculation

     Convergence has been achieved 


     Representation #  2 modes #   2  3

     Self-consistent Calculation

      iter #   1 total cpu time :   311.2 secs   av.it.:   5.2
      thresh= 1.000E-02 alpha_mix =  0.700 |ddv_scf|^2 =  9.386E-07

      iter #   2 total cpu time :   312.7 secs   av.it.:   8.7
      thresh= 9.688E-05 alpha_mix =  0.700 |ddv_scf|^2 =  1.687E-08

      iter #   3 total cpu time :   315.3 secs   av.it.:   9.0
      thresh= 1.299E-05 alpha_mix =  0.700 |ddv_scf|^2 =  4.287E-10

      iter #   4 total cpu time :   318.1 secs   av.it.:   8.5
      thresh= 2.070E-06 alpha_mix =  0.700 |ddv_scf|^2 =  1.431E-12

      iter #   5 total cpu time :   319.9 secs   av.it.:   8.9
      thresh= 1.196E-07 alpha_mix =  0.700 |ddv_scf|^2 =  2.733E-15

      iter #   6 total cpu time :   321.7 secs   av.it.:   8.2
      thresh= 5.228E-09 alpha_mix =  0.700 |ddv_scf|^2 =  9.165E-17

     End of self-consistent calculation

     Convergence has been achieved 


     Representation #  3 mode #   4

     Self-consistent Calculation

      iter #   1 total cpu time :   322.8 secs   av.it.:   5.7
      thresh= 1.000E-02 alpha_mix =  0.700 |ddv_scf|^2 =  9.743E-04

      iter #   2 total cpu time :   323.8 secs   av.it.:   7.0
      thresh= 3.121E-03 alpha_mix =  0.700 |ddv_scf|^2 =  2.615E-02

      iter #   3 total cpu time :   325.2 secs   av.it.:   5.9
      thresh= 1.000E-02 alpha_mix =  0.700 |ddv_scf|^2 =  7.103E-07

      iter #   4 total cpu time :   326.7 secs   av.it.:   7.9
      thresh= 8.428E-05 alpha_mix =  0.700 |ddv_scf|^2 =  3.489E-09

      iter #   5 total cpu time :   328.2 secs   av.it.:   8.7
      thresh= 5.907E-06 alpha_mix =  0.700 |ddv_scf|^2 =  2.599E-10

      iter #   6 total cpu time :   329.7 secs   av.it.:   8.5
      thresh= 1.612E-06 alpha_mix =  0.700 |ddv_scf|^2 =  6.981E-12

      iter #   7 total cpu time :   330.9 secs   av.it.:   8.9
      thresh= 2.642E-07 alpha_mix =  0.700 |ddv_scf|^2 =  9.645E-13

      iter #   8 total cpu time :   332.2 secs   av.it.:   7.6
      thresh= 9.821E-08 alpha_mix =  0.700 |ddv_scf|^2 =  4.220E-16

     End of self-consistent calculation

     Convergence has been achieved 


     Representation #  4 modes #   5  6

     Self-consistent Calculation

      iter #   1 total cpu time :   333.9 secs   av.it.:   5.2
      thresh= 1.000E-02 alpha_mix =  0.700 |ddv_scf|^2 =  9.385E-07

      iter #   2 total cpu time :   335.8 secs   av.it.:   8.7
      thresh= 9.688E-05 alpha_mix =  0.700 |ddv_scf|^2 =  1.688E-08

      iter #   3 total cpu time :   338.0 secs   av.it.:   9.0
      thresh= 1.299E-05 alpha_mix =  0.700 |ddv_scf|^2 =  4.300E-10

      iter #   4 total cpu time :   340.0 secs   av.it.:   8.5
      thresh= 2.074E-06 alpha_mix =  0.700 |ddv_scf|^2 =  1.424E-12

      iter #   5 total cpu time :   341.8 secs   av.it.:   9.0
      thresh= 1.193E-07 alpha_mix =  0.700 |ddv_scf|^2 =  2.740E-15

      iter #   6 total cpu time :   343.5 secs   av.it.:   8.3
      thresh= 5.234E-09 alpha_mix =  0.700 |ddv_scf|^2 =  9.172E-17

     End of self-consistent calculation

     Convergence has been achieved 
 
     Number of q in the star =    1
     List of q in the star:
          1   0.000000000   0.000000000  -0.306629940

     Diagonalizing the dynamical matrix

     q = (    0.000000000   0.000000000  -0.306629940 ) 

 **************************************************************************
     freq (    1) =       1.127099 [THz] =      37.595982 [cm-1]
     freq (    2) =       1.127099 [THz] =      37.595982 [cm-1]
     freq (    3) =       1.158424 [THz] =      38.640880 [cm-1]
     freq (    4) =       1.158424 [THz] =      38.640880 [cm-1]
     freq (    5) =       2.971110 [THz] =      99.105557 [cm-1]
     freq (    6) =       2.971946 [THz] =      99.133434 [cm-1]
 **************************************************************************

     Mode symmetry, D_3h (-62m) point group:

     freq (  1 -  2) =         37.6  [cm-1]   --> E'                 
     freq (  3 -  4) =         38.6  [cm-1]   --> E''                
     freq (  5 -  5) =         99.1  [cm-1]   --> A'_1               
     freq (  6 -  6) =         99.1  [cm-1]   --> A''2               

     Calculation of q =    0.0000000   0.2886751   0.0000000
 
     Parallelization info
     --------------------
     sticks:   dense  smooth     PW     G-vecs:    dense   smooth      PW
     Min         133      68     20                 5835     2056     374
     Max         134      69     22                 5844     2068     381
     Sum        1069     547    169                46721    16503    3015
 


     bravais-lattice index     =            4
     lattice parameter (alat)  =       6.9941  a.u.
     unit-cell volume          =     483.1514 (a.u.)^3
     number of atoms/cell      =            2
     number of atomic types    =            1
     number of electrons       =        18.00
     number of Kohn-Sham states=           13
     kinetic-energy cutoff     =      40.0000  Ry
     charge density cutoff     =     320.0000  Ry
     Exchange-correlation      = SLA  PW   PBE  PBE ( 1  4  3  4 0 0)

     celldm(1)=   6.994109  celldm(2)=   0.000000  celldm(3)=   1.630630
     celldm(4)=   0.000000  celldm(5)=   0.000000  celldm(6)=   0.000000

     crystal axes: (cart. coord. in units of alat)
               a(1) = (   1.000000   0.000000   0.000000 )  
               a(2) = (  -0.500000   0.866025   0.000000 )  
               a(3) = (   0.000000   0.000000   1.630630 )  

     reciprocal axes: (cart. coord. in units 2 pi/alat)
               b(1) = (  1.000000  0.577350  0.000000 )  
               b(2) = (  0.000000  1.154701  0.000000 )  
               b(3) = (  0.000000  0.000000  0.613260 )  


     PseudoPot. # 1 for Na read from file:
     ./Na_pbe_v1.uspp.F.UPF
     MD5 check sum: 76a99c7e9422403d3e93cbc85ab7bccb
     Pseudo is Ultrasoft, Zval =  9.0
     Generated by new atomic code, or converted to UPF format
     Using radial grid of  819 points,  5 beta functions with: 
                l(1) =   0
                l(2) =   0
                l(3) =   1
                l(4) =   1
                l(5) =   2
     Q(r) pseudized with  8 coefficients,  rinner =    1.250   1.250   1.250
                                                       1.250   1.250

     atomic species   valence    mass     pseudopotential
        Na             9.00    22.99000     Na( 1.00)

     12 Sym. Ops. (no inversion) found



   Cartesian axes

     site n.     atom                  positions (alat units)
         1           Na  tau(   1) = (   0.0000000   0.0000000   0.0000000  )
         2           Na  tau(   2) = (   0.5000000   0.2886751   0.8153150  )

     number of k points=  3600  Marzari-Vanderbilt smearing, width (Ry)=  0.0200

     Number of k-points >= 100: set verbosity='high' to print them.

     Dense  grid:    46721 G-vectors     FFT dimensions: (  40,  40,  72)

     Smooth grid:    16503 G-vectors     FFT dimensions: (  30,  30,  45)

     Largest allocated arrays     est. size (Mb)     dimensions
        Kohn-Sham Wavefunctions         0.05 Mb     (     276,   13)
        NL pseudopotentials             0.11 Mb     (     276,   26)
        Each V/rho on FFT grid          0.22 Mb     (   14400)
        Each G-vector array             0.04 Mb     (    5844)
        G-vector shells                 0.01 Mb     (    1733)
     Largest temporary arrays     est. size (Mb)     dimensions
        Auxiliary wavefunctions         0.22 Mb     (     276,   52)
        Each subspace H/S matrix        0.01 Mb     (      26,   26)
        Each <psi_i|beta_j> matrix      0.01 Mb     (      26,   13)

     The potential is recalculated from file :
     ./na_hcp_6.99410908717325/_ph0/na_hcp_6.99410908717325.save/charge-density.dat

     Starting wfc are   10 atomic +    3 random wfc

     Band Structure Calculation
     Davidson diagonalization with overlap

     ethr =  5.56E-11,  avg # of iterations = 22.7

     total cpu time spent up to now is       25.1 secs

     End of band structure calculation

     Number of k-points >= 100: set verbosity='high' to print the bands.

     the Fermi energy is     1.7520 ev

     Writing output data file na_hcp_6.99410908717325.save

                                                                                

     bravais-lattice index     =            4
     lattice parameter (alat)  =       6.9941  a.u.
     unit-cell volume          =     483.1514 (a.u.)^3
     number of atoms/cell      =            2
     number of atomic types    =            1
     kinetic-energy cut-off    =      40.0000  Ry
     charge density cut-off    =     320.0000  Ry
     convergence threshold     =      1.0E-15
     beta                      =       0.7000
     number of iterations used =            4
     Exchange-correlation      = SLA  PW   PBE  PBE ( 1  4  3  4 0 0)


     celldm(1)=    6.99411  celldm(2)=    0.00000  celldm(3)=    1.63063
     celldm(4)=    0.00000  celldm(5)=    0.00000  celldm(6)=    0.00000

     crystal axes: (cart. coord. in units of alat)
               a(1) = (  1.0000  0.0000  0.0000 )  
               a(2) = ( -0.5000  0.8660  0.0000 )  
               a(3) = (  0.0000  0.0000  1.6306 )  

     reciprocal axes: (cart. coord. in units 2 pi/alat)
               b(1) = (  1.0000  0.5774  0.0000 )  
               b(2) = (  0.0000  1.1547  0.0000 )  
               b(3) = (  0.0000  0.0000  0.6133 )  


     Atoms inside the unit cell: 

     Cartesian axes

     site n.  atom      mass           positions (alat units)
        1     Na  22.9900   tau(    1) = (    0.00000    0.00000    0.00000  )
        2     Na  22.9900   tau(    2) = (    0.50000    0.28868    0.81532  )

     Computing dynamical matrix for 
                    q = (   0.0000000   0.2886751   0.0000000 )
 
      4 Sym.Ops. (no q -> -q+G )


     G cutoff =  396.5108  (   5844 G-vectors)     FFT grid: ( 40, 40, 72)
     G cutoff =  198.2554  (   2068 G-vectors)  smooth grid: ( 30, 30, 45)

     number of k points=  3600  Marzari-Vanderbilt smearing, width (Ry)=  0.0200

     PseudoPot. # 1 for Na read from file:
     ./Na_pbe_v1.uspp.F.UPF
     MD5 check sum: 76a99c7e9422403d3e93cbc85ab7bccb
     Pseudo is Ultrasoft, Zval =  9.0
     Generated by new atomic code, or converted to UPF format
     Using radial grid of  819 points,  5 beta functions with: 
                l(1) =   0
                l(2) =   0
                l(3) =   1
                l(4) =   1
                l(5) =   2
     Q(r) pseudized with  8 coefficients,  rinner =    1.250   1.250   1.250
                                                       1.250   1.250

     Mode symmetry, C_2v (mm2)  point group:


     Atomic displacements:
     There are   6 irreducible representations

     Representation     1      1 modes -A_1  D_1  S_1  To be done

     Representation     2      1 modes -A_1  D_1  S_1  To be done

     Representation     3      1 modes -B_1  D_3  S_3  To be done

     Representation     4      1 modes -B_1  D_3  S_3  To be done

     Representation     5      1 modes -B_2  D_4  S_4  To be done

     Representation     6      1 modes -B_2  D_4  S_4  To be done



     Alpha used in Ewald sum =   2.8000
     PHONON       :  4m52.62s CPU     6m 0.30s WALL



     Representation #  1 mode #   1

     Self-consistent Calculation

      iter #   1 total cpu time :   362.4 secs   av.it.:   5.7
      thresh= 1.000E-02 alpha_mix =  0.700 |ddv_scf|^2 =  7.031E-04

      iter #   2 total cpu time :   366.2 secs   av.it.:   7.2
      thresh= 2.652E-03 alpha_mix =  0.700 |ddv_scf|^2 =  2.487E-02

      iter #   3 total cpu time :   368.7 secs   av.it.:   5.4
      thresh= 1.000E-02 alpha_mix =  0.700 |ddv_scf|^2 =  6.030E-07

      iter #   4 total cpu time :   372.0 secs   av.it.:   8.1
      thresh= 7.765E-05 alpha_mix =  0.700 |ddv_scf|^2 =  3.319E-08

      iter #   5 total cpu time :   375.1 secs   av.it.:   8.2
      thresh= 1.822E-05 alpha_mix =  0.700 |ddv_scf|^2 =  8.223E-10

      iter #   6 total cpu time :   378.9 secs   av.it.:   8.7
      thresh= 2.868E-06 alpha_mix =  0.700 |ddv_scf|^2 =  1.677E-10

      iter #   7 total cpu time :   381.8 secs   av.it.:   7.9
      thresh= 1.295E-06 alpha_mix =  0.700 |ddv_scf|^2 =  1.855E-09

      iter #   8 total cpu time :   384.8 secs   av.it.:   6.5
      thresh= 4.307E-06 alpha_mix =  0.700 |ddv_scf|^2 =  3.624E-12

      iter #   9 total cpu time :   388.0 secs   av.it.:   8.6
      thresh= 1.904E-07 alpha_mix =  0.700 |ddv_scf|^2 =  6.839E-13

      iter #  10 total cpu time :   391.3 secs   av.it.:   7.6
      thresh= 8.270E-08 alpha_mix =  0.700 |ddv_scf|^2 =  2.307E-12

      iter #  11 total cpu time :   394.4 secs   av.it.:   6.9
      thresh= 1.519E-07 alpha_mix =  0.700 |ddv_scf|^2 =  1.994E-15

      iter #  12 total cpu time :   397.6 secs   av.it.:   8.8
      thresh= 4.466E-09 alpha_mix =  0.700 |ddv_scf|^2 =  1.217E-16

     End of self-consistent calculation

     Convergence has been achieved 


     Representation #  2 mode #   2

     Self-consistent Calculation

      iter #   1 total cpu time :   401.8 secs   av.it.:   5.7
      thresh= 1.000E-02 alpha_mix =  0.700 |ddv_scf|^2 =  7.031E-04

      iter #   2 total cpu time :   405.2 secs   av.it.:   7.2
      thresh= 2.652E-03 alpha_mix =  0.700 |ddv_scf|^2 =  2.487E-02

      iter #   3 total cpu time :   408.4 secs   av.it.:   5.4
      thresh= 1.000E-02 alpha_mix =  0.700 |ddv_scf|^2 =  6.031E-07

      iter #   4 total cpu time :   412.1 secs   av.it.:   8.1
      thresh= 7.766E-05 alpha_mix =  0.700 |ddv_scf|^2 =  3.323E-08

      iter #   5 total cpu time :   416.1 secs   av.it.:   8.2
      thresh= 1.823E-05 alpha_mix =  0.700 |ddv_scf|^2 =  8.242E-10

      iter #   6 total cpu time :   420.5 secs   av.it.:   8.7
      thresh= 2.871E-06 alpha_mix =  0.700 |ddv_scf|^2 =  1.317E-10

      iter #   7 total cpu time :   425.2 secs   av.it.:   8.0
      thresh= 1.148E-06 alpha_mix =  0.700 |ddv_scf|^2 =  1.750E-09

      iter #   8 total cpu time :   429.6 secs   av.it.:   6.4
      thresh= 4.183E-06 alpha_mix =  0.700 |ddv_scf|^2 =  4.084E-12

      iter #   9 total cpu time :   432.9 secs   av.it.:   8.6
      thresh= 2.021E-07 alpha_mix =  0.700 |ddv_scf|^2 =  6.772E-13

      iter #  10 total cpu time :   436.4 secs   av.it.:   7.6
      thresh= 8.229E-08 alpha_mix =  0.700 |ddv_scf|^2 =  2.325E-12

      iter #  11 total cpu time :   439.6 secs   av.it.:   6.9
      thresh= 1.525E-07 alpha_mix =  0.700 |ddv_scf|^2 =  1.990E-15

      iter #  12 total cpu time :   443.0 secs   av.it.:   8.8
      thresh= 4.460E-09 alpha_mix =  0.700 |ddv_scf|^2 =  1.223E-16

     End of self-consistent calculation

     Convergence has been achieved 


     Representation #  3 mode #   3

     Self-consistent Calculation

      iter #   1 total cpu time :   446.9 secs   av.it.:   5.3
      thresh= 1.000E-02 alpha_mix =  0.700 |ddv_scf|^2 =  4.074E-06

      iter #   2 total cpu time :   450.7 secs   av.it.:   8.3
      thresh= 2.018E-04 alpha_mix =  0.700 |ddv_scf|^2 =  6.524E-08

      iter #   3 total cpu time :   455.1 secs   av.it.:   8.5
      thresh= 2.554E-05 alpha_mix =  0.700 |ddv_scf|^2 =  2.920E-09

      iter #   4 total cpu time :   458.3 secs   av.it.:   8.1
      thresh= 5.404E-06 alpha_mix =  0.700 |ddv_scf|^2 =  1.749E-11

      iter #   5 total cpu time :   461.7 secs   av.it.:   8.1
      thresh= 4.182E-07 alpha_mix =  0.700 |ddv_scf|^2 =  1.297E-13

      iter #   6 total cpu time :   464.8 secs   av.it.:   8.5
      thresh= 3.602E-08 alpha_mix =  0.700 |ddv_scf|^2 =  4.556E-16

     End of self-consistent calculation

     Convergence has been achieved 


     Representation #  4 mode #   4

     Self-consistent Calculation

      iter #   1 total cpu time :   470.2 secs   av.it.:   5.3
      thresh= 1.000E-02 alpha_mix =  0.700 |ddv_scf|^2 =  4.073E-06

      iter #   2 total cpu time :   474.0 secs   av.it.:   8.3
      thresh= 2.018E-04 alpha_mix =  0.700 |ddv_scf|^2 =  6.528E-08

      iter #   3 total cpu time :   477.8 secs   av.it.:   8.5
      thresh= 2.555E-05 alpha_mix =  0.700 |ddv_scf|^2 =  2.928E-09

      iter #   4 total cpu time :   485.6 secs   av.it.:   8.1
      thresh= 5.412E-06 alpha_mix =  0.700 |ddv_scf|^2 =  1.745E-11

      iter #   5 total cpu time :   491.1 secs   av.it.:   8.1
      thresh= 4.177E-07 alpha_mix =  0.700 |ddv_scf|^2 =  1.293E-13

      iter #   6 total cpu time :   495.8 secs   av.it.:   8.5
      thresh= 3.596E-08 alpha_mix =  0.700 |ddv_scf|^2 =  4.558E-16

     End of self-consistent calculation

     Convergence has been achieved 


     Representation #  5 mode #   5

     Self-consistent Calculation

      iter #   1 total cpu time :   500.7 secs   av.it.:   5.5
      thresh= 1.000E-02 alpha_mix =  0.700 |ddv_scf|^2 =  1.125E-05

      iter #   2 total cpu time :   504.6 secs   av.it.:   8.4
      thresh= 3.354E-04 alpha_mix =  0.700 |ddv_scf|^2 =  2.370E-06

      iter #   3 total cpu time :   508.5 secs   av.it.:   7.6
      thresh= 1.539E-04 alpha_mix =  0.700 |ddv_scf|^2 =  1.373E-08

      iter #   4 total cpu time :   514.5 secs   av.it.:   8.6
      thresh= 1.172E-05 alpha_mix =  0.700 |ddv_scf|^2 =  4.656E-10

      iter #   5 total cpu time :   528.9 secs   av.it.:   8.1
      thresh= 2.158E-06 alpha_mix =  0.700 |ddv_scf|^2 =  2.723E-12

      iter #   6 total cpu time :   534.5 secs   av.it.:   8.5
      thresh= 1.650E-07 alpha_mix =  0.700 |ddv_scf|^2 =  1.420E-14

      iter #   7 total cpu time :   537.7 secs   av.it.:   8.2
      thresh= 1.192E-08 alpha_mix =  0.700 |ddv_scf|^2 =  6.580E-16

     End of self-consistent calculation

     Convergence has been achieved 


     Representation #  6 mode #   6

     Self-consistent Calculation

      iter #   1 total cpu time :   541.2 secs   av.it.:   5.5
      thresh= 1.000E-02 alpha_mix =  0.700 |ddv_scf|^2 =  1.125E-05

      iter #   2 total cpu time :   544.0 secs   av.it.:   8.4
      thresh= 3.354E-04 alpha_mix =  0.700 |ddv_scf|^2 =  2.370E-06

      iter #   3 total cpu time :   546.8 secs   av.it.:   7.6
      thresh= 1.539E-04 alpha_mix =  0.700 |ddv_scf|^2 =  1.373E-08

      iter #   4 total cpu time :   549.9 secs   av.it.:   8.6
      thresh= 1.172E-05 alpha_mix =  0.700 |ddv_scf|^2 =  4.657E-10

      iter #   5 total cpu time :   553.3 secs   av.it.:   8.1
      thresh= 2.158E-06 alpha_mix =  0.700 |ddv_scf|^2 =  2.723E-12

      iter #   6 total cpu time :   556.2 secs   av.it.:   8.5
      thresh= 1.650E-07 alpha_mix =  0.700 |ddv_scf|^2 =  1.420E-14

      iter #   7 total cpu time :   559.5 secs   av.it.:   8.2
      thresh= 1.192E-08 alpha_mix =  0.700 |ddv_scf|^2 =  6.579E-16

     End of self-consistent calculation

     Convergence has been achieved 
 
     Number of q in the star =    3
     List of q in the star:
          1   0.000000000   0.288675135   0.000000000
          2   0.250000000  -0.144337567   0.000000000
          3  -0.250000000  -0.144337567   0.000000000
     In addition there is the -q list: 
          1   0.000000000  -0.288675135   0.000000000
          2  -0.250000000   0.144337567   0.000000000
          3   0.250000000   0.144337567   0.000000000

     Diagonalizing the dynamical matrix

     q = (    0.000000000   0.288675135   0.000000000 ) 

 **************************************************************************
     freq (    1) =       1.162836 [THz] =      38.788043 [cm-1]
     freq (    2) =       1.450450 [THz] =      48.381794 [cm-1]
     freq (    3) =       2.435298 [THz] =      81.232810 [cm-1]
     freq (    4) =       2.599599 [THz] =      86.713285 [cm-1]
     freq (    5) =       3.175814 [THz] =     105.933759 [cm-1]
     freq (    6) =       3.800930 [THz] =     126.785379 [cm-1]
 **************************************************************************

     Mode symmetry, C_2v (mm2)  point group:

     freq (  1 -  1) =         38.8  [cm-1]   --> B_1  D_3  S_3      
     freq (  2 -  2) =         48.4  [cm-1]   --> B_2  D_4  S_4      
     freq (  3 -  3) =         81.2  [cm-1]   --> B_1  D_3  S_3      
     freq (  4 -  4) =         86.7  [cm-1]   --> A_1  D_1  S_1      
     freq (  5 -  5) =        105.9  [cm-1]   --> A_1  D_1  S_1      
     freq (  6 -  6) =        126.8  [cm-1]   --> B_2  D_4  S_4      

     Calculation of q =    0.0000000   0.2886751   0.1533150
 
     Parallelization info
     --------------------
     sticks:   dense  smooth     PW     G-vecs:    dense   smooth      PW
     Min         133      68     21                 5835     2056     377
     Max         134      69     22                 5844     2068     383
     Sum        1069     547    169                46721    16503    3039
 


     bravais-lattice index     =            4
     lattice parameter (alat)  =       6.9941  a.u.
     unit-cell volume          =     483.1514 (a.u.)^3
     number of atoms/cell      =            2
     number of atomic types    =            1
     number of electrons       =        18.00
     number of Kohn-Sham states=           13
     kinetic-energy cutoff     =      40.0000  Ry
     charge density cutoff     =     320.0000  Ry
     Exchange-correlation      = SLA  PW   PBE  PBE ( 1  4  3  4 0 0)

     celldm(1)=   6.994109  celldm(2)=   0.000000  celldm(3)=   1.630630
     celldm(4)=   0.000000  celldm(5)=   0.000000  celldm(6)=   0.000000

     crystal axes: (cart. coord. in units of alat)
               a(1) = (   1.000000   0.000000   0.000000 )  
               a(2) = (  -0.500000   0.866025   0.000000 )  
               a(3) = (   0.000000   0.000000   1.630630 )  

     reciprocal axes: (cart. coord. in units 2 pi/alat)
               b(1) = (  1.000000  0.577350  0.000000 )  
               b(2) = (  0.000000  1.154701  0.000000 )  
               b(3) = (  0.000000  0.000000  0.613260 )  


     PseudoPot. # 1 for Na read from file:
     ./Na_pbe_v1.uspp.F.UPF
     MD5 check sum: 76a99c7e9422403d3e93cbc85ab7bccb
     Pseudo is Ultrasoft, Zval =  9.0
     Generated by new atomic code, or converted to UPF format
     Using radial grid of  819 points,  5 beta functions with: 
                l(1) =   0
                l(2) =   0
                l(3) =   1
                l(4) =   1
                l(5) =   2
     Q(r) pseudized with  8 coefficients,  rinner =    1.250   1.250   1.250
                                                       1.250   1.250

     atomic species   valence    mass     pseudopotential
        Na             9.00    22.99000     Na( 1.00)

     12 Sym. Ops. (no inversion) found



   Cartesian axes

     site n.     atom                  positions (alat units)
         1           Na  tau(   1) = (   0.0000000   0.0000000   0.0000000  )
         2           Na  tau(   2) = (   0.5000000   0.2886751   0.8153150  )

     number of k points=  7200  Marzari-Vanderbilt smearing, width (Ry)=  0.0200

     Number of k-points >= 100: set verbosity='high' to print them.

     Dense  grid:    46721 G-vectors     FFT dimensions: (  40,  40,  72)

     Smooth grid:    16503 G-vectors     FFT dimensions: (  30,  30,  45)

     Largest allocated arrays     est. size (Mb)     dimensions
        Kohn-Sham Wavefunctions         0.05 Mb     (     272,   13)
        NL pseudopotentials             0.11 Mb     (     272,   26)
        Each V/rho on FFT grid          0.22 Mb     (   14400)
        Each G-vector array             0.04 Mb     (    5844)
        G-vector shells                 0.01 Mb     (    1796)
     Largest temporary arrays     est. size (Mb)     dimensions
        Auxiliary wavefunctions         0.22 Mb     (     272,   52)
        Each subspace H/S matrix        0.01 Mb     (      26,   26)
        Each <psi_i|beta_j> matrix      0.01 Mb     (      26,   13)

     The potential is recalculated from file :
     ./na_hcp_6.99410908717325/_ph0/na_hcp_6.99410908717325.save/charge-density.dat

     Starting wfc are   10 atomic +    3 random wfc

     Band Structure Calculation
     Davidson diagonalization with overlap

     ethr =  5.56E-11,  avg # of iterations = 22.7

     total cpu time spent up to now is       51.1 secs

     End of band structure calculation

     Number of k-points >= 100: set verbosity='high' to print the bands.

     the Fermi energy is     1.7520 ev

     Writing output data file na_hcp_6.99410908717325.save

                                                                                

     bravais-lattice index     =            4
     lattice parameter (alat)  =       6.9941  a.u.
     unit-cell volume          =     483.1514 (a.u.)^3
     number of atoms/cell      =            2
     number of atomic types    =            1
     kinetic-energy cut-off    =      40.0000  Ry
     charge density cut-off    =     320.0000  Ry
     convergence threshold     =      1.0E-15
     beta                      =       0.7000
     number of iterations used =            4
     Exchange-correlation      = SLA  PW   PBE  PBE ( 1  4  3  4 0 0)


     celldm(1)=    6.99411  celldm(2)=    0.00000  celldm(3)=    1.63063
     celldm(4)=    0.00000  celldm(5)=    0.00000  celldm(6)=    0.00000

     crystal axes: (cart. coord. in units of alat)
               a(1) = (  1.0000  0.0000  0.0000 )  
               a(2) = ( -0.5000  0.8660  0.0000 )  
               a(3) = (  0.0000  0.0000  1.6306 )  

     reciprocal axes: (cart. coord. in units 2 pi/alat)
               b(1) = (  1.0000  0.5774  0.0000 )  
               b(2) = (  0.0000  1.1547  0.0000 )  
               b(3) = (  0.0000  0.0000  0.6133 )  


     Atoms inside the unit cell: 

     Cartesian axes

     site n.  atom      mass           positions (alat units)
        1     Na  22.9900   tau(    1) = (    0.00000    0.00000    0.00000  )
        2     Na  22.9900   tau(    2) = (    0.50000    0.28868    0.81532  )

     Computing dynamical matrix for 
                    q = (   0.0000000   0.2886751   0.1533150 )
 
      2 Sym.Ops. (no q -> -q+G )


     G cutoff =  396.5108  (   5844 G-vectors)     FFT grid: ( 40, 40, 72)
     G cutoff =  198.2554  (   2064 G-vectors)  smooth grid: ( 30, 30, 45)

     number of k points=  7200  Marzari-Vanderbilt smearing, width (Ry)=  0.0200

     PseudoPot. # 1 for Na read from file:
     ./Na_pbe_v1.uspp.F.UPF
     MD5 check sum: 76a99c7e9422403d3e93cbc85ab7bccb
     Pseudo is Ultrasoft, Zval =  9.0
     Generated by new atomic code, or converted to UPF format
     Using radial grid of  819 points,  5 beta functions with: 
                l(1) =   0
                l(2) =   0
                l(3) =   1
                l(4) =   1
                l(5) =   2
     Q(r) pseudized with  8 coefficients,  rinner =    1.250   1.250   1.250
                                                       1.250   1.250

     Mode symmetry, C_s (m)     point group:


     Atomic displacements:
     There are   6 irreducible representations

     Representation     1      1 modes -A'  To be done

     Representation     2      1 modes -A'  To be done

     Representation     3      1 modes -A'  To be done

     Representation     4      1 modes -A'  To be done

     Representation     5      1 modes -A''  To be done

     Representation     6      1 modes -A''  To be done



     Alpha used in Ewald sum =   2.8000
     PHONON       :  8m22.45s CPU     9m53.00s WALL



     Representation #  1 mode #   1

     Self-consistent Calculation

      iter #   1 total cpu time :   596.1 secs   av.it.:   5.7
      thresh= 1.000E-02 alpha_mix =  0.700 |ddv_scf|^2 =  2.756E-04

      iter #   2 total cpu time :   603.6 secs   av.it.:   7.5
      thresh= 1.660E-03 alpha_mix =  0.700 |ddv_scf|^2 =  5.402E-03

      iter #   3 total cpu time :   610.3 secs   av.it.:   5.4
      thresh= 7.350E-03 alpha_mix =  0.700 |ddv_scf|^2 =  2.477E-06

      iter #   4 total cpu time :   617.2 secs   av.it.:   7.7
      thresh= 1.574E-04 alpha_mix =  0.700 |ddv_scf|^2 =  3.483E-07

      iter #   5 total cpu time :   624.3 secs   av.it.:   7.7
      thresh= 5.902E-05 alpha_mix =  0.700 |ddv_scf|^2 =  1.567E-09

      iter #   6 total cpu time :   633.3 secs   av.it.:   8.7
      thresh= 3.959E-06 alpha_mix =  0.700 |ddv_scf|^2 =  7.724E-11

      iter #   7 total cpu time :   641.5 secs   av.it.:   8.6
      thresh= 8.788E-07 alpha_mix =  0.700 |ddv_scf|^2 =  6.966E-11

      iter #   8 total cpu time :   649.1 secs   av.it.:   7.3
      thresh= 8.346E-07 alpha_mix =  0.700 |ddv_scf|^2 =  4.921E-11

      iter #   9 total cpu time :   656.6 secs   av.it.:   7.5
      thresh= 7.015E-07 alpha_mix =  0.700 |ddv_scf|^2 =  6.411E-13

      iter #  10 total cpu time :   662.5 secs   av.it.:   8.1
      thresh= 8.007E-08 alpha_mix =  0.700 |ddv_scf|^2 =  8.878E-13

      iter #  11 total cpu time :   674.6 secs   av.it.:   7.4
      thresh= 9.422E-08 alpha_mix =  0.700 |ddv_scf|^2 =  8.458E-15

      iter #  12 total cpu time :   684.6 secs   av.it.:   8.4
      thresh= 9.197E-09 alpha_mix =  0.700 |ddv_scf|^2 =  3.411E-15

      iter #  13 total cpu time :   695.4 secs   av.it.:   8.0
      thresh= 5.840E-09 alpha_mix =  0.700 |ddv_scf|^2 =  9.600E-16

     End of self-consistent calculation

     Convergence has been achieved 


     Representation #  2 mode #   2

     Self-consistent Calculation

      iter #   1 total cpu time :   705.3 secs   av.it.:   5.7
      thresh= 1.000E-02 alpha_mix =  0.700 |ddv_scf|^2 =  4.722E-05

      iter #   2 total cpu time :   712.2 secs   av.it.:   7.8
      thresh= 6.872E-04 alpha_mix =  0.700 |ddv_scf|^2 =  5.646E-04

      iter #   3 total cpu time :   719.3 secs   av.it.:   5.8
      thresh= 2.376E-03 alpha_mix =  0.700 |ddv_scf|^2 =  1.824E-05

      iter #   4 total cpu time :   727.2 secs   av.it.:   7.1
      thresh= 4.270E-04 alpha_mix =  0.700 |ddv_scf|^2 =  8.613E-08

      iter #   5 total cpu time :   733.9 secs   av.it.:   8.5
      thresh= 2.935E-05 alpha_mix =  0.700 |ddv_scf|^2 =  9.860E-10

      iter #   6 total cpu time :   741.5 secs   av.it.:   8.8
      thresh= 3.140E-06 alpha_mix =  0.700 |ddv_scf|^2 =  8.174E-11

      iter #   7 total cpu time :   748.7 secs   av.it.:   8.7
      thresh= 9.041E-07 alpha_mix =  0.700 |ddv_scf|^2 =  5.464E-11

      iter #   8 total cpu time :   757.2 secs   av.it.:   7.7
      thresh= 7.392E-07 alpha_mix =  0.700 |ddv_scf|^2 =  1.873E-10

      iter #   9 total cpu time :   763.5 secs   av.it.:   6.8
      thresh= 1.369E-06 alpha_mix =  0.700 |ddv_scf|^2 =  4.482E-12

      iter #  10 total cpu time :   770.4 secs   av.it.:   7.6
      thresh= 2.117E-07 alpha_mix =  0.700 |ddv_scf|^2 =  3.720E-12

      iter #  11 total cpu time :   777.3 secs   av.it.:   7.5
      thresh= 1.929E-07 alpha_mix =  0.700 |ddv_scf|^2 =  1.586E-14

      iter #  12 total cpu time :   785.4 secs   av.it.:   8.2
      thresh= 1.259E-08 alpha_mix =  0.700 |ddv_scf|^2 =  3.367E-15

      iter #  13 total cpu time :   793.2 secs   av.it.:   8.5
      thresh= 5.803E-09 alpha_mix =  0.700 |ddv_scf|^2 =  8.061E-17

     End of self-consistent calculation

     Convergence has been achieved 


     Representation #  3 mode #   3

     Self-consistent Calculation

      iter #   1 total cpu time :   800.2 secs   av.it.:   5.8
      thresh= 1.000E-02 alpha_mix =  0.700 |ddv_scf|^2 =  3.156E-04

      iter #   2 total cpu time :   807.6 secs   av.it.:   7.5
      thresh= 1.776E-03 alpha_mix =  0.700 |ddv_scf|^2 =  6.271E-03

      iter #   3 total cpu time :   816.5 secs   av.it.:   5.4
      thresh= 7.919E-03 alpha_mix =  0.700 |ddv_scf|^2 =  8.096E-07

      iter #   4 total cpu time :   823.1 secs   av.it.:   7.9
      thresh= 8.998E-05 alpha_mix =  0.700 |ddv_scf|^2 =  3.649E-07

      iter #   5 total cpu time :   832.1 secs   av.it.:   7.6
      thresh= 6.040E-05 alpha_mix =  0.700 |ddv_scf|^2 =  1.932E-09

      iter #   6 total cpu time :   839.2 secs   av.it.:   8.7
      thresh= 4.396E-06 alpha_mix =  0.700 |ddv_scf|^2 =  9.401E-11

      iter #   7 total cpu time :   846.7 secs   av.it.:   8.5
      thresh= 9.696E-07 alpha_mix =  0.700 |ddv_scf|^2 =  3.995E-12

      iter #   8 total cpu time :   855.5 secs   av.it.:   8.8
      thresh= 1.999E-07 alpha_mix =  0.700 |ddv_scf|^2 =  2.573E-11

      iter #   9 total cpu time :   866.8 secs   av.it.:   6.9
      thresh= 5.073E-07 alpha_mix =  0.700 |ddv_scf|^2 =  1.367E-12

      iter #  10 total cpu time :   874.1 secs   av.it.:   7.9
      thresh= 1.169E-07 alpha_mix =  0.700 |ddv_scf|^2 =  7.183E-13

      iter #  11 total cpu time :   882.5 secs   av.it.:   7.0
      thresh= 8.475E-08 alpha_mix =  0.700 |ddv_scf|^2 =  1.908E-14

      iter #  12 total cpu time :   889.6 secs   av.it.:   8.1
      thresh= 1.381E-08 alpha_mix =  0.700 |ddv_scf|^2 =  3.064E-15

      iter #  13 total cpu time :   897.5 secs   av.it.:   8.0
      thresh= 5.535E-09 alpha_mix =  0.700 |ddv_scf|^2 =  2.014E-16

     End of self-consistent calculation

     Convergence has been achieved 


     Representation #  4 mode #   4

     Self-consistent Calculation

      iter #   1 total cpu time :   904.3 secs   av.it.:   5.7
      thresh= 1.000E-02 alpha_mix =  0.700 |ddv_scf|^2 =  8.721E-05

      iter #   2 total cpu time :   911.5 secs   av.it.:   7.8
      thresh= 9.338E-04 alpha_mix =  0.700 |ddv_scf|^2 =  1.433E-03

      iter #   3 total cpu time :   919.2 secs   av.it.:   5.6
      thresh= 3.785E-03 alpha_mix =  0.700 |ddv_scf|^2 =  9.075E-06

      iter #   4 total cpu time :   926.9 secs   av.it.:   7.4
      thresh= 3.013E-04 alpha_mix =  0.700 |ddv_scf|^2 =  1.362E-07

      iter #   5 total cpu time :   934.0 secs   av.it.:   8.1
      thresh= 3.691E-05 alpha_mix =  0.700 |ddv_scf|^2 =  1.122E-09

      iter #   6 total cpu time :   942.5 secs   av.it.:   8.8
      thresh= 3.350E-06 alpha_mix =  0.700 |ddv_scf|^2 =  9.624E-11

      iter #   7 total cpu time :   951.4 secs   av.it.:   8.7
      thresh= 9.810E-07 alpha_mix =  0.700 |ddv_scf|^2 =  4.709E-11

      iter #   8 total cpu time :   959.2 secs   av.it.:   7.8
      thresh= 6.862E-07 alpha_mix =  0.700 |ddv_scf|^2 =  3.071E-10

      iter #   9 total cpu time :   966.6 secs   av.it.:   6.7
      thresh= 1.752E-06 alpha_mix =  0.700 |ddv_scf|^2 =  7.009E-12

      iter #  10 total cpu time :   973.4 secs   av.it.:   7.6
      thresh= 2.647E-07 alpha_mix =  0.700 |ddv_scf|^2 =  2.221E-12

      iter #  11 total cpu time :   981.1 secs   av.it.:   7.7
      thresh= 1.490E-07 alpha_mix =  0.700 |ddv_scf|^2 =  3.190E-14

      iter #  12 total cpu time :   988.0 secs   av.it.:   7.9
      thresh= 1.786E-08 alpha_mix =  0.700 |ddv_scf|^2 =  3.959E-15

      iter #  13 total cpu time :  1000.1 secs   av.it.:   8.7
      thresh= 6.292E-09 alpha_mix =  0.700 |ddv_scf|^2 =  1.155E-16

     End of self-consistent calculation

     Convergence has been achieved 


     Representation #  5 mode #   5

     Self-consistent Calculation

      iter #   1 total cpu time :  1011.7 secs   av.it.:   5.3
      thresh= 1.000E-02 alpha_mix =  0.700 |ddv_scf|^2 =  4.064E-06

      iter #   2 total cpu time :  1025.1 secs   av.it.:   8.3
      thresh= 2.016E-04 alpha_mix =  0.700 |ddv_scf|^2 =  6.502E-08

      iter #   3 total cpu time :  1035.1 secs   av.it.:   8.5
      thresh= 2.550E-05 alpha_mix =  0.700 |ddv_scf|^2 =  2.934E-09

      iter #   4 total cpu time :  1043.4 secs   av.it.:   8.0
      thresh= 5.417E-06 alpha_mix =  0.700 |ddv_scf|^2 =  1.356E-11

      iter #   5 total cpu time :  1054.9 secs   av.it.:   8.3
      thresh= 3.682E-07 alpha_mix =  0.700 |ddv_scf|^2 =  9.676E-14

      iter #   6 total cpu time :  1063.6 secs   av.it.:   8.5
      thresh= 3.111E-08 alpha_mix =  0.700 |ddv_scf|^2 =  4.354E-16

     End of self-consistent calculation

     Convergence has been achieved 


     Representation #  6 mode #   6

     Self-consistent Calculation

      iter #   1 total cpu time :  1071.4 secs   av.it.:   5.3
      thresh= 1.000E-02 alpha_mix =  0.700 |ddv_scf|^2 =  4.064E-06

      iter #   2 total cpu time :  1079.2 secs   av.it.:   8.3
      thresh= 2.016E-04 alpha_mix =  0.700 |ddv_scf|^2 =  6.506E-08

      iter #   3 total cpu time :  1085.2 secs   av.it.:   8.5
      thresh= 2.551E-05 alpha_mix =  0.700 |ddv_scf|^2 =  2.943E-09

      iter #   4 total cpu time :  1092.9 secs   av.it.:   8.0
      thresh= 5.425E-06 alpha_mix =  0.700 |ddv_scf|^2 =  1.352E-11

      iter #   5 total cpu time :  1100.7 secs   av.it.:   8.3
      thresh= 3.677E-07 alpha_mix =  0.700 |ddv_scf|^2 =  9.654E-14

      iter #   6 total cpu time :  1109.6 secs   av.it.:   8.5
      thresh= 3.107E-08 alpha_mix =  0.700 |ddv_scf|^2 =  4.355E-16

     End of self-consistent calculation

     Convergence has been achieved 
 
     Number of q in the star =    6
     List of q in the star:
          1   0.000000000   0.288675135   0.153314970
          2   0.000000000   0.288675135  -0.153314970
          3   0.250000000  -0.144337567   0.153314970
          4  -0.250000000  -0.144337567   0.153314970
          5   0.250000000  -0.144337567  -0.153314970
          6  -0.250000000  -0.144337567  -0.153314970
     In addition there is the -q list: 
          1   0.000000000  -0.288675135  -0.153314970
          2   0.000000000  -0.288675135   0.153314970
          3  -0.250000000   0.144337567  -0.153314970
          4   0.250000000   0.144337567  -0.153314970
          5  -0.250000000   0.144337567   0.153314970
          6   0.250000000   0.144337567   0.153314970

     Diagonalizing the dynamical matrix

     q = (    0.000000000   0.288675135   0.153314970 ) 

 **************************************************************************
     freq (    1) =       1.413973 [THz] =      47.165058 [cm-1]
     freq (    2) =       1.669697 [THz] =      55.695087 [cm-1]
     freq (    3) =       2.303123 [THz] =      76.823917 [cm-1]
     freq (    4) =       2.855180 [THz] =      95.238541 [cm-1]
     freq (    5) =       2.973143 [THz] =      99.173376 [cm-1]
     freq (    6) =       3.704375 [THz] =     123.564646 [cm-1]
 **************************************************************************

     Mode symmetry, C_s (m)     point group:

     freq (  1 -  1) =         47.2  [cm-1]   --> A''                
     freq (  2 -  2) =         55.7  [cm-1]   --> A'                 
     freq (  3 -  3) =         76.8  [cm-1]   --> A''                
     freq (  4 -  4) =         95.2  [cm-1]   --> A'                 
     freq (  5 -  5) =         99.2  [cm-1]   --> A'                 
     freq (  6 -  6) =        123.6  [cm-1]   --> A'                 

     Calculation of q =    0.0000000   0.2886751  -0.3066299
 
     Parallelization info
     --------------------
     sticks:   dense  smooth     PW     G-vecs:    dense   smooth      PW
     Min         133      68     20                 5835     2056     374
     Max         134      69     22                 5844     2068     381
     Sum        1069     547    169                46721    16503    3015
 


     bravais-lattice index     =            4
     lattice parameter (alat)  =       6.9941  a.u.
     unit-cell volume          =     483.1514 (a.u.)^3
     number of atoms/cell      =            2
     number of atomic types    =            1
     number of electrons       =        18.00
     number of Kohn-Sham states=           13
     kinetic-energy cutoff     =      40.0000  Ry
     charge density cutoff     =     320.0000  Ry
     Exchange-correlation      = SLA  PW   PBE  PBE ( 1  4  3  4 0 0)

     celldm(1)=   6.994109  celldm(2)=   0.000000  celldm(3)=   1.630630
     celldm(4)=   0.000000  celldm(5)=   0.000000  celldm(6)=   0.000000

     crystal axes: (cart. coord. in units of alat)
               a(1) = (   1.000000   0.000000   0.000000 )  
               a(2) = (  -0.500000   0.866025   0.000000 )  
               a(3) = (   0.000000   0.000000   1.630630 )  

     reciprocal axes: (cart. coord. in units 2 pi/alat)
               b(1) = (  1.000000  0.577350  0.000000 )  
               b(2) = (  0.000000  1.154701  0.000000 )  
               b(3) = (  0.000000  0.000000  0.613260 )  


     PseudoPot. # 1 for Na read from file:
     ./Na_pbe_v1.uspp.F.UPF
     MD5 check sum: 76a99c7e9422403d3e93cbc85ab7bccb
     Pseudo is Ultrasoft, Zval =  9.0
     Generated by new atomic code, or converted to UPF format
     Using radial grid of  819 points,  5 beta functions with: 
                l(1) =   0
                l(2) =   0
                l(3) =   1
                l(4) =   1
                l(5) =   2
     Q(r) pseudized with  8 coefficients,  rinner =    1.250   1.250   1.250
                                                       1.250   1.250

     atomic species   valence    mass     pseudopotential
        Na             9.00    22.99000     Na( 1.00)

     12 Sym. Ops. (no inversion) found



   Cartesian axes

     site n.     atom                  positions (alat units)
         1           Na  tau(   1) = (   0.0000000   0.0000000   0.0000000  )
         2           Na  tau(   2) = (   0.5000000   0.2886751   0.8153150  )

     number of k points=  3600  Marzari-Vanderbilt smearing, width (Ry)=  0.0200

     Number of k-points >= 100: set verbosity='high' to print them.

     Dense  grid:    46721 G-vectors     FFT dimensions: (  40,  40,  72)

     Smooth grid:    16503 G-vectors     FFT dimensions: (  30,  30,  45)

     Largest allocated arrays     est. size (Mb)     dimensions
        Kohn-Sham Wavefunctions         0.05 Mb     (     276,   13)
        NL pseudopotentials             0.11 Mb     (     276,   26)
        Each V/rho on FFT grid          0.22 Mb     (   14400)
        Each G-vector array             0.04 Mb     (    5844)
        G-vector shells                 0.01 Mb     (    1733)
     Largest temporary arrays     est. size (Mb)     dimensions
        Auxiliary wavefunctions         0.22 Mb     (     276,   52)
        Each subspace H/S matrix        0.01 Mb     (      26,   26)
        Each <psi_i|beta_j> matrix      0.01 Mb     (      26,   13)

     The potential is recalculated from file :
     ./na_hcp_6.99410908717325/_ph0/na_hcp_6.99410908717325.save/charge-density.dat

     Starting wfc are   10 atomic +    3 random wfc

     Band Structure Calculation
     Davidson diagonalization with overlap

     ethr =  5.56E-11,  avg # of iterations = 22.7

     total cpu time spent up to now is       70.3 secs

     End of band structure calculation

     Number of k-points >= 100: set verbosity='high' to print the bands.

     the Fermi energy is     1.7520 ev

     Writing output data file na_hcp_6.99410908717325.save

                                                                                

     bravais-lattice index     =            4
     lattice parameter (alat)  =       6.9941  a.u.
     unit-cell volume          =     483.1514 (a.u.)^3
     number of atoms/cell      =            2
     number of atomic types    =            1
     kinetic-energy cut-off    =      40.0000  Ry
     charge density cut-off    =     320.0000  Ry
     convergence threshold     =      1.0E-15
     beta                      =       0.7000
     number of iterations used =            4
     Exchange-correlation      = SLA  PW   PBE  PBE ( 1  4  3  4 0 0)


     celldm(1)=    6.99411  celldm(2)=    0.00000  celldm(3)=    1.63063
     celldm(4)=    0.00000  celldm(5)=    0.00000  celldm(6)=    0.00000

     crystal axes: (cart. coord. in units of alat)
               a(1) = (  1.0000  0.0000  0.0000 )  
               a(2) = ( -0.5000  0.8660  0.0000 )  
               a(3) = (  0.0000  0.0000  1.6306 )  

     reciprocal axes: (cart. coord. in units 2 pi/alat)
               b(1) = (  1.0000  0.5774  0.0000 )  
               b(2) = (  0.0000  1.1547  0.0000 )  
               b(3) = (  0.0000  0.0000  0.6133 )  


     Atoms inside the unit cell: 

     Cartesian axes

     site n.  atom      mass           positions (alat units)
[...]
         1           Na  tau(   1) = (   0.0000000   0.0000000   0.0000000  )
         2           Na  tau(   2) = (   0.5000000   0.2886751   0.8153150  )

     number of k points=  6912  Marzari-Vanderbilt smearing, width (Ry)=  0.0200

     Number of k-points >= 100: set verbosity='high' to print them.

     Dense  grid:    46721 G-vectors     FFT dimensions: (  40,  40,  72)

     Smooth grid:    16503 G-vectors     FFT dimensions: (  30,  30,  45)

     Largest allocated arrays     est. size (Mb)     dimensions
        Kohn-Sham Wavefunctions         0.05 Mb     (     275,   13)
        NL pseudopotentials             0.11 Mb     (     275,   26)
        Each V/rho on FFT grid          0.22 Mb     (   14400)
        Each G-vector array             0.04 Mb     (    5844)
        G-vector shells                 0.01 Mb     (    1671)
     Largest temporary arrays     est. size (Mb)     dimensions
        Auxiliary wavefunctions         0.22 Mb     (     275,   52)
        Each subspace H/S matrix        0.01 Mb     (      26,   26)
        Each <psi_i|beta_j> matrix      0.01 Mb     (      26,   13)

     The potential is recalculated from file :
     ./na_hcp_6.99410908717325/_ph0/na_hcp_6.99410908717325.save/charge-density.dat

     Starting wfc are   10 atomic +    3 random wfc

     Band Structure Calculation
     Davidson diagonalization with overlap

     ethr =  5.56E-11,  avg # of iterations = 22.4

     total cpu time spent up to now is      245.7 secs

     End of band structure calculation

     Number of k-points >= 100: set verbosity='high' to print the bands.

     the Fermi energy is     1.7520 ev

     Writing output data file na_hcp_6.99410908717325.save

                                                                                

     bravais-lattice index     =            4
     lattice parameter (alat)  =       6.9941  a.u.
     unit-cell volume          =     483.1514 (a.u.)^3
     number of atoms/cell      =            2
     number of atomic types    =            1
     kinetic-energy cut-off    =      40.0000  Ry
     charge density cut-off    =     320.0000  Ry
     convergence threshold     =      1.0E-15
     beta                      =       0.7000
     number of iterations used =            4
     Exchange-correlation      = SLA  PW   PBE  PBE ( 1  4  3  4 0 0)


     celldm(1)=    6.99411  celldm(2)=    0.00000  celldm(3)=    1.63063
     celldm(4)=    0.00000  celldm(5)=    0.00000  celldm(6)=    0.00000

     crystal axes: (cart. coord. in units of alat)
               a(1) = (  1.0000  0.0000  0.0000 )  
               a(2) = ( -0.5000  0.8660  0.0000 )  
               a(3) = (  0.0000  0.0000  1.6306 )  

     reciprocal axes: (cart. coord. in units 2 pi/alat)
               b(1) = (  1.0000  0.5774  0.0000 )  
               b(2) = (  0.0000  1.1547  0.0000 )  
               b(3) = (  0.0000  0.0000  0.6133 )  


     Atoms inside the unit cell: 

     Cartesian axes

     site n.  atom      mass           positions (alat units)
        1     Na  22.9900   tau(    1) = (    0.00000    0.00000    0.00000  )
        2     Na  22.9900   tau(    2) = (    0.50000    0.28868    0.81532  )

     Computing dynamical matrix for 
                    q = (   0.2500000   0.4330127  -0.3066299 )
 
      2 Sym.Ops. (no q -> -q+G )


     G cutoff =  396.5108  (   5844 G-vectors)     FFT grid: ( 40, 40, 72)
     G cutoff =  198.2554  (   2064 G-vectors)  smooth grid: ( 30, 30, 45)

     number of k points=  6912  Marzari-Vanderbilt smearing, width (Ry)=  0.0200

     PseudoPot. # 1 for Na read from file:
     ./Na_pbe_v1.uspp.F.UPF
     MD5 check sum: 76a99c7e9422403d3e93cbc85ab7bccb
     Pseudo is Ultrasoft, Zval =  9.0
     Generated by new atomic code, or converted to UPF format
     Using radial grid of  819 points,  5 beta functions with: 
                l(1) =   0
                l(2) =   0
                l(3) =   1
                l(4) =   1
                l(5) =   2
     Q(r) pseudized with  8 coefficients,  rinner =    1.250   1.250   1.250
                                                       1.250   1.250

     Mode symmetry, C_s (m)     point group:


     Atomic displacements:
     There are   6 irreducible representations

     Representation     1      1 modes -A'  To be done

     Representation     2      1 modes -A'  To be done

     Representation     3      1 modes -A'  To be done

     Representation     4      1 modes -A''  To be done

     Representation     5      1 modes -A''  To be done

     Representation     6      1 modes -A''  To be done



     Alpha used in Ewald sum =   2.8000
     PHONON       : 52m37.58s CPU    59m13.35s WALL



     Representation #  1 mode #   1

     Self-consistent Calculation

      iter #   1 total cpu time :  3557.7 secs   av.it.:   5.7
      thresh= 1.000E-02 alpha_mix =  0.700 |ddv_scf|^2 =  1.998E-05

      iter #   2 total cpu time :  3568.4 secs   av.it.:   8.4
      thresh= 4.470E-04 alpha_mix =  0.700 |ddv_scf|^2 =  1.230E-05

      iter #   3 total cpu time :  3575.4 secs   av.it.:   7.7
      thresh= 3.507E-04 alpha_mix =  0.700 |ddv_scf|^2 =  4.107E-08

      iter #   4 total cpu time :  3596.0 secs   av.it.:   8.8
      thresh= 2.027E-05 alpha_mix =  0.700 |ddv_scf|^2 =  1.560E-09

      iter #   5 total cpu time :  3615.5 secs   av.it.:   8.9
      thresh= 3.950E-06 alpha_mix =  0.700 |ddv_scf|^2 =  7.599E-11

      iter #   6 total cpu time :  3623.5 secs   av.it.:   9.0
      thresh= 8.717E-07 alpha_mix =  0.700 |ddv_scf|^2 =  5.510E-12

      iter #   7 total cpu time :  3630.6 secs   av.it.:   8.8
      thresh= 2.347E-07 alpha_mix =  0.700 |ddv_scf|^2 =  3.936E-14

      iter #   8 total cpu time :  3638.9 secs   av.it.:   8.8
      thresh= 1.984E-08 alpha_mix =  0.700 |ddv_scf|^2 =  1.018E-15

      iter #   9 total cpu time :  3666.0 secs   av.it.:   8.5
      thresh= 3.190E-09 alpha_mix =  0.700 |ddv_scf|^2 =  1.070E-16

     End of self-consistent calculation

     Convergence has been achieved 


     Representation #  2 mode #   2

     Self-consistent Calculation

      iter #   1 total cpu time :  3671.5 secs   av.it.:   5.6
      thresh= 1.000E-02 alpha_mix =  0.700 |ddv_scf|^2 =  1.079E-05

      iter #   2 total cpu time :  3679.4 secs   av.it.:   8.6
      thresh= 3.285E-04 alpha_mix =  0.700 |ddv_scf|^2 =  5.263E-06

      iter #   3 total cpu time :  3687.2 secs   av.it.:   7.8
      thresh= 2.294E-04 alpha_mix =  0.700 |ddv_scf|^2 =  6.481E-08

      iter #   4 total cpu time :  3695.0 secs   av.it.:   8.6
      thresh= 2.546E-05 alpha_mix =  0.700 |ddv_scf|^2 =  1.338E-09

      iter #   5 total cpu time :  3702.5 secs   av.it.:   8.7
      thresh= 3.657E-06 alpha_mix =  0.700 |ddv_scf|^2 =  1.121E-10

      iter #   6 total cpu time :  3714.2 secs   av.it.:   8.7
      thresh= 1.059E-06 alpha_mix =  0.700 |ddv_scf|^2 =  3.427E-12

      iter #   7 total cpu time :  3723.2 secs   av.it.:   9.1
      thresh= 1.851E-07 alpha_mix =  0.700 |ddv_scf|^2 =  7.053E-14

      iter #   8 total cpu time :  3733.4 secs   av.it.:   8.9
      thresh= 2.656E-08 alpha_mix =  0.700 |ddv_scf|^2 =  4.263E-15

      iter #   9 total cpu time :  3739.8 secs   av.it.:   8.9
      thresh= 6.529E-09 alpha_mix =  0.700 |ddv_scf|^2 =  1.667E-16

     End of self-consistent calculation

     Convergence has been achieved 


     Representation #  3 mode #   3

     Self-consistent Calculation

      iter #   1 total cpu time :  3748.9 secs   av.it.:   5.7
      thresh= 1.000E-02 alpha_mix =  0.700 |ddv_scf|^2 =  7.776E-06

      iter #   2 total cpu time :  3757.7 secs   av.it.:   8.6
      thresh= 2.788E-04 alpha_mix =  0.700 |ddv_scf|^2 =  1.358E-06

      iter #   3 total cpu time :  3766.2 secs   av.it.:   7.9
      thresh= 1.165E-04 alpha_mix =  0.700 |ddv_scf|^2 =  1.889E-07

      iter #   4 total cpu time :  3773.4 secs   av.it.:   8.0
      thresh= 4.346E-05 alpha_mix =  0.700 |ddv_scf|^2 =  2.625E-09

      iter #   5 total cpu time :  3781.6 secs   av.it.:   8.7
      thresh= 5.124E-06 alpha_mix =  0.700 |ddv_scf|^2 =  4.624E-11

      iter #   6 total cpu time :  3789.9 secs   av.it.:   8.7
      thresh= 6.800E-07 alpha_mix =  0.700 |ddv_scf|^2 =  1.966E-12

      iter #   7 total cpu time :  3798.6 secs   av.it.:   9.2
      thresh= 1.402E-07 alpha_mix =  0.700 |ddv_scf|^2 =  9.127E-14

      iter #   8 total cpu time :  3807.0 secs   av.it.:   9.2
      thresh= 3.021E-08 alpha_mix =  0.700 |ddv_scf|^2 =  9.182E-16

     End of self-consistent calculation

     Convergence has been achieved 


     Representation #  4 mode #   4

     Self-consistent Calculation

      iter #   1 total cpu time :  3818.3 secs   av.it.:   5.6
      thresh= 1.000E-02 alpha_mix =  0.700 |ddv_scf|^2 =  7.942E-06

      iter #   2 total cpu time :  3829.3 secs   av.it.:   8.7
      thresh= 2.818E-04 alpha_mix =  0.700 |ddv_scf|^2 =  1.518E-06

      iter #   3 total cpu time :  3839.0 secs   av.it.:   7.9
      thresh= 1.232E-04 alpha_mix =  0.700 |ddv_scf|^2 =  1.899E-07

      iter #   4 total cpu time :  3847.4 secs   av.it.:   8.0
      thresh= 4.358E-05 alpha_mix =  0.700 |ddv_scf|^2 =  2.537E-09

      iter #   5 total cpu time :  3855.9 secs   av.it.:   8.7
      thresh= 5.037E-06 alpha_mix =  0.700 |ddv_scf|^2 =  4.697E-11

      iter #   6 total cpu time :  3866.1 secs   av.it.:   8.7
      thresh= 6.854E-07 alpha_mix =  0.700 |ddv_scf|^2 =  2.139E-12

      iter #   7 total cpu time :  3877.7 secs   av.it.:   9.2
      thresh= 1.462E-07 alpha_mix =  0.700 |ddv_scf|^2 =  9.672E-14

      iter #   8 total cpu time :  3885.4 secs   av.it.:   9.2
      thresh= 3.110E-08 alpha_mix =  0.700 |ddv_scf|^2 =  9.409E-16

     End of self-consistent calculation

     Convergence has been achieved 


     Representation #  5 mode #   5

     Self-consistent Calculation

      iter #   1 total cpu time :  3903.1 secs   av.it.:   5.6
      thresh= 1.000E-02 alpha_mix =  0.700 |ddv_scf|^2 =  1.079E-05

      iter #   2 total cpu time :  3915.2 secs   av.it.:   8.6
      thresh= 3.285E-04 alpha_mix =  0.700 |ddv_scf|^2 =  5.263E-06

      iter #   3 total cpu time :  3932.2 secs   av.it.:   7.8
      thresh= 2.294E-04 alpha_mix =  0.700 |ddv_scf|^2 =  6.480E-08

      iter #   4 total cpu time :  3940.9 secs   av.it.:   8.6
      thresh= 2.546E-05 alpha_mix =  0.700 |ddv_scf|^2 =  1.339E-09

      iter #   5 total cpu time :  3947.5 secs   av.it.:   8.7
      thresh= 3.659E-06 alpha_mix =  0.700 |ddv_scf|^2 =  1.122E-10

      iter #   6 total cpu time :  3955.9 secs   av.it.:   8.7
      thresh= 1.059E-06 alpha_mix =  0.700 |ddv_scf|^2 =  3.430E-12

      iter #   7 total cpu time :  3967.9 secs   av.it.:   9.1
      thresh= 1.852E-07 alpha_mix =  0.700 |ddv_scf|^2 =  7.059E-14

      iter #   8 total cpu time :  3984.9 secs   av.it.:   8.9
      thresh= 2.657E-08 alpha_mix =  0.700 |ddv_scf|^2 =  4.265E-15

      iter #   9 total cpu time :  3996.0 secs   av.it.:   8.9
      thresh= 6.531E-09 alpha_mix =  0.700 |ddv_scf|^2 =  1.671E-16

     End of self-consistent calculation

     Convergence has been achieved 


     Representation #  6 mode #   6

     Self-consistent Calculation

      iter #   1 total cpu time :  4006.3 secs   av.it.:   5.7
      thresh= 1.000E-02 alpha_mix =  0.700 |ddv_scf|^2 =  1.982E-05

      iter #   2 total cpu time :  4014.2 secs   av.it.:   8.4
      thresh= 4.452E-04 alpha_mix =  0.700 |ddv_scf|^2 =  1.214E-05

      iter #   3 total cpu time :  4022.6 secs   av.it.:   7.7
      thresh= 3.485E-04 alpha_mix =  0.700 |ddv_scf|^2 =  4.177E-08

      iter #   4 total cpu time :  4031.3 secs   av.it.:   8.8
      thresh= 2.044E-05 alpha_mix =  0.700 |ddv_scf|^2 =  1.580E-09

      iter #   5 total cpu time :  4040.4 secs   av.it.:   8.9
      thresh= 3.975E-06 alpha_mix =  0.700 |ddv_scf|^2 =  7.532E-11

      iter #   6 total cpu time :  4049.1 secs   av.it.:   9.0
      thresh= 8.679E-07 alpha_mix =  0.700 |ddv_scf|^2 =  5.523E-12

      iter #   7 total cpu time :  4057.0 secs   av.it.:   8.8
      thresh= 2.350E-07 alpha_mix =  0.700 |ddv_scf|^2 =  3.948E-14

      iter #   8 total cpu time :  4065.4 secs   av.it.:   8.8
      thresh= 1.987E-08 alpha_mix =  0.700 |ddv_scf|^2 =  1.057E-15

      iter #   9 total cpu time :  4073.8 secs   av.it.:   8.6
      thresh= 3.251E-09 alpha_mix =  0.700 |ddv_scf|^2 =  1.028E-16

     End of self-consistent calculation

     Convergence has been achieved 
 
     Number of q in the star =    6
     List of q in the star:
          1   0.250000000   0.433012702  -0.306629940
          2  -0.250000000   0.433012702  -0.306629940
          3   0.250000000  -0.433012702  -0.306629940
          4  -0.500000000   0.000000000  -0.306629940
          5   0.500000000   0.000000000  -0.306629940
          6  -0.250000000  -0.433012702  -0.306629940

     Diagonalizing the dynamical matrix

     q = (    0.250000000   0.433012702  -0.306629940 ) 

 **************************************************************************
     freq (    1) =       2.069688 [THz] =      69.037370 [cm-1]
     freq (    2) =       2.076726 [THz] =      69.272129 [cm-1]
     freq (    3) =       3.107063 [THz] =     103.640472 [cm-1]
     freq (    4) =       3.114057 [THz] =     103.873774 [cm-1]
     freq (    5) =       3.850956 [THz] =     128.454064 [cm-1]
     freq (    6) =       3.858287 [THz] =     128.698599 [cm-1]
 **************************************************************************

     Mode symmetry, C_s (m)     point group:

     freq (  1 -  1) =         69.0  [cm-1]   --> A'                 
     freq (  2 -  2) =         69.3  [cm-1]   --> A''                
     freq (  3 -  3) =        103.6  [cm-1]   --> A'                 
     freq (  4 -  4) =        103.9  [cm-1]   --> A''                
     freq (  5 -  5) =        128.5  [cm-1]   --> A'                 
     freq (  6 -  6) =        128.7  [cm-1]   --> A''                
 
     init_run     :      1.50s CPU      1.66s WALL (      11 calls)
     electrons    :    174.82s CPU    179.10s WALL (      11 calls)

     Called by init_run:
     wfcinit      :      0.00s CPU      0.11s WALL (      11 calls)
     potinit      :      0.27s CPU      0.33s WALL (      11 calls)

     Called by electrons:
     c_bands      :    174.74s CPU    179.02s WALL (      11 calls)
     v_of_rho     :      0.10s CPU      0.09s WALL (      12 calls)
     newd         :      0.14s CPU      0.14s WALL (      12 calls)

     Called by c_bands:
     init_us_2    :      5.03s CPU      5.51s WALL (   80220 calls)
     cegterg      :    101.45s CPU    103.33s WALL (    4195 calls)

     Called by sum_band:

     Called by *egterg:
     h_psi        :     59.61s CPU     60.50s WALL (   67599 calls)
     s_psi        :     68.46s CPU     71.77s WALL ( 1873305 calls)
     g_psi        :      0.61s CPU      0.62s WALL (   61050 calls)
     cdiaghg      :     29.21s CPU     29.63s WALL (   63404 calls)

     Called by h_psi:
     add_vuspsi   :     40.79s CPU     42.11s WALL (  936899 calls)

     General routines
     calbec       :     99.77s CPU    104.98s WALL ( 1992903 calls)
     fft          :      2.50s CPU      2.61s WALL (    9758 calls)
     ffts         :      1.33s CPU      1.46s WALL (    9607 calls)
     fftw         :   1878.71s CPU   1916.33s WALL (14358655 calls)
     interpolate  :      0.94s CPU      0.99s WALL (    1341 calls)
     davcio       :     14.56s CPU    330.94s WALL (  348691 calls)
 
     Parallel routines
     fft_scatter  :   1288.77s CPU   1304.09s WALL (14378020 calls)
 
     PHONON       :     1h 0m CPU        1h 7m WALL

     INITIALIZATION: 
     phq_setup    :      0.32s CPU      0.52s WALL (      12 calls)
     phq_init     :     16.44s CPU     17.06s WALL (      12 calls)
 
     phq_init     :     16.44s CPU     17.06s WALL (      12 calls)
     init_vloc    :      0.13s CPU      0.12s WALL (      12 calls)
     init_us_1    :      0.45s CPU      0.46s WALL (      12 calls)
     newd         :      0.14s CPU      0.14s WALL (      12 calls)
     dvanqq       :      1.38s CPU      1.40s WALL (      12 calls)
     drho         :     11.59s CPU     11.95s WALL (      12 calls)
 
     DYNAMICAL MATRIX:
     dynmat0      :      2.28s CPU      2.41s WALL (      12 calls)
     phqscf       :   3388.11s CPU   3791.25s WALL (      12 calls)
     dynmatrix    :      0.04s CPU      0.22s WALL (      12 calls)
 
     phqscf       :   3388.11s CPU   3791.25s WALL (      12 calls)
     solve_linter :   3384.30s CPU   3785.22s WALL (      66 calls)
     drhodv       :      3.65s CPU      4.00s WALL (      66 calls)
 
     dynmat0      :      2.28s CPU      2.41s WALL (      12 calls)
     dynmat_us    :      2.23s CPU      2.29s WALL (      12 calls)
     d2ionq       :      0.04s CPU      0.03s WALL (      12 calls)
 
     dynmat_us    :      2.23s CPU      2.29s WALL (      12 calls)
     addusdynmat  :      0.00s CPU      0.00s WALL (      12 calls)
 
     phqscf       :   3388.11s CPU   3791.25s WALL (      12 calls)
     solve_linter :   3384.30s CPU   3785.22s WALL (      66 calls)
 
     solve_linter :   3384.30s CPU   3785.22s WALL (      66 calls)
     dvqpsi_us    :     16.33s CPU     17.42s WALL (    7158 calls)
     ortho        :     48.36s CPU     50.01s WALL (   67106 calls)
     cgsolve      :   1032.86s CPU   1070.93s WALL (   67106 calls)
     incdrhoscf   :   1147.22s CPU   1156.50s WALL (   67106 calls)
     addusddens   :      8.78s CPU      8.86s WALL (     651 calls)
     vpsifft      :     71.90s CPU     76.99s WALL (   59948 calls)
     dv_of_drho   :      3.20s CPU      3.25s WALL (     621 calls)
     mix_pot      :      2.50s CPU     11.64s WALL (     585 calls)
     ef_shift     :      0.06s CPU      0.78s WALL (      30 calls)
     localdos     :      0.13s CPU      0.14s WALL (       4 calls)
     psymdvscf    :     16.45s CPU     16.42s WALL (     522 calls)
     newdq        :      7.80s CPU      7.90s WALL (     585 calls)
     adddvscf     :      5.20s CPU      5.57s WALL (   59948 calls)
     drhodvus     :      0.04s CPU      0.07s WALL (      66 calls)
 
     dvqpsi_us    :     16.33s CPU     17.42s WALL (    7158 calls)
     dvqpsi_us_on :      4.04s CPU      4.26s WALL (    7158 calls)
 
     cgsolve      :   1032.86s CPU   1070.93s WALL (   67106 calls)
     ch_psi       :    995.20s CPU   1031.55s WALL (  869300 calls)
 
     ch_psi       :    995.20s CPU   1031.55s WALL (  869300 calls)
     h_psiq       :    864.01s CPU    895.71s WALL (  869300 calls)
     last         :    125.98s CPU    130.35s WALL (  869300 calls)
 
     h_psiq       :    864.01s CPU    895.71s WALL (  869300 calls)
     firstfft     :    399.38s CPU    414.08s WALL ( 5432446 calls)
     secondfft    :    308.74s CPU    319.02s WALL ( 5432446 calls)
     add_vuspsi   :     40.79s CPU     42.11s WALL (  936899 calls)
 
     incdrhoscf   :   1147.22s CPU   1156.50s WALL (   67106 calls)
     addusdbec    :      6.60s CPU      6.79s WALL (   74264 calls)
 
     drhodvus     :      0.04s CPU      0.07s WALL (      66 calls)
 
      General routines
     calbec       :     99.77s CPU    104.98s WALL ( 1992903 calls)
     fft          :      2.50s CPU      2.61s WALL (    9758 calls)
     ffts         :      1.33s CPU      1.46s WALL (    9607 calls)
     fftw         :   1878.71s CPU   1916.33s WALL (14358655 calls)
     davcio       :     14.56s CPU    330.94s WALL (  348691 calls)
     write_rec    :      1.12s CPU     19.30s WALL (     651 calls)
 
 
     PHONON       :     1h 0m CPU        1h 7m WALL

 
   This run was terminated on:   4: 5:57  27Mar2018            

=------------------------------------------------------------------------------=
   JOB DONE.
=------------------------------------------------------------------------------=
Application 30370758 resources: utime ~725020s, stime ~11093s, Rss ~49368, inblocks ~6053532614, outblocks ~1893085515
