
     Program PHONON v.5.4.0 starts on 28Mar2018 at 17:34: 9 

     This program is part of the open-source Quantum ESPRESSO suite
     for quantum simulation of materials; please cite
         "P. Giannozzi et al., J. Phys.:Condens. Matter 21 395502 (2009);
          URL http://www.quantum-espresso.org", 
     in publications or presentations arising from this work. More details at
     http://www.quantum-espresso.org/quote

     Parallel version (MPI & OpenMP), running on     192 processor cores
     Number of MPI processes:               192
     Threads/MPI process:                     1
     K-points division:     npool     =      24
     R & G space division:  proc/nbgrp/npool/nimage =       8

     Reading data from directory:
     ./na_hcp_7.05/na_hcp_7.05.save

   Info: using nr1, nr2, nr3 values from input

   Info: using nr1, nr2, nr3 values from input

     IMPORTANT: XC functional enforced from input :
     Exchange-correlation      = SLA  PW   PBE  PBE ( 1  4  3  4 0 0)
     Any further DFT definition will be discarded
     Please, verify this is what you really want

 
     Parallelization info
     --------------------
     sticks:   dense  smooth     PW     G-vecs:    dense   smooth      PW
     Min         137      69     20                 5985     2100     348
     Max         138      70     21                 5987     2128     355
     Sum        1099     559    163                47891    16901    2803
 


     Dynamical matrices for ( 4, 4, 4)  uniform grid of q-points
     (  12q-points):
       N         xq(1)         xq(2)         xq(3) 
       1   0.000000000   0.000000000   0.000000000
       2   0.000000000   0.000000000   0.153330962
       3   0.000000000   0.000000000  -0.306661924
       4   0.000000000   0.288675135   0.000000000
       5   0.000000000   0.288675135   0.153330962
       6   0.000000000   0.288675135  -0.306661924
       7   0.000000000  -0.577350269   0.000000000
       8   0.000000000  -0.577350269   0.153330962
       9   0.000000000  -0.577350269  -0.306661924
      10   0.250000000   0.433012702   0.000000000
      11   0.250000000   0.433012702   0.153330962
      12   0.250000000   0.433012702  -0.306661924

     Calculation of q =    0.0000000   0.0000000   0.0000000

                                                                                

     bravais-lattice index     =            4
     lattice parameter (alat)  =       7.0500  a.u.
     unit-cell volume          =     494.7754 (a.u.)^3
     number of atoms/cell      =            2
     number of atomic types    =            1
     kinetic-energy cut-off    =      40.0000  Ry
     charge density cut-off    =     320.0000  Ry
     convergence threshold     =      1.0E-15
     beta                      =       0.7000
     number of iterations used =            4
     Exchange-correlation      = SLA  PW   PBE  PBE ( 1  4  3  4 0 0)


     celldm(1)=    7.05000  celldm(2)=    0.00000  celldm(3)=    1.63046
     celldm(4)=    0.00000  celldm(5)=    0.00000  celldm(6)=    0.00000

     crystal axes: (cart. coord. in units of alat)
               a(1) = (  1.0000  0.0000  0.0000 )  
               a(2) = ( -0.5000  0.8660  0.0000 )  
               a(3) = (  0.0000  0.0000  1.6305 )  

     reciprocal axes: (cart. coord. in units 2 pi/alat)
               b(1) = (  1.0000  0.5774  0.0000 )  
               b(2) = (  0.0000  1.1547  0.0000 )  
               b(3) = (  0.0000  0.0000  0.6133 )  


     Atoms inside the unit cell: 

     Cartesian axes

     site n.  atom      mass           positions (alat units)
        1     Na  22.9900   tau(    1) = (    0.00000    0.00000    0.00000  )
        2     Na  22.9900   tau(    2) = (    0.50000    0.28868    0.81523  )

     Computing dynamical matrix for 
                    q = (   0.0000000   0.0000000   0.0000000 )
 
     25 Sym.Ops. (with q -> -q+G )


     G cutoff =  402.8733  (   5987 G-vectors)     FFT grid: ( 45, 45, 72)
     G cutoff =  201.4366  (   2107 G-vectors)  smooth grid: ( 30, 30, 48)

     number of k points=   366  Marzari-Vanderbilt smearing, width (Ry)=  0.0200

     PseudoPot. # 1 for Na read from file:
     ./Na_pbe_v1.uspp.F.UPF
     MD5 check sum: 76a99c7e9422403d3e93cbc85ab7bccb
     Pseudo is Ultrasoft, Zval =  9.0
     Generated by new atomic code, or converted to UPF format
     Using radial grid of  819 points,  5 beta functions with: 
                l(1) =   0
                l(2) =   0
                l(3) =   1
                l(4) =   1
                l(5) =   2
     Q(r) pseudized with  8 coefficients,  rinner =    1.250   1.250   1.250
                                                       1.250   1.250

     Mode symmetry, D_6h(6/mmm) point group:


     Atomic displacements:
     There are   4 irreducible representations

     Representation     1      1 modes -B_1g  To be done

     Representation     2      2 modes -E_2g  To be done

     Representation     3      1 modes -A_2u  To be done

     Representation     4      2 modes -E_1u  To be done



     Alpha used in Ewald sum =   2.8000
     PHONON       :     9.88s CPU        14.41s WALL



     Representation #  1 mode #   1

     Self-consistent Calculation
 
     Pert. #  1: Fermi energy shift (Ry) =     0.0000E+00     0.0000E+00

      iter #   1 total cpu time :    15.4 secs   av.it.:   5.4
      thresh= 1.000E-02 alpha_mix =  0.700 |ddv_scf|^2 =  2.853E-05
 
     Pert. #  1: Fermi energy shift (Ry) =     0.0000E+00     0.0000E+00

      iter #   2 total cpu time :    16.1 secs   av.it.:   7.2
      thresh= 5.341E-04 alpha_mix =  0.700 |ddv_scf|^2 =  1.758E-05
 
     Pert. #  1: Fermi energy shift (Ry) =    -5.6469E-22     0.0000E+00

      iter #   3 total cpu time :    16.8 secs   av.it.:   7.0
      thresh= 4.193E-04 alpha_mix =  0.700 |ddv_scf|^2 =  2.223E-08
 
     Pert. #  1: Fermi energy shift (Ry) =     0.0000E+00     1.9132E-42

      iter #   4 total cpu time :    17.5 secs   av.it.:   8.3
      thresh= 1.491E-05 alpha_mix =  0.700 |ddv_scf|^2 =  8.772E-11
 
     Pert. #  1: Fermi energy shift (Ry) =     0.0000E+00    -4.7831E-43

      iter #   5 total cpu time :    19.0 secs   av.it.:   7.3
      thresh= 9.366E-07 alpha_mix =  0.700 |ddv_scf|^2 =  1.828E-12
 
     Pert. #  1: Fermi energy shift (Ry) =     0.0000E+00    -4.7831E-43

      iter #   6 total cpu time :    19.7 secs   av.it.:   7.2
      thresh= 1.352E-07 alpha_mix =  0.700 |ddv_scf|^2 =  4.710E-15
 
     Pert. #  1: Fermi energy shift (Ry) =     0.0000E+00    -4.7831E-43

      iter #   7 total cpu time :    21.9 secs   av.it.:   8.1
      thresh= 6.863E-09 alpha_mix =  0.700 |ddv_scf|^2 =  1.290E-17

     End of self-consistent calculation

     Convergence has been achieved 


     Representation #  2 modes #   2  3

     Self-consistent Calculation
 
     Pert. #  1: Fermi energy shift (Ry) =    -2.8428E-20     9.1840E-41
     Pert. #  2: Fermi energy shift (Ry) =    -3.6140E-20     1.5019E-40

      iter #   1 total cpu time :    58.7 secs   av.it.:   5.1
      thresh= 1.000E-02 alpha_mix =  0.700 |ddv_scf|^2 =  7.530E-07
 
     Pert. #  1: Fermi energy shift (Ry) =     1.7477E-20    -1.5766E-43
     Pert. #  2: Fermi energy shift (Ry) =    -4.5175E-21     4.5918E-41

      iter #   2 total cpu time :    62.5 secs   av.it.:   8.6
      thresh= 8.677E-05 alpha_mix =  0.700 |ddv_scf|^2 =  1.297E-08
 
     Pert. #  1: Fermi energy shift (Ry) =    -3.3935E-21    -4.8035E-42
     Pert. #  2: Fermi energy shift (Ry) =     2.2588E-21     3.0612E-41

      iter #   3 total cpu time :    74.7 secs   av.it.:   8.8
      thresh= 1.139E-05 alpha_mix =  0.700 |ddv_scf|^2 =  4.268E-10
 
     Pert. #  1: Fermi energy shift (Ry) =    -5.6512E-21     9.5678E-43
     Pert. #  2: Fermi energy shift (Ry) =     1.1294E-21     1.1061E-42

      iter #   4 total cpu time :    80.3 secs   av.it.:   8.4
      thresh= 2.066E-06 alpha_mix =  0.700 |ddv_scf|^2 =  1.394E-12
 
     Pert. #  1: Fermi energy shift (Ry) =    -8.4743E-21     1.3162E-42
     Pert. #  2: Fermi energy shift (Ry) =    -1.1294E-21     7.1746E-43

      iter #   5 total cpu time :    85.6 secs   av.it.:   8.8
      thresh= 1.181E-07 alpha_mix =  0.700 |ddv_scf|^2 =  2.098E-15
 
     Pert. #  1: Fermi energy shift (Ry) =    -8.4743E-21     1.3162E-42
     Pert. #  2: Fermi energy shift (Ry) =     6.7763E-21     7.1746E-43

      iter #   6 total cpu time :    91.8 secs   av.it.:   7.9
      thresh= 4.580E-09 alpha_mix =  0.700 |ddv_scf|^2 =  8.936E-17

     End of self-consistent calculation

     Convergence has been achieved 


     Representation #  3 mode #   4

     Self-consistent Calculation
 
     Pert. #  1: Fermi energy shift (Ry) =    -3.4466E-26    -1.0031E-36

      iter #   1 total cpu time :    95.5 secs   av.it.:   5.1
      thresh= 1.000E-02 alpha_mix =  0.700 |ddv_scf|^2 =  2.822E-06
 
     Pert. #  1: Fermi energy shift (Ry) =     1.3786E-25    -3.9183E-39

      iter #   2 total cpu time :   106.5 secs   av.it.:   8.0
      thresh= 1.680E-04 alpha_mix =  0.700 |ddv_scf|^2 =  5.297E-08
 
     Pert. #  1: Fermi energy shift (Ry) =    -1.7233E-26    -4.8979E-40

      iter #   3 total cpu time :   109.2 secs   av.it.:   8.2
      thresh= 2.302E-05 alpha_mix =  0.700 |ddv_scf|^2 =  1.095E-09
 
     Pert. #  1: Fermi energy shift (Ry) =     8.6165E-27    -1.2245E-40

      iter #   4 total cpu time :   111.6 secs   av.it.:   7.7
      thresh= 3.310E-06 alpha_mix =  0.700 |ddv_scf|^2 =  3.676E-12
 
     Pert. #  1: Fermi energy shift (Ry) =     8.6165E-27    -1.5306E-41

      iter #   5 total cpu time :   114.6 secs   av.it.:   8.2
      thresh= 1.917E-07 alpha_mix =  0.700 |ddv_scf|^2 =  8.407E-15
 
     Pert. #  1: Fermi energy shift (Ry) =    -2.5849E-26    -1.5306E-41

      iter #   6 total cpu time :   115.8 secs   av.it.:   7.7
      thresh= 9.169E-09 alpha_mix =  0.700 |ddv_scf|^2 =  1.910E-16

     End of self-consistent calculation

     Convergence has been achieved 


     Representation #  4 modes #   5  6

     Self-consistent Calculation
 
     Pert. #  1: Fermi energy shift (Ry) =     5.2817E-25     1.2539E-37
     Pert. #  2: Fermi energy shift (Ry) =    -2.7573E-25     2.3510E-37

      iter #   1 total cpu time :   121.9 secs   av.it.:   5.2
      thresh= 1.000E-02 alpha_mix =  0.700 |ddv_scf|^2 =  7.081E-07
 
     Pert. #  1: Fermi energy shift (Ry) =     3.1244E-25    -9.7958E-40
     Pert. #  2: Fermi energy shift (Ry) =     0.0000E+00    -1.8367E-39

      iter #   2 total cpu time :   128.3 secs   av.it.:   8.7
      thresh= 8.415E-05 alpha_mix =  0.700 |ddv_scf|^2 =  1.319E-08
 
     Pert. #  1: Fermi energy shift (Ry) =    -2.8713E-26    -6.1224E-41
     Pert. #  2: Fermi energy shift (Ry) =    -3.4466E-26    -1.1479E-40

      iter #   3 total cpu time :   139.8 secs   av.it.:   9.0
      thresh= 1.148E-05 alpha_mix =  0.700 |ddv_scf|^2 =  2.849E-10
 
     Pert. #  1: Fermi energy shift (Ry) =     3.2136E-25    -1.9132E-42
     Pert. #  2: Fermi energy shift (Ry) =     0.0000E+00    -3.5873E-42

      iter #   4 total cpu time :   145.7 secs   av.it.:   8.7
      thresh= 1.688E-06 alpha_mix =  0.700 |ddv_scf|^2 =  9.597E-13
 
     Pert. #  1: Fermi energy shift (Ry) =     8.7397E-25    -4.7831E-43
     Pert. #  2: Fermi energy shift (Ry) =     2.7573E-25    -8.9683E-43

      iter #   5 total cpu time :   151.9 secs   av.it.:   9.1
      thresh= 9.797E-08 alpha_mix =  0.700 |ddv_scf|^2 =  2.038E-15
 
     Pert. #  1: Fermi energy shift (Ry) =    -9.1116E-26    -4.7831E-43
     Pert. #  2: Fermi energy shift (Ry) =     5.5145E-25    -8.9683E-43

      iter #   6 total cpu time :   157.8 secs   av.it.:   8.6
      thresh= 4.514E-09 alpha_mix =  0.700 |ddv_scf|^2 =  4.753E-17

     End of self-consistent calculation

     Convergence has been achieved 
 
     Number of q in the star =    1
     List of q in the star:
          1   0.000000000   0.000000000   0.000000000

     Diagonalizing the dynamical matrix

     q = (    0.000000000   0.000000000   0.000000000 ) 

 **************************************************************************
     freq (    1) =      -0.524455 [THz] =     -17.493942 [cm-1]
     freq (    2) =      -0.491447 [THz] =     -16.392900 [cm-1]
     freq (    3) =      -0.491447 [THz] =     -16.392900 [cm-1]
     freq (    4) =       1.582414 [THz] =      52.783646 [cm-1]
     freq (    5) =       1.582414 [THz] =      52.783646 [cm-1]
     freq (    6) =       3.927569 [THz] =     131.009608 [cm-1]
 **************************************************************************

     Mode symmetry, D_6h(6/mmm) point group:

     freq (  1 -  1) =        -17.5  [cm-1]   --> A_2u            I  
     freq (  2 -  3) =        -16.4  [cm-1]   --> E_1u            I  
     freq (  4 -  5) =         52.8  [cm-1]   --> E_2g            R  
     freq (  6 -  6) =        131.0  [cm-1]   --> B_1g               

     Calculation of q =    0.0000000   0.0000000   0.1533310
 
     Parallelization info
     --------------------
     sticks:   dense  smooth     PW     G-vecs:    dense   smooth      PW
     Min         137      69     20                 5985     2104     356
     Max         138      70     21                 5987     2128     363
     Sum        1099     559    163                47891    16901    2875
 


     bravais-lattice index     =            4
     lattice parameter (alat)  =       7.0500  a.u.
     unit-cell volume          =     494.7754 (a.u.)^3
     number of atoms/cell      =            2
     number of atomic types    =            1
     number of electrons       =        18.00
     number of Kohn-Sham states=           13
     kinetic-energy cutoff     =      40.0000  Ry
     charge density cutoff     =     320.0000  Ry
     Exchange-correlation      = SLA  PW   PBE  PBE ( 1  4  3  4 0 0)

     celldm(1)=   7.050000  celldm(2)=   0.000000  celldm(3)=   1.630460
     celldm(4)=   0.000000  celldm(5)=   0.000000  celldm(6)=   0.000000

     crystal axes: (cart. coord. in units of alat)
               a(1) = (   1.000000   0.000000   0.000000 )  
               a(2) = (  -0.500000   0.866025   0.000000 )  
               a(3) = (   0.000000   0.000000   1.630460 )  

     reciprocal axes: (cart. coord. in units 2 pi/alat)
               b(1) = (  1.000000  0.577350  0.000000 )  
               b(2) = (  0.000000  1.154701  0.000000 )  
               b(3) = (  0.000000  0.000000  0.613324 )  


     PseudoPot. # 1 for Na read from file:
     ./Na_pbe_v1.uspp.F.UPF
     MD5 check sum: 76a99c7e9422403d3e93cbc85ab7bccb
     Pseudo is Ultrasoft, Zval =  9.0
     Generated by new atomic code, or converted to UPF format
     Using radial grid of  819 points,  5 beta functions with: 
                l(1) =   0
                l(2) =   0
                l(3) =   1
                l(4) =   1
                l(5) =   2
     Q(r) pseudized with  8 coefficients,  rinner =    1.250   1.250   1.250
                                                       1.250   1.250

     atomic species   valence    mass     pseudopotential
        Na             9.00    22.99000     Na( 1.00)

     24 Sym. Ops., with inversion, found



   Cartesian axes

     site n.     atom                  positions (alat units)
         1           Na  tau(   1) = (   0.0000000   0.0000000   0.0000000  )
         2           Na  tau(   2) = (   0.5000000   0.2886751   0.8152300  )

     number of k points=  1464  Marzari-Vanderbilt smearing, width (Ry)=  0.0200

     Number of k-points >= 100: set verbosity='high' to print them.

     Dense  grid:    47891 G-vectors     FFT dimensions: (  45,  45,  72)

     Smooth grid:    16901 G-vectors     FFT dimensions: (  30,  30,  48)

     Largest allocated arrays     est. size (Mb)     dimensions
        Kohn-Sham Wavefunctions         0.06 Mb     (     282,   13)
        NL pseudopotentials             0.11 Mb     (     282,   26)
        Each V/rho on FFT grid          0.28 Mb     (   18225)
        Each G-vector array             0.05 Mb     (    5987)
        G-vector shells                 0.01 Mb     (    1810)
     Largest temporary arrays     est. size (Mb)     dimensions
        Auxiliary wavefunctions         0.22 Mb     (     282,   52)
        Each subspace H/S matrix        0.01 Mb     (      26,   26)
        Each <psi_i|beta_j> matrix      0.01 Mb     (      26,   13)

     The potential is recalculated from file :
     ./na_hcp_7.05/_ph0/na_hcp_7.05.save/charge-density.dat

     Starting wfc are   10 atomic +    3 random wfc

     Band Structure Calculation
     Davidson diagonalization with overlap

     ethr =  5.56E-11,  avg # of iterations = 23.6

     total cpu time spent up to now is        7.1 secs

     End of band structure calculation

     Number of k-points >= 100: set verbosity='high' to print the bands.

     the Fermi energy is     1.6507 ev

     Writing output data file na_hcp_7.05.save

                                                                                

     bravais-lattice index     =            4
     lattice parameter (alat)  =       7.0500  a.u.
     unit-cell volume          =     494.7754 (a.u.)^3
     number of atoms/cell      =            2
     number of atomic types    =            1
     kinetic-energy cut-off    =      40.0000  Ry
     charge density cut-off    =     320.0000  Ry
     convergence threshold     =      1.0E-15
     beta                      =       0.7000
     number of iterations used =            4
     Exchange-correlation      = SLA  PW   PBE  PBE ( 1  4  3  4 0 0)


     celldm(1)=    7.05000  celldm(2)=    0.00000  celldm(3)=    1.63046
     celldm(4)=    0.00000  celldm(5)=    0.00000  celldm(6)=    0.00000

     crystal axes: (cart. coord. in units of alat)
               a(1) = (  1.0000  0.0000  0.0000 )  
               a(2) = ( -0.5000  0.8660  0.0000 )  
               a(3) = (  0.0000  0.0000  1.6305 )  

     reciprocal axes: (cart. coord. in units 2 pi/alat)
               b(1) = (  1.0000  0.5774  0.0000 )  
               b(2) = (  0.0000  1.1547  0.0000 )  
               b(3) = (  0.0000  0.0000  0.6133 )  


     Atoms inside the unit cell: 

     Cartesian axes

     site n.  atom      mass           positions (alat units)
        1     Na  22.9900   tau(    1) = (    0.00000    0.00000    0.00000  )
        2     Na  22.9900   tau(    2) = (    0.50000    0.28868    0.81523  )

     Computing dynamical matrix for 
                    q = (   0.0000000   0.0000000   0.1533310 )
 
     12 Sym.Ops. (no q -> -q+G )


     G cutoff =  402.8733  (   5987 G-vectors)     FFT grid: ( 45, 45, 72)
     G cutoff =  201.4366  (   2105 G-vectors)  smooth grid: ( 30, 30, 48)

     number of k points=  1464  Marzari-Vanderbilt smearing, width (Ry)=  0.0200

     PseudoPot. # 1 for Na read from file:
     ./Na_pbe_v1.uspp.F.UPF
     MD5 check sum: 76a99c7e9422403d3e93cbc85ab7bccb
     Pseudo is Ultrasoft, Zval =  9.0
     Generated by new atomic code, or converted to UPF format
     Using radial grid of  819 points,  5 beta functions with: 
                l(1) =   0
                l(2) =   0
                l(3) =   1
                l(4) =   1
                l(5) =   2
     Q(r) pseudized with  8 coefficients,  rinner =    1.250   1.250   1.250
                                                       1.250   1.250

     Mode symmetry, C_6v (6mm)  point group:


     Atomic displacements:
     There are   4 irreducible representations

     Representation     1      1 modes -A_1  To be done

     Representation     2      1 modes -B_2  To be done

     Representation     3      2 modes -E_1  To be done

     Representation     4      2 modes -E_2  To be done



     Alpha used in Ewald sum =   2.8000
     PHONON       :  2m38.77s CPU     2m50.58s WALL



     Representation #  1 mode #   1

     Self-consistent Calculation

      iter #   1 total cpu time :   183.5 secs   av.it.:   5.4
      thresh= 1.000E-02 alpha_mix =  0.700 |ddv_scf|^2 =  4.732E-02

      iter #   2 total cpu time :   190.0 secs   av.it.:   6.8
      thresh= 1.000E-02 alpha_mix =  0.700 |ddv_scf|^2 =  2.626E+01

      iter #   3 total cpu time :   192.9 secs   av.it.:   6.9
      thresh= 1.000E-02 alpha_mix =  0.700 |ddv_scf|^2 =  9.843E-05

      iter #   4 total cpu time :   194.7 secs   av.it.:   5.5
      thresh= 9.921E-04 alpha_mix =  0.700 |ddv_scf|^2 =  3.701E-08

      iter #   5 total cpu time :   197.2 secs   av.it.:   7.7
      thresh= 1.924E-05 alpha_mix =  0.700 |ddv_scf|^2 =  1.335E-09

      iter #   6 total cpu time :   200.9 secs   av.it.:   7.6
      thresh= 3.654E-06 alpha_mix =  0.700 |ddv_scf|^2 =  2.004E-07

      iter #   7 total cpu time :   206.2 secs   av.it.:   4.3
      thresh= 4.477E-05 alpha_mix =  0.700 |ddv_scf|^2 =  2.138E-11

      iter #   8 total cpu time :   211.4 secs   av.it.:   8.2
      thresh= 4.624E-07 alpha_mix =  0.700 |ddv_scf|^2 =  2.861E-13

      iter #   9 total cpu time :   222.3 secs   av.it.:   8.7
      thresh= 5.349E-08 alpha_mix =  0.700 |ddv_scf|^2 =  1.310E-14

      iter #  10 total cpu time :   231.8 secs   av.it.:   8.7
      thresh= 1.145E-08 alpha_mix =  0.700 |ddv_scf|^2 =  1.707E-13

      iter #  11 total cpu time :   240.2 secs   av.it.:   5.7
      thresh= 4.131E-08 alpha_mix =  0.700 |ddv_scf|^2 =  5.382E-14

      iter #  12 total cpu time :   246.2 secs   av.it.:   6.0
      thresh= 2.320E-08 alpha_mix =  0.700 |ddv_scf|^2 =  1.321E-15

      iter #  13 total cpu time :   262.6 secs   av.it.:   6.0
      thresh= 3.634E-09 alpha_mix =  0.700 |ddv_scf|^2 =  2.681E-15

      iter #  14 total cpu time :   264.4 secs   av.it.:   5.8
      thresh= 5.177E-09 alpha_mix =  0.700 |ddv_scf|^2 =  1.078E-18

     End of self-consistent calculation

     Convergence has been achieved 


     Representation #  2 mode #   2

     Self-consistent Calculation

      iter #   1 total cpu time :   267.2 secs   av.it.:   5.5
      thresh= 1.000E-02 alpha_mix =  0.700 |ddv_scf|^2 =  7.503E-05

      iter #   2 total cpu time :   271.7 secs   av.it.:   7.2
      thresh= 8.662E-04 alpha_mix =  0.700 |ddv_scf|^2 =  2.535E-04

      iter #   3 total cpu time :   276.4 secs   av.it.:   6.5
      thresh= 1.592E-03 alpha_mix =  0.700 |ddv_scf|^2 =  1.233E-07

      iter #   4 total cpu time :   292.2 secs   av.it.:   8.2
      thresh= 3.512E-05 alpha_mix =  0.700 |ddv_scf|^2 =  3.298E-09

      iter #   5 total cpu time :   299.5 secs   av.it.:   8.7
      thresh= 5.743E-06 alpha_mix =  0.700 |ddv_scf|^2 =  7.918E-11

      iter #   6 total cpu time :   311.6 secs   av.it.:   8.7
      thresh= 8.898E-07 alpha_mix =  0.700 |ddv_scf|^2 =  5.519E-12

      iter #   7 total cpu time :   315.1 secs   av.it.:   8.2
      thresh= 2.349E-07 alpha_mix =  0.700 |ddv_scf|^2 =  3.276E-13

      iter #   8 total cpu time :   322.5 secs   av.it.:   8.5
      thresh= 5.724E-08 alpha_mix =  0.700 |ddv_scf|^2 =  1.500E-14

      iter #   9 total cpu time :   325.3 secs   av.it.:   7.8
      thresh= 1.225E-08 alpha_mix =  0.700 |ddv_scf|^2 =  5.645E-16

     End of self-consistent calculation

     Convergence has been achieved 


     Representation #  3 modes #   3  4

     Self-consistent Calculation

      iter #   1 total cpu time :   336.1 secs   av.it.:   5.1
      thresh= 1.000E-02 alpha_mix =  0.700 |ddv_scf|^2 =  7.139E-07

      iter #   2 total cpu time :   345.2 secs   av.it.:   8.6
      thresh= 8.449E-05 alpha_mix =  0.700 |ddv_scf|^2 =  1.317E-08

      iter #   3 total cpu time :   355.3 secs   av.it.:   8.8
      thresh= 1.148E-05 alpha_mix =  0.700 |ddv_scf|^2 =  3.003E-10

      iter #   4 total cpu time :   365.7 secs   av.it.:   8.5
      thresh= 1.733E-06 alpha_mix =  0.700 |ddv_scf|^2 =  9.998E-13

      iter #   5 total cpu time :   373.9 secs   av.it.:   8.9
      thresh= 9.999E-08 alpha_mix =  0.700 |ddv_scf|^2 =  2.084E-15

      iter #   6 total cpu time :   381.8 secs   av.it.:   8.3
      thresh= 4.565E-09 alpha_mix =  0.700 |ddv_scf|^2 =  5.614E-17

     End of self-consistent calculation

     Convergence has been achieved 


     Representation #  4 modes #   5  6

     Self-consistent Calculation

      iter #   1 total cpu time :   395.0 secs   av.it.:   5.1
      thresh= 1.000E-02 alpha_mix =  0.700 |ddv_scf|^2 =  7.456E-07

      iter #   2 total cpu time :   404.1 secs   av.it.:   8.6
      thresh= 8.635E-05 alpha_mix =  0.700 |ddv_scf|^2 =  1.301E-08

      iter #   3 total cpu time :   413.0 secs   av.it.:   8.8
      thresh= 1.141E-05 alpha_mix =  0.700 |ddv_scf|^2 =  4.001E-10

      iter #   4 total cpu time :   423.1 secs   av.it.:   8.5
      thresh= 2.000E-06 alpha_mix =  0.700 |ddv_scf|^2 =  1.308E-12

      iter #   5 total cpu time :   435.2 secs   av.it.:   8.9
      thresh= 1.144E-07 alpha_mix =  0.700 |ddv_scf|^2 =  2.123E-15

      iter #   6 total cpu time :   445.8 secs   av.it.:   8.1
      thresh= 4.608E-09 alpha_mix =  0.700 |ddv_scf|^2 =  8.539E-17

     End of self-consistent calculation

     Convergence has been achieved 
 
     Number of q in the star =    2
     List of q in the star:
          1   0.000000000   0.000000000   0.153330962
          2   0.000000000   0.000000000  -0.153330962

     Diagonalizing the dynamical matrix

     q = (    0.000000000   0.000000000   0.153330962 ) 

 **************************************************************************
     freq (    1) =       0.492653 [THz] =      16.433142 [cm-1]
     freq (    2) =       0.492653 [THz] =      16.433142 [cm-1]
     freq (    3) =       1.479623 [THz] =      49.354908 [cm-1]
     freq (    4) =       1.479623 [THz] =      49.354908 [cm-1]
     freq (    5) =       1.575331 [THz] =      52.547400 [cm-1]
     freq (    6) =       3.665168 [THz] =     122.256834 [cm-1]
 **************************************************************************

     Mode symmetry, C_6v (6mm)  point group:

     freq (  1 -  2) =         16.4  [cm-1]   --> E_1                
     freq (  3 -  4) =         49.4  [cm-1]   --> E_2                
     freq (  5 -  5) =         52.5  [cm-1]   --> A_1                
     freq (  6 -  6) =        122.3  [cm-1]   --> B_2                

     Calculation of q =    0.0000000   0.0000000  -0.3066619
 
     Parallelization info
     --------------------
     sticks:   dense  smooth     PW     G-vecs:    dense   smooth      PW
     Min         137      69     20                 5985     2100     348
     Max         138      70     21                 5987     2128     355
     Sum        1099     559    163                47891    16901    2803
 


     bravais-lattice index     =            4
     lattice parameter (alat)  =       7.0500  a.u.
     unit-cell volume          =     494.7754 (a.u.)^3
     number of atoms/cell      =            2
     number of atomic types    =            1
     number of electrons       =        18.00
     number of Kohn-Sham states=           13
     kinetic-energy cutoff     =      40.0000  Ry
     charge density cutoff     =     320.0000  Ry
     Exchange-correlation      = SLA  PW   PBE  PBE ( 1  4  3  4 0 0)

     celldm(1)=   7.050000  celldm(2)=   0.000000  celldm(3)=   1.630460
     celldm(4)=   0.000000  celldm(5)=   0.000000  celldm(6)=   0.000000

     crystal axes: (cart. coord. in units of alat)
               a(1) = (   1.000000   0.000000   0.000000 )  
               a(2) = (  -0.500000   0.866025   0.000000 )  
               a(3) = (   0.000000   0.000000   1.630460 )  

     reciprocal axes: (cart. coord. in units 2 pi/alat)
               b(1) = (  1.000000  0.577350  0.000000 )  
               b(2) = (  0.000000  1.154701  0.000000 )  
               b(3) = (  0.000000  0.000000  0.613324 )  


     PseudoPot. # 1 for Na read from file:
     ./Na_pbe_v1.uspp.F.UPF
     MD5 check sum: 76a99c7e9422403d3e93cbc85ab7bccb
     Pseudo is Ultrasoft, Zval =  9.0
     Generated by new atomic code, or converted to UPF format
     Using radial grid of  819 points,  5 beta functions with: 
                l(1) =   0
                l(2) =   0
                l(3) =   1
                l(4) =   1
                l(5) =   2
     Q(r) pseudized with  8 coefficients,  rinner =    1.250   1.250   1.250
                                                       1.250   1.250

     atomic species   valence    mass     pseudopotential
        Na             9.00    22.99000     Na( 1.00)

     24 Sym. Ops., with inversion, found



   Cartesian axes

     site n.     atom                  positions (alat units)
         1           Na  tau(   1) = (   0.0000000   0.0000000   0.0000000  )
         2           Na  tau(   2) = (   0.5000000   0.2886751   0.8152300  )

     number of k points=   732  Marzari-Vanderbilt smearing, width (Ry)=  0.0200

     Number of k-points >= 100: set verbosity='high' to print them.

     Dense  grid:    47891 G-vectors     FFT dimensions: (  45,  45,  72)

     Smooth grid:    16901 G-vectors     FFT dimensions: (  30,  30,  48)

     Largest allocated arrays     est. size (Mb)     dimensions
        Kohn-Sham Wavefunctions         0.06 Mb     (     280,   13)
        NL pseudopotentials             0.11 Mb     (     280,   26)
        Each V/rho on FFT grid          0.28 Mb     (   18225)
        Each G-vector array             0.05 Mb     (    5987)
        G-vector shells                 0.01 Mb     (    1754)
     Largest temporary arrays     est. size (Mb)     dimensions
        Auxiliary wavefunctions         0.22 Mb     (     280,   52)
        Each subspace H/S matrix        0.01 Mb     (      26,   26)
        Each <psi_i|beta_j> matrix      0.01 Mb     (      26,   13)

     The potential is recalculated from file :
     ./na_hcp_7.05/_ph0/na_hcp_7.05.save/charge-density.dat

     Starting wfc are   10 atomic +    3 random wfc

     Band Structure Calculation
     Davidson diagonalization with overlap

     ethr =  5.56E-11,  avg # of iterations = 23.7

     total cpu time spent up to now is       13.4 secs

     End of band structure calculation

     Number of k-points >= 100: set verbosity='high' to print the bands.

     the Fermi energy is     1.6507 ev

     Writing output data file na_hcp_7.05.save

                                                                                

     bravais-lattice index     =            4
     lattice parameter (alat)  =       7.0500  a.u.
     unit-cell volume          =     494.7754 (a.u.)^3
     number of atoms/cell      =            2
     number of atomic types    =            1
     kinetic-energy cut-off    =      40.0000  Ry
     charge density cut-off    =     320.0000  Ry
     convergence threshold     =      1.0E-15
     beta                      =       0.7000
     number of iterations used =            4
     Exchange-correlation      = SLA  PW   PBE  PBE ( 1  4  3  4 0 0)


     celldm(1)=    7.05000  celldm(2)=    0.00000  celldm(3)=    1.63046
     celldm(4)=    0.00000  celldm(5)=    0.00000  celldm(6)=    0.00000

     crystal axes: (cart. coord. in units of alat)
               a(1) = (  1.0000  0.0000  0.0000 )  
               a(2) = ( -0.5000  0.8660  0.0000 )  
               a(3) = (  0.0000  0.0000  1.6305 )  

     reciprocal axes: (cart. coord. in units 2 pi/alat)
               b(1) = (  1.0000  0.5774  0.0000 )  
               b(2) = (  0.0000  1.1547  0.0000 )  
               b(3) = (  0.0000  0.0000  0.6133 )  


     Atoms inside the unit cell: 

     Cartesian axes

     site n.  atom      mass           positions (alat units)
        1     Na  22.9900   tau(    1) = (    0.00000    0.00000    0.00000  )
        2     Na  22.9900   tau(    2) = (    0.50000    0.28868    0.81523  )

     Computing dynamical matrix for 
                    q = (   0.0000000   0.0000000  -0.3066619 )
 
     25 Sym.Ops. (with q -> -q+G )


     G cutoff =  402.8733  (   5987 G-vectors)     FFT grid: ( 45, 45, 72)
     G cutoff =  201.4366  (   2107 G-vectors)  smooth grid: ( 30, 30, 48)

     number of k points=   732  Marzari-Vanderbilt smearing, width (Ry)=  0.0200

     PseudoPot. # 1 for Na read from file:
     ./Na_pbe_v1.uspp.F.UPF
     MD5 check sum: 76a99c7e9422403d3e93cbc85ab7bccb
     Pseudo is Ultrasoft, Zval =  9.0
     Generated by new atomic code, or converted to UPF format
     Using radial grid of  819 points,  5 beta functions with: 
                l(1) =   0
                l(2) =   0
                l(3) =   1
                l(4) =   1
                l(5) =   2
     Q(r) pseudized with  8 coefficients,  rinner =    1.250   1.250   1.250
                                                       1.250   1.250


     Atomic displacements:
     There are   2 irreducible representations

     Representation     1      4 modes -  To be done

     Representation     2      2 modes -  To be done



     Alpha used in Ewald sum =   2.8000
     PHONON       :  7m 2.00s CPU     7m33.75s WALL



     Representation #  1 modes #   1  2  3  4

     Self-consistent Calculation

      iter #   1 total cpu time :   463.4 secs   av.it.:   5.2
      thresh= 1.000E-02 alpha_mix =  0.700 |ddv_scf|^2 =  1.822E-07

      iter #   2 total cpu time :   471.0 secs   av.it.:   9.4
      thresh= 4.269E-05 alpha_mix =  0.700 |ddv_scf|^2 =  3.273E-09

      iter #   3 total cpu time :   480.0 secs   av.it.:   9.7
      thresh= 5.721E-06 alpha_mix =  0.700 |ddv_scf|^2 =  8.592E-11

      iter #   4 total cpu time :   488.8 secs   av.it.:   9.2
      thresh= 9.269E-07 alpha_mix =  0.700 |ddv_scf|^2 =  2.840E-13

      iter #   5 total cpu time :   499.4 secs   av.it.:   9.5
      thresh= 5.329E-08 alpha_mix =  0.700 |ddv_scf|^2 =  5.357E-16

     End of self-consistent calculation

     Convergence has been achieved 


     Representation #  2 modes #   5  6

     Self-consistent Calculation

      iter #   1 total cpu time :   505.9 secs   av.it.:   5.7
      thresh= 1.000E-02 alpha_mix =  0.700 |ddv_scf|^2 =  1.884E-04

      iter #   2 total cpu time :   512.0 secs   av.it.:   7.7
      thresh= 1.373E-03 alpha_mix =  0.700 |ddv_scf|^2 =  5.116E-03

      iter #   3 total cpu time :   516.2 secs   av.it.:   6.1
      thresh= 7.153E-03 alpha_mix =  0.700 |ddv_scf|^2 =  1.338E-07

      iter #   4 total cpu time :   521.3 secs   av.it.:   8.6
      thresh= 3.657E-05 alpha_mix =  0.700 |ddv_scf|^2 =  6.825E-10

      iter #   5 total cpu time :   525.1 secs   av.it.:   9.5
      thresh= 2.613E-06 alpha_mix =  0.700 |ddv_scf|^2 =  5.523E-11

      iter #   6 total cpu time :   532.4 secs   av.it.:   9.4
      thresh= 7.432E-07 alpha_mix =  0.700 |ddv_scf|^2 =  1.310E-12

      iter #   7 total cpu time :   539.6 secs   av.it.:   9.7
      thresh= 1.145E-07 alpha_mix =  0.700 |ddv_scf|^2 =  1.995E-13

      iter #   8 total cpu time :   546.0 secs   av.it.:   8.3
      thresh= 4.466E-08 alpha_mix =  0.700 |ddv_scf|^2 =  2.938E-16

     End of self-consistent calculation

     Convergence has been achieved 
 
     Number of q in the star =    1
     List of q in the star:
          1   0.000000000   0.000000000  -0.306661924

     Diagonalizing the dynamical matrix

     q = (    0.000000000   0.000000000  -0.306661924 ) 

 **************************************************************************
     freq (    1) =       1.011496 [THz] =      33.739868 [cm-1]
     freq (    2) =       1.011496 [THz] =      33.739868 [cm-1]
     freq (    3) =       1.011496 [THz] =      33.739868 [cm-1]
     freq (    4) =       1.011496 [THz] =      33.739868 [cm-1]
     freq (    5) =       2.870712 [THz] =      95.756647 [cm-1]
     freq (    6) =       2.870712 [THz] =      95.756647 [cm-1]
 **************************************************************************

     Calculation of q =    0.0000000   0.2886751   0.0000000
 
     Parallelization info
     --------------------
     sticks:   dense  smooth     PW     G-vecs:    dense   smooth      PW
     Min         137      69     21                 5985     2102     377
     Max         138      70     22                 5987     2122     383
     Sum        1099     559    169                47891    16901    3039
 


     bravais-lattice index     =            4
     lattice parameter (alat)  =       7.0500  a.u.
     unit-cell volume          =     494.7754 (a.u.)^3
     number of atoms/cell      =            2
     number of atomic types    =            1
     number of electrons       =        18.00
     number of Kohn-Sham states=           13
     kinetic-energy cutoff     =      40.0000  Ry
     charge density cutoff     =     320.0000  Ry
     Exchange-correlation      = SLA  PW   PBE  PBE ( 1  4  3  4 0 0)

     celldm(1)=   7.050000  celldm(2)=   0.000000  celldm(3)=   1.630460
     celldm(4)=   0.000000  celldm(5)=   0.000000  celldm(6)=   0.000000

     crystal axes: (cart. coord. in units of alat)
               a(1) = (   1.000000   0.000000   0.000000 )  
               a(2) = (  -0.500000   0.866025   0.000000 )  
               a(3) = (   0.000000   0.000000   1.630460 )  

     reciprocal axes: (cart. coord. in units 2 pi/alat)
               b(1) = (  1.000000  0.577350  0.000000 )  
               b(2) = (  0.000000  1.154701  0.000000 )  
               b(3) = (  0.000000  0.000000  0.613324 )  


     PseudoPot. # 1 for Na read from file:
     ./Na_pbe_v1.uspp.F.UPF
     MD5 check sum: 76a99c7e9422403d3e93cbc85ab7bccb
     Pseudo is Ultrasoft, Zval =  9.0
     Generated by new atomic code, or converted to UPF format
     Using radial grid of  819 points,  5 beta functions with: 
                l(1) =   0
                l(2) =   0
                l(3) =   1
                l(4) =   1
                l(5) =   2
     Q(r) pseudized with  8 coefficients,  rinner =    1.250   1.250   1.250
                                                       1.250   1.250

     atomic species   valence    mass     pseudopotential
        Na             9.00    22.99000     Na( 1.00)

     24 Sym. Ops., with inversion, found



   Cartesian axes

     site n.     atom                  positions (alat units)
         1           Na  tau(   1) = (   0.0000000   0.0000000   0.0000000  )
         2           Na  tau(   2) = (   0.5000000   0.2886751   0.8152300  )

     number of k points=  3600  Marzari-Vanderbilt smearing, width (Ry)=  0.0200

     Number of k-points >= 100: set verbosity='high' to print them.

     Dense  grid:    47891 G-vectors     FFT dimensions: (  45,  45,  72)

     Smooth grid:    16901 G-vectors     FFT dimensions: (  30,  30,  48)

     Largest allocated arrays     est. size (Mb)     dimensions
        Kohn-Sham Wavefunctions         0.06 Mb     (     282,   13)
        NL pseudopotentials             0.11 Mb     (     282,   26)
        Each V/rho on FFT grid          0.28 Mb     (   18225)
        Each G-vector array             0.05 Mb     (    5987)
        G-vector shells                 0.01 Mb     (    1784)
     Largest temporary arrays     est. size (Mb)     dimensions
        Auxiliary wavefunctions         0.22 Mb     (     282,   52)
        Each subspace H/S matrix        0.01 Mb     (      26,   26)
        Each <psi_i|beta_j> matrix      0.01 Mb     (      26,   13)

     The potential is recalculated from file :
     ./na_hcp_7.05/_ph0/na_hcp_7.05.save/charge-density.dat

     Starting wfc are   10 atomic +    3 random wfc

     Band Structure Calculation
     Davidson diagonalization with overlap

     ethr =  5.56E-11,  avg # of iterations = 22.9

     total cpu time spent up to now is       27.7 secs

     End of band structure calculation

     Number of k-points >= 100: set verbosity='high' to print the bands.

     the Fermi energy is     1.6507 ev

     Writing output data file na_hcp_7.05.save

                                                                                

     bravais-lattice index     =            4
     lattice parameter (alat)  =       7.0500  a.u.
     unit-cell volume          =     494.7754 (a.u.)^3
     number of atoms/cell      =            2
     number of atomic types    =            1
     kinetic-energy cut-off    =      40.0000  Ry
     charge density cut-off    =     320.0000  Ry
     convergence threshold     =      1.0E-15
     beta                      =       0.7000
     number of iterations used =            4
     Exchange-correlation      = SLA  PW   PBE  PBE ( 1  4  3  4 0 0)


     celldm(1)=    7.05000  celldm(2)=    0.00000  celldm(3)=    1.63046
     celldm(4)=    0.00000  celldm(5)=    0.00000  celldm(6)=    0.00000

     crystal axes: (cart. coord. in units of alat)
               a(1) = (  1.0000  0.0000  0.0000 )  
               a(2) = ( -0.5000  0.8660  0.0000 )  
               a(3) = (  0.0000  0.0000  1.6305 )  

     reciprocal axes: (cart. coord. in units 2 pi/alat)
               b(1) = (  1.0000  0.5774  0.0000 )  
               b(2) = (  0.0000  1.1547  0.0000 )  
               b(3) = (  0.0000  0.0000  0.6133 )  


     Atoms inside the unit cell: 

     Cartesian axes

     site n.  atom      mass           positions (alat units)
        1     Na  22.9900   tau(    1) = (    0.00000    0.00000    0.00000  )
        2     Na  22.9900   tau(    2) = (    0.50000    0.28868    0.81523  )

     Computing dynamical matrix for 
                    q = (   0.0000000   0.2886751   0.0000000 )
 
      4 Sym.Ops. (no q -> -q+G )


     G cutoff =  402.8733  (   5987 G-vectors)     FFT grid: ( 45, 45, 72)
     G cutoff =  201.4366  (   2119 G-vectors)  smooth grid: ( 30, 30, 48)

     number of k points=  3600  Marzari-Vanderbilt smearing, width (Ry)=  0.0200

     PseudoPot. # 1 for Na read from file:
     ./Na_pbe_v1.uspp.F.UPF
     MD5 check sum: 76a99c7e9422403d3e93cbc85ab7bccb
     Pseudo is Ultrasoft, Zval =  9.0
     Generated by new atomic code, or converted to UPF format
     Using radial grid of  819 points,  5 beta functions with: 
                l(1) =   0
                l(2) =   0
                l(3) =   1
                l(4) =   1
                l(5) =   2
     Q(r) pseudized with  8 coefficients,  rinner =    1.250   1.250   1.250
                                                       1.250   1.250

     Mode symmetry, C_2v (mm2)  point group:


     Atomic displacements:
     There are   6 irreducible representations

     Representation     1      1 modes -A_1  D_1  S_1  To be done

     Representation     2      1 modes -A_1  D_1  S_1  To be done

     Representation     3      1 modes -B_1  D_3  S_3  To be done

     Representation     4      1 modes -B_1  D_3  S_3  To be done

     Representation     5      1 modes -B_2  D_4  S_4  To be done

     Representation     6      1 modes -B_2  D_4  S_4  To be done



     Alpha used in Ewald sum =   2.8000
     PHONON       :  8m44.34s CPU     9m29.13s WALL



     Representation #  1 mode #   1

     Self-consistent Calculation

      iter #   1 total cpu time :   572.8 secs   av.it.:   5.7
      thresh= 1.000E-02 alpha_mix =  0.700 |ddv_scf|^2 =  5.440E-04

      iter #   2 total cpu time :   581.2 secs   av.it.:   7.3
      thresh= 2.332E-03 alpha_mix =  0.700 |ddv_scf|^2 =  1.947E-02

      iter #   3 total cpu time :   590.8 secs   av.it.:   5.3
      thresh= 1.000E-02 alpha_mix =  0.700 |ddv_scf|^2 =  4.653E-07

      iter #   4 total cpu time :   603.8 secs   av.it.:   8.2
      thresh= 6.821E-05 alpha_mix =  0.700 |ddv_scf|^2 =  2.649E-08

      iter #   5 total cpu time :   612.8 secs   av.it.:   8.3
      thresh= 1.628E-05 alpha_mix =  0.700 |ddv_scf|^2 =  6.511E-10

      iter #   6 total cpu time :   621.0 secs   av.it.:   8.7
      thresh= 2.552E-06 alpha_mix =  0.700 |ddv_scf|^2 =  1.313E-10

      iter #   7 total cpu time :   629.1 secs   av.it.:   8.0
      thresh= 1.146E-06 alpha_mix =  0.700 |ddv_scf|^2 =  1.489E-09

      iter #   8 total cpu time :   636.0 secs   av.it.:   6.6
      thresh= 3.858E-06 alpha_mix =  0.700 |ddv_scf|^2 =  2.802E-12

      iter #   9 total cpu time :   643.8 secs   av.it.:   8.7
      thresh= 1.674E-07 alpha_mix =  0.700 |ddv_scf|^2 =  5.443E-13

      iter #  10 total cpu time :   647.2 secs   av.it.:   7.6
      thresh= 7.378E-08 alpha_mix =  0.700 |ddv_scf|^2 =  1.809E-12

      iter #  11 total cpu time :   652.5 secs   av.it.:   7.0
      thresh= 1.345E-07 alpha_mix =  0.700 |ddv_scf|^2 =  1.573E-15

      iter #  12 total cpu time :   659.3 secs   av.it.:   8.9
      thresh= 3.967E-09 alpha_mix =  0.700 |ddv_scf|^2 =  9.304E-17

     End of self-consistent calculation

     Convergence has been achieved 


     Representation #  2 mode #   2

     Self-consistent Calculation

      iter #   1 total cpu time :   666.2 secs   av.it.:   5.7
      thresh= 1.000E-02 alpha_mix =  0.700 |ddv_scf|^2 =  5.440E-04

      iter #   2 total cpu time :   675.0 secs   av.it.:   7.3
      thresh= 2.332E-03 alpha_mix =  0.700 |ddv_scf|^2 =  1.947E-02

      iter #   3 total cpu time :   689.8 secs   av.it.:   5.3
      thresh= 1.000E-02 alpha_mix =  0.700 |ddv_scf|^2 =  4.653E-07

      iter #   4 total cpu time :   696.3 secs   av.it.:   8.2
      thresh= 6.821E-05 alpha_mix =  0.700 |ddv_scf|^2 =  2.649E-08

      iter #   5 total cpu time :   701.7 secs   av.it.:   8.3
      thresh= 1.628E-05 alpha_mix =  0.700 |ddv_scf|^2 =  6.510E-10

      iter #   6 total cpu time :   708.7 secs   av.it.:   8.7
      thresh= 2.551E-06 alpha_mix =  0.700 |ddv_scf|^2 =  1.238E-10

      iter #   7 total cpu time :   719.2 secs   av.it.:   8.0
      thresh= 1.113E-06 alpha_mix =  0.700 |ddv_scf|^2 =  1.476E-09

      iter #   8 total cpu time :   731.8 secs   av.it.:   6.6
      thresh= 3.842E-06 alpha_mix =  0.700 |ddv_scf|^2 =  2.870E-12

      iter #   9 total cpu time :   737.0 secs   av.it.:   8.7
      thresh= 1.694E-07 alpha_mix =  0.700 |ddv_scf|^2 =  5.426E-13

      iter #  10 total cpu time :   743.5 secs   av.it.:   7.6
      thresh= 7.366E-08 alpha_mix =  0.700 |ddv_scf|^2 =  1.815E-12

      iter #  11 total cpu time :   751.9 secs   av.it.:   7.0
      thresh= 1.347E-07 alpha_mix =  0.700 |ddv_scf|^2 =  1.573E-15

      iter #  12 total cpu time :   760.0 secs   av.it.:   8.9
      thresh= 3.966E-09 alpha_mix =  0.700 |ddv_scf|^2 =  9.321E-17

     End of self-consistent calculation

     Convergence has been achieved 


     Representation #  3 mode #   3

     Self-consistent Calculation

      iter #   1 total cpu time :   766.4 secs   av.it.:   5.3
      thresh= 1.000E-02 alpha_mix =  0.700 |ddv_scf|^2 =  3.162E-06

      iter #   2 total cpu time :   771.3 secs   av.it.:   8.3
      thresh= 1.778E-04 alpha_mix =  0.700 |ddv_scf|^2 =  5.068E-08

      iter #   3 total cpu time :   781.5 secs   av.it.:   8.6
      thresh= 2.251E-05 alpha_mix =  0.700 |ddv_scf|^2 =  2.312E-09

      iter #   4 total cpu time :   790.3 secs   av.it.:   8.2
      thresh= 4.808E-06 alpha_mix =  0.700 |ddv_scf|^2 =  1.375E-11

      iter #   5 total cpu time :   796.0 secs   av.it.:   8.3
      thresh= 3.708E-07 alpha_mix =  0.700 |ddv_scf|^2 =  1.025E-13

      iter #   6 total cpu time :   803.3 secs   av.it.:   8.7
      thresh= 3.201E-08 alpha_mix =  0.700 |ddv_scf|^2 =  3.628E-16

     End of self-consistent calculation

     Convergence has been achieved 


     Representation #  4 mode #   4

     Self-consistent Calculation

      iter #   1 total cpu time :   813.7 secs   av.it.:   5.3
      thresh= 1.000E-02 alpha_mix =  0.700 |ddv_scf|^2 =  3.162E-06

      iter #   2 total cpu time :   829.9 secs   av.it.:   8.3
      thresh= 1.778E-04 alpha_mix =  0.700 |ddv_scf|^2 =  5.068E-08

      iter #   3 total cpu time :   836.9 secs   av.it.:   8.6
      thresh= 2.251E-05 alpha_mix =  0.700 |ddv_scf|^2 =  2.312E-09

      iter #   4 total cpu time :   843.1 secs   av.it.:   8.2
      thresh= 4.808E-06 alpha_mix =  0.700 |ddv_scf|^2 =  1.375E-11

      iter #   5 total cpu time :   852.5 secs   av.it.:   8.3
      thresh= 3.708E-07 alpha_mix =  0.700 |ddv_scf|^2 =  1.025E-13

      iter #   6 total cpu time :   861.1 secs   av.it.:   8.7
      thresh= 3.201E-08 alpha_mix =  0.700 |ddv_scf|^2 =  3.628E-16

     End of self-consistent calculation

     Convergence has been achieved 


     Representation #  5 mode #   5

     Self-consistent Calculation

      iter #   1 total cpu time :   868.0 secs   av.it.:   5.5
      thresh= 1.000E-02 alpha_mix =  0.700 |ddv_scf|^2 =  8.692E-06

      iter #   2 total cpu time :   877.9 secs   av.it.:   8.4
      thresh= 2.948E-04 alpha_mix =  0.700 |ddv_scf|^2 =  1.837E-06

      iter #   3 total cpu time :   888.4 secs   av.it.:   7.7
      thresh= 1.355E-04 alpha_mix =  0.700 |ddv_scf|^2 =  1.070E-08

      iter #   4 total cpu time :   900.4 secs   av.it.:   8.8
      thresh= 1.035E-05 alpha_mix =  0.700 |ddv_scf|^2 =  3.676E-10

      iter #   5 total cpu time :   907.5 secs   av.it.:   8.2
      thresh= 1.917E-06 alpha_mix =  0.700 |ddv_scf|^2 =  2.144E-12

      iter #   6 total cpu time :   914.3 secs   av.it.:   8.6
      thresh= 1.464E-07 alpha_mix =  0.700 |ddv_scf|^2 =  1.125E-14

      iter #   7 total cpu time :   924.1 secs   av.it.:   8.3
      thresh= 1.060E-08 alpha_mix =  0.700 |ddv_scf|^2 =  5.229E-16

     End of self-consistent calculation

     Convergence has been achieved 


     Representation #  6 mode #   6

     Self-consistent Calculation

      iter #   1 total cpu time :   932.2 secs   av.it.:   5.5
      thresh= 1.000E-02 alpha_mix =  0.700 |ddv_scf|^2 =  8.692E-06

      iter #   2 total cpu time :   936.6 secs   av.it.:   8.4
      thresh= 2.948E-04 alpha_mix =  0.700 |ddv_scf|^2 =  1.837E-06

      iter #   3 total cpu time :   944.6 secs   av.it.:   7.7
      thresh= 1.355E-04 alpha_mix =  0.700 |ddv_scf|^2 =  1.070E-08

      iter #   4 total cpu time :   952.0 secs   av.it.:   8.8
      thresh= 1.035E-05 alpha_mix =  0.700 |ddv_scf|^2 =  3.676E-10

      iter #   5 total cpu time :   961.3 secs   av.it.:   8.2
      thresh= 1.917E-06 alpha_mix =  0.700 |ddv_scf|^2 =  2.144E-12

      iter #   6 total cpu time :   969.8 secs   av.it.:   8.6
      thresh= 1.464E-07 alpha_mix =  0.700 |ddv_scf|^2 =  1.125E-14

      iter #   7 total cpu time :   974.1 secs   av.it.:   8.3
      thresh= 1.060E-08 alpha_mix =  0.700 |ddv_scf|^2 =  5.229E-16

     End of self-consistent calculation

     Convergence has been achieved 
 
     Number of q in the star =    6
     List of q in the star:
          1   0.000000000   0.288675135   0.000000000
          2  -0.250000000   0.144337567   0.000000000
          3   0.250000000  -0.144337567   0.000000000
          4  -0.250000000  -0.144337567   0.000000000
          5   0.250000000   0.144337567   0.000000000
          6   0.000000000  -0.288675135   0.000000000

     Diagonalizing the dynamical matrix

     q = (    0.000000000   0.288675135   0.000000000 ) 

 **************************************************************************
     freq (    1) =       1.152737 [THz] =      38.451171 [cm-1]
     freq (    2) =       1.403926 [THz] =      46.829920 [cm-1]
     freq (    3) =       2.383544 [THz] =      79.506481 [cm-1]
     freq (    4) =       2.522778 [THz] =      84.150825 [cm-1]
     freq (    5) =       3.079604 [THz] =     102.724538 [cm-1]
     freq (    6) =       3.669199 [THz] =     122.391308 [cm-1]
 **************************************************************************

     Mode symmetry, C_2v (mm2)  point group:

     freq (  1 -  1) =         38.5  [cm-1]   --> B_1  D_3  S_3      
     freq (  2 -  2) =         46.8  [cm-1]   --> B_2  D_4  S_4      
     freq (  3 -  3) =         79.5  [cm-1]   --> B_1  D_3  S_3      
     freq (  4 -  4) =         84.2  [cm-1]   --> A_1  D_1  S_1      
     freq (  5 -  5) =        102.7  [cm-1]   --> A_1  D_1  S_1      
     freq (  6 -  6) =        122.4  [cm-1]   --> B_2  D_4  S_4      

     Calculation of q =    0.0000000   0.2886751   0.1533310
 
     Parallelization info
     --------------------
     sticks:   dense  smooth     PW     G-vecs:    dense   smooth      PW
     Min         137      69     23                 5985     2104     395
     Max         138      70     24                 5987     2128     398
     Sum        1099     559    187                47891    16901    3177
 


     bravais-lattice index     =            4
     lattice parameter (alat)  =       7.0500  a.u.
     unit-cell volume          =     494.7754 (a.u.)^3
     number of atoms/cell      =            2
     number of atomic types    =            1
     number of electrons       =        18.00
     number of Kohn-Sham states=           13
     kinetic-energy cutoff     =      40.0000  Ry
     charge density cutoff     =     320.0000  Ry
     Exchange-correlation      = SLA  PW   PBE  PBE ( 1  4  3  4 0 0)

     celldm(1)=   7.050000  celldm(2)=   0.000000  celldm(3)=   1.630460
     celldm(4)=   0.000000  celldm(5)=   0.000000  celldm(6)=   0.000000

     crystal axes: (cart. coord. in units of alat)
               a(1) = (   1.000000   0.000000   0.000000 )  
               a(2) = (  -0.500000   0.866025   0.000000 )  
               a(3) = (   0.000000   0.000000   1.630460 )  

     reciprocal axes: (cart. coord. in units 2 pi/alat)
               b(1) = (  1.000000  0.577350  0.000000 )  
               b(2) = (  0.000000  1.154701  0.000000 )  
               b(3) = (  0.000000  0.000000  0.613324 )  


     PseudoPot. # 1 for Na read from file:
     ./Na_pbe_v1.uspp.F.UPF
     MD5 check sum: 76a99c7e9422403d3e93cbc85ab7bccb
     Pseudo is Ultrasoft, Zval =  9.0
     Generated by new atomic code, or converted to UPF format
     Using radial grid of  819 points,  5 beta functions with: 
                l(1) =   0
                l(2) =   0
                l(3) =   1
                l(4) =   1
                l(5) =   2
     Q(r) pseudized with  8 coefficients,  rinner =    1.250   1.250   1.250
                                                       1.250   1.250

     atomic species   valence    mass     pseudopotential
        Na             9.00    22.99000     Na( 1.00)

     24 Sym. Ops., with inversion, found



   Cartesian axes

     site n.     atom                  positions (alat units)
         1           Na  tau(   1) = (   0.0000000   0.0000000   0.0000000  )
         2           Na  tau(   2) = (   0.5000000   0.2886751   0.8152300  )

     number of k points=  7200  Marzari-Vanderbilt smearing, width (Ry)=  0.0200

     Number of k-points >= 100: set verbosity='high' to print them.

     Dense  grid:    47891 G-vectors     FFT dimensions: (  45,  45,  72)

     Smooth grid:    16901 G-vectors     FFT dimensions: (  30,  30,  48)

     Largest allocated arrays     est. size (Mb)     dimensions
        Kohn-Sham Wavefunctions         0.06 Mb     (     278,   13)
        NL pseudopotentials             0.11 Mb     (     278,   26)
        Each V/rho on FFT grid          0.28 Mb     (   18225)
        Each G-vector array             0.05 Mb     (    5987)
        G-vector shells                 0.01 Mb     (    1844)
     Largest temporary arrays     est. size (Mb)     dimensions
        Auxiliary wavefunctions         0.22 Mb     (     278,   52)
        Each subspace H/S matrix        0.01 Mb     (      26,   26)
        Each <psi_i|beta_j> matrix      0.01 Mb     (      26,   13)

     The potential is recalculated from file :
     ./na_hcp_7.05/_ph0/na_hcp_7.05.save/charge-density.dat

     Starting wfc are   10 atomic +    3 random wfc

     Band Structure Calculation
     Davidson diagonalization with overlap

     ethr =  5.56E-11,  avg # of iterations = 22.9

     total cpu time spent up to now is       79.5 secs

     End of band structure calculation

     Number of k-points >= 100: set verbosity='high' to print the bands.

     the Fermi energy is     1.6507 ev

     Writing output data file na_hcp_7.05.save

                                                                                

     bravais-lattice index     =            4
     lattice parameter (alat)  =       7.0500  a.u.
     unit-cell volume          =     494.7754 (a.u.)^3
     number of atoms/cell      =            2
     number of atomic types    =            1
     kinetic-energy cut-off    =      40.0000  Ry
     charge density cut-off    =     320.0000  Ry
     convergence threshold     =      1.0E-15
     beta                      =       0.7000
     number of iterations used =            4
     Exchange-correlation      = SLA  PW   PBE  PBE ( 1  4  3  4 0 0)


     celldm(1)=    7.05000  celldm(2)=    0.00000  celldm(3)=    1.63046
     celldm(4)=    0.00000  celldm(5)=    0.00000  celldm(6)=    0.00000

     crystal axes: (cart. coord. in units of alat)
               a(1) = (  1.0000  0.0000  0.0000 )  
               a(2) = ( -0.5000  0.8660  0.0000 )  
               a(3) = (  0.0000  0.0000  1.6305 )  

     reciprocal axes: (cart. coord. in units 2 pi/alat)
               b(1) = (  1.0000  0.5774  0.0000 )  
               b(2) = (  0.0000  1.1547  0.0000 )  
               b(3) = (  0.0000  0.0000  0.6133 )  


     Atoms inside the unit cell: 

     Cartesian axes

     site n.  atom      mass           positions (alat units)
        1     Na  22.9900   tau(    1) = (    0.00000    0.00000    0.00000  )
        2     Na  22.9900   tau(    2) = (    0.50000    0.28868    0.81523  )

     Computing dynamical matrix for 
                    q = (   0.0000000   0.2886751   0.1533310 )
 
      2 Sym.Ops. (no q -> -q+G )


     G cutoff =  402.8733  (   5987 G-vectors)     FFT grid: ( 45, 45, 72)
     G cutoff =  201.4366  (   2105 G-vectors)  smooth grid: ( 30, 30, 48)

     number of k points=  7200  Marzari-Vanderbilt smearing, width (Ry)=  0.0200

     PseudoPot. # 1 for Na read from file:
     ./Na_pbe_v1.uspp.F.UPF
     MD5 check sum: 76a99c7e9422403d3e93cbc85ab7bccb
     Pseudo is Ultrasoft, Zval =  9.0
     Generated by new atomic code, or converted to UPF format
     Using radial grid of  819 points,  5 beta functions with: 
                l(1) =   0
                l(2) =   0
                l(3) =   1
                l(4) =   1
                l(5) =   2
     Q(r) pseudized with  8 coefficients,  rinner =    1.250   1.250   1.250
                                                       1.250   1.250

     Mode symmetry, C_s (m)     point group:


     Atomic displacements:
     There are   6 irreducible representations

     Representation     1      1 modes -A'  To be done

     Representation     2      1 modes -A'  To be done

     Representation     3      1 modes -A'  To be done

     Representation     4      1 modes -A'  To be done

     Representation     5      1 modes -A''  To be done

     Representation     6      1 modes -A''  To be done



     Alpha used in Ewald sum =   2.8000
     PHONON       : 16m 3.13s CPU    17m15.94s WALL



     Representation #  1 mode #   1

     Self-consistent Calculation

      iter #   1 total cpu time :  1047.6 secs   av.it.:   5.7
      thresh= 1.000E-02 alpha_mix =  0.700 |ddv_scf|^2 =  2.131E-04

      iter #   2 total cpu time :  1070.7 secs   av.it.:   7.6
      thresh= 1.460E-03 alpha_mix =  0.700 |ddv_scf|^2 =  4.226E-03

      iter #   3 total cpu time :  1082.8 secs   av.it.:   5.6
      thresh= 6.500E-03 alpha_mix =  0.700 |ddv_scf|^2 =  1.936E-06

      iter #   4 total cpu time :  1102.7 secs   av.it.:   7.8
      thresh= 1.391E-04 alpha_mix =  0.700 |ddv_scf|^2 =  2.752E-07

      iter #   5 total cpu time :  1110.9 secs   av.it.:   7.8
      thresh= 5.246E-05 alpha_mix =  0.700 |ddv_scf|^2 =  1.232E-09

      iter #   6 total cpu time :  1125.9 secs   av.it.:   8.7
      thresh= 3.510E-06 alpha_mix =  0.700 |ddv_scf|^2 =  5.977E-11

      iter #   7 total cpu time :  1141.1 secs   av.it.:   8.7
      thresh= 7.731E-07 alpha_mix =  0.700 |ddv_scf|^2 =  2.829E-11

      iter #   8 total cpu time :  1154.9 secs   av.it.:   7.6
      thresh= 5.319E-07 alpha_mix =  0.700 |ddv_scf|^2 =  5.019E-11

      iter #   9 total cpu time :  1170.9 secs   av.it.:   7.5
      thresh= 7.084E-07 alpha_mix =  0.700 |ddv_scf|^2 =  2.778E-13

      iter #  10 total cpu time :  1180.5 secs   av.it.:   8.7
      thresh= 5.271E-08 alpha_mix =  0.700 |ddv_scf|^2 =  4.444E-13

      iter #  11 total cpu time :  1191.0 secs   av.it.:   7.4
      thresh= 6.667E-08 alpha_mix =  0.700 |ddv_scf|^2 =  1.788E-14

      iter #  12 total cpu time :  1202.8 secs   av.it.:   8.2
      thresh= 1.337E-08 alpha_mix =  0.700 |ddv_scf|^2 =  7.603E-15

      iter #  13 total cpu time :  1212.3 secs   av.it.:   7.7
      thresh= 8.719E-09 alpha_mix =  0.700 |ddv_scf|^2 =  7.540E-16

     End of self-consistent calculation

     Convergence has been achieved 


     Representation #  2 mode #   2

     Self-consistent Calculation

      iter #   1 total cpu time :  1226.5 secs   av.it.:   5.7
      thresh= 1.000E-02 alpha_mix =  0.700 |ddv_scf|^2 =  3.649E-05

      iter #   2 total cpu time :  1240.2 secs   av.it.:   8.0
      thresh= 6.041E-04 alpha_mix =  0.700 |ddv_scf|^2 =  4.415E-04

      iter #   3 total cpu time :  1248.8 secs   av.it.:   5.9
      thresh= 2.101E-03 alpha_mix =  0.700 |ddv_scf|^2 =  1.424E-05

      iter #   4 total cpu time :  1264.1 secs   av.it.:   7.2
      thresh= 3.773E-04 alpha_mix =  0.700 |ddv_scf|^2 =  6.803E-08

      iter #   5 total cpu time :  1283.3 secs   av.it.:   8.6
      thresh= 2.608E-05 alpha_mix =  0.700 |ddv_scf|^2 =  7.790E-10

      iter #   6 total cpu time :  1301.9 secs   av.it.:   8.9
      thresh= 2.791E-06 alpha_mix =  0.700 |ddv_scf|^2 =  6.417E-11

      iter #   7 total cpu time :  1311.8 secs   av.it.:   8.8
      thresh= 8.011E-07 alpha_mix =  0.700 |ddv_scf|^2 =  4.687E-11

      iter #   8 total cpu time :  1321.4 secs   av.it.:   7.7
      thresh= 6.846E-07 alpha_mix =  0.700 |ddv_scf|^2 =  1.443E-10

      iter #   9 total cpu time :  1332.1 secs   av.it.:   6.9
      thresh= 1.201E-06 alpha_mix =  0.700 |ddv_scf|^2 =  4.004E-12

      iter #  10 total cpu time :  1343.8 secs   av.it.:   7.6
      thresh= 2.001E-07 alpha_mix =  0.700 |ddv_scf|^2 =  2.672E-12

      iter #  11 total cpu time :  1353.2 secs   av.it.:   7.6
      thresh= 1.635E-07 alpha_mix =  0.700 |ddv_scf|^2 =  1.787E-14

      iter #  12 total cpu time :  1366.4 secs   av.it.:   8.0
      thresh= 1.337E-08 alpha_mix =  0.700 |ddv_scf|^2 =  2.798E-15

      iter #  13 total cpu time :  1388.2 secs   av.it.:   8.7
      thresh= 5.290E-09 alpha_mix =  0.700 |ddv_scf|^2 =  6.250E-17

     End of self-consistent calculation

     Convergence has been achieved 


     Representation #  3 mode #   3

     Self-consistent Calculation

      iter #   1 total cpu time :  1400.7 secs   av.it.:   5.8
      thresh= 1.000E-02 alpha_mix =  0.700 |ddv_scf|^2 =  2.440E-04

      iter #   2 total cpu time :  1426.7 secs   av.it.:   7.6
      thresh= 1.562E-03 alpha_mix =  0.700 |ddv_scf|^2 =  4.905E-03

      iter #   3 total cpu time :  1446.3 secs   av.it.:   5.5
      thresh= 7.004E-03 alpha_mix =  0.700 |ddv_scf|^2 =  6.294E-07

      iter #   4 total cpu time :  1458.8 secs   av.it.:   8.0
      thresh= 7.933E-05 alpha_mix =  0.700 |ddv_scf|^2 =  2.879E-07

      iter #   5 total cpu time :  1468.0 secs   av.it.:   7.7
      thresh= 5.365E-05 alpha_mix =  0.700 |ddv_scf|^2 =  1.526E-09

      iter #   6 total cpu time :  1482.0 secs   av.it.:   8.7
      thresh= 3.906E-06 alpha_mix =  0.700 |ddv_scf|^2 =  7.449E-11

      iter #   7 total cpu time :  1492.1 secs   av.it.:   8.6
      thresh= 8.631E-07 alpha_mix =  0.700 |ddv_scf|^2 =  1.800E-12

      iter #   8 total cpu time :  1506.5 secs   av.it.:   9.2
      thresh= 1.342E-07 alpha_mix =  0.700 |ddv_scf|^2 =  5.218E-13

      iter #   9 total cpu time :  1536.5 secs   av.it.:   8.0
      thresh= 7.224E-08 alpha_mix =  0.700 |ddv_scf|^2 =  4.663E-12

      iter #  10 total cpu time :  1544.3 secs   av.it.:   6.8
      thresh= 2.159E-07 alpha_mix =  0.700 |ddv_scf|^2 =  9.732E-15

      iter #  11 total cpu time :  1561.2 secs   av.it.:   8.2
      thresh= 9.865E-09 alpha_mix =  0.700 |ddv_scf|^2 =  9.745E-15

      iter #  12 total cpu time :  1573.2 secs   av.it.:   7.7
      thresh= 9.872E-09 alpha_mix =  0.700 |ddv_scf|^2 =  6.526E-16

     End of self-consistent calculation

     Convergence has been achieved 


     Representation #  4 mode #   4

     Self-consistent Calculation

      iter #   1 total cpu time :  1589.5 secs   av.it.:   5.7
      thresh= 1.000E-02 alpha_mix =  0.700 |ddv_scf|^2 =  6.743E-05

      iter #   2 total cpu time :  1603.5 secs   av.it.:   7.8
      thresh= 8.212E-04 alpha_mix =  0.700 |ddv_scf|^2 =  1.121E-03

      iter #   3 total cpu time :  1609.5 secs   av.it.:   5.7
      thresh= 3.348E-03 alpha_mix =  0.700 |ddv_scf|^2 =  7.089E-06

      iter #   4 total cpu time :  1624.6 secs   av.it.:   7.5
      thresh= 2.663E-04 alpha_mix =  0.700 |ddv_scf|^2 =  1.075E-07

      iter #   5 total cpu time :  1637.5 secs   av.it.:   8.2
      thresh= 3.279E-05 alpha_mix =  0.700 |ddv_scf|^2 =  8.847E-10

      iter #   6 total cpu time :  1645.7 secs   av.it.:   8.9
      thresh= 2.974E-06 alpha_mix =  0.700 |ddv_scf|^2 =  7.450E-11

      iter #   7 total cpu time :  1657.7 secs   av.it.:   8.7
      thresh= 8.631E-07 alpha_mix =  0.700 |ddv_scf|^2 =  6.929E-12

      iter #   8 total cpu time :  1669.4 secs   av.it.:   8.8
      thresh= 2.632E-07 alpha_mix =  0.700 |ddv_scf|^2 =  6.878E-11

      iter #   9 total cpu time :  1678.9 secs   av.it.:   6.4
      thresh= 8.293E-07 alpha_mix =  0.700 |ddv_scf|^2 =  8.490E-13

      iter #  10 total cpu time :  1691.5 secs   av.it.:   8.1
      thresh= 9.214E-08 alpha_mix =  0.700 |ddv_scf|^2 =  7.244E-13

      iter #  11 total cpu time :  1703.1 secs   av.it.:   7.5
      thresh= 8.511E-08 alpha_mix =  0.700 |ddv_scf|^2 =  1.612E-13

      iter #  12 total cpu time :  1715.4 secs   av.it.:   7.2
      thresh= 4.015E-08 alpha_mix =  0.700 |ddv_scf|^2 =  4.079E-15

      iter #  13 total cpu time :  1736.9 secs   av.it.:   8.7
      thresh= 6.387E-09 alpha_mix =  0.700 |ddv_scf|^2 =  9.708E-17

     End of self-consistent calculation

     Convergence has been achieved 


     Representation #  5 mode #   5

     Self-consistent Calculation

      iter #   1 total cpu time :  1751.0 secs   av.it.:   5.3
      thresh= 1.000E-02 alpha_mix =  0.700 |ddv_scf|^2 =  3.155E-06

      iter #   2 total cpu time :  1763.7 secs   av.it.:   8.4
      thresh= 1.776E-04 alpha_mix =  0.700 |ddv_scf|^2 =  5.051E-08

      iter #   3 total cpu time :  1786.7 secs   av.it.:   8.7
      thresh= 2.247E-05 alpha_mix =  0.700 |ddv_scf|^2 =  2.323E-09

      iter #   4 total cpu time :  1814.3 secs   av.it.:   8.1
      thresh= 4.820E-06 alpha_mix =  0.700 |ddv_scf|^2 =  1.068E-11

      iter #   5 total cpu time :  1827.3 secs   av.it.:   8.4
      thresh= 3.268E-07 alpha_mix =  0.700 |ddv_scf|^2 =  7.607E-14

      iter #   6 total cpu time :  1845.5 secs   av.it.:   8.7
      thresh= 2.758E-08 alpha_mix =  0.700 |ddv_scf|^2 =  3.456E-16

     End of self-consistent calculation

     Convergence has been achieved 


     Representation #  6 mode #   6

     Self-consistent Calculation

      iter #   1 total cpu time :  1864.4 secs   av.it.:   5.3
      thresh= 1.000E-02 alpha_mix =  0.700 |ddv_scf|^2 =  3.155E-06

      iter #   2 total cpu time :  1875.9 secs   av.it.:   8.4
      thresh= 1.776E-04 alpha_mix =  0.700 |ddv_scf|^2 =  5.051E-08

      iter #   3 total cpu time :  1887.9 secs   av.it.:   8.7
      thresh= 2.247E-05 alpha_mix =  0.700 |ddv_scf|^2 =  2.323E-09

      iter #   4 total cpu time :  1897.9 secs   av.it.:   8.1
      thresh= 4.820E-06 alpha_mix =  0.700 |ddv_scf|^2 =  1.068E-11

      iter #   5 total cpu time :  1909.8 secs   av.it.:   8.4
      thresh= 3.268E-07 alpha_mix =  0.700 |ddv_scf|^2 =  7.607E-14

      iter #   6 total cpu time :  1922.8 secs   av.it.:   8.7
      thresh= 2.758E-08 alpha_mix =  0.700 |ddv_scf|^2 =  3.456E-16

     End of self-consistent calculation

     Convergence has been achieved 
 
     Number of q in the star =   12
     List of q in the star:
          1   0.000000000   0.288675135   0.153330962
          2   0.000000000   0.288675135  -0.153330962
          3  -0.250000000   0.144337567   0.153330962
          4   0.250000000  -0.144337567   0.153330962
          5  -0.250000000  -0.144337567   0.153330962
          6   0.250000000   0.144337567   0.153330962
          7   0.000000000  -0.288675135   0.153330962
          8   0.000000000  -0.288675135  -0.153330962
          9   0.250000000   0.144337567  -0.153330962
         10   0.250000000  -0.144337567  -0.153330962
         11  -0.250000000  -0.144337567  -0.153330962
         12  -0.250000000   0.144337567  -0.153330962

     Diagonalizing the dynamical matrix

     q = (    0.000000000   0.288675135   0.153330962 ) 

 **************************************************************************
     freq (    1) =       1.395381 [THz] =      46.544898 [cm-1]
     freq (    2) =       1.618522 [THz] =      53.988090 [cm-1]
     freq (    3) =       2.255803 [THz] =      75.245486 [cm-1]
     freq (    4) =       2.763070 [THz] =      92.166086 [cm-1]
     freq (    5) =       2.882134 [THz] =      96.137640 [cm-1]
     freq (    6) =       3.578419 [THz] =     119.363205 [cm-1]
 **************************************************************************

     Mode symmetry, C_s (m)     point group:

     freq (  1 -  1) =         46.5  [cm-1]   --> A''                
     freq (  2 -  2) =         54.0  [cm-1]   --> A'                 
     freq (  3 -  3) =         75.2  [cm-1]   --> A''                
     freq (  4 -  4) =         92.2  [cm-1]   --> A'                 
     freq (  5 -  5) =         96.1  [cm-1]   --> A'                 
     freq (  6 -  6) =        119.4  [cm-1]   --> A'                 

     Calculation of q =    0.0000000   0.2886751  -0.3066619
 
     Parallelization info
     --------------------
     sticks:   dense  smooth     PW     G-vecs:    dense   smooth      PW
     Min         137      69     21                 5985     2102     377
     Max         138      70     22                 5987     2122     383
     Sum        1099     559    169                47891    16901    3039
 


     bravais-lattice index     =            4
     lattice parameter (alat)  =       7.0500  a.u.
     unit-cell volume          =     494.7754 (a.u.)^3
     number of atoms/cell      =            2
     number of atomic types    =            1
     number of electrons       =        18.00
     number of Kohn-Sham states=           13
     kinetic-energy cutoff     =      40.0000  Ry
     charge density cutoff     =     320.0000  Ry
     Exchange-correlation      = SLA  PW   PBE  PBE ( 1  4  3  4 0 0)

     celldm(1)=   7.050000  celldm(2)=   0.000000  celldm(3)=   1.630460
     celldm(4)=   0.000000  celldm(5)=   0.000000  celldm(6)=   0.000000

     crystal axes: (cart. coord. in units of alat)
               a(1) = (   1.000000   0.000000   0.000000 )  
               a(2) = (  -0.500000   0.866025   0.000000 )  
               a(3) = (   0.000000   0.000000   1.630460 )  

     reciprocal axes: (cart. coord. in units 2 pi/alat)
               b(1) = (  1.000000  0.577350  0.000000 )  
               b(2) = (  0.000000  1.154701  0.000000 )  
               b(3) = (  0.000000  0.000000  0.613324 )  


     PseudoPot. # 1 for Na read from file:
     ./Na_pbe_v1.uspp.F.UPF
     MD5 check sum: 76a99c7e9422403d3e93cbc85ab7bccb
     Pseudo is Ultrasoft, Zval =  9.0
     Generated by new atomic code, or converted to UPF format
     Using radial grid of  819 points,  5 beta functions with: 
                l(1) =   0
                l(2) =   0
                l(3) =   1
                l(4) =   1
                l(5) =   2
     Q(r) pseudized with  8 coefficients,  rinner =    1.250   1.250   1.250
                                                       1.250   1.250

     atomic species   valence    mass     pseudopotential
        Na             9.00    22.99000     Na( 1.00)

     24 Sym. Ops., with inversion, found



   Cartesian axes

     site n.     atom                  positions (alat units)
         1           Na  tau(   1) = (   0.0000000   0.0000000   0.0000000  )
         2           Na  tau(   2) = (   0.5000000   0.2886751   0.8152300  )

     number of k points=  3600  Marzari-Vanderbilt smearing, width (Ry)=  0.0200

     Number of k-points >= 100: set verbosity='high' to print them.

     Dense  grid:    47891 G-vectors     FFT dimensions: (  45,  45,  72)

     Smooth grid:    16901 G-vectors     FFT dimensions: (  30,  30,  48)

     Largest allocated arrays     est. size (Mb)     dimensions
        Kohn-Sham Wavefunctions         0.06 Mb     (     282,   13)
        NL pseudopotentials             0.11 Mb     (     282,   26)
        Each V/rho on FFT grid          0.28 Mb     (   18225)
        Each G-vector array             0.05 Mb     (    5987)
        G-vector shells                 0.01 Mb     (    1784)
     Largest temporary arrays     est. size (Mb)     dimensions
        Auxiliary wavefunctions         0.22 Mb     (     282,   52)
        Each subspace H/S matrix        0.01 Mb     (      26,   26)
        Each <psi_i|beta_j> matrix      0.01 Mb     (      26,   13)

     The potential is recalculated from file :
     ./na_hcp_7.05/_ph0/na_hcp_7.05.save/charge-density.dat

     Starting wfc are   10 atomic +    3 random wfc

     Band Structure Calculation
     Davidson diagonalization with overlap

     ethr =  5.56E-11,  avg # of iterations = 22.9

     total cpu time spent up to now is      102.4 secs

     End of band structure calculation

     Number of k-points >= 100: set verbosity='high' to print the bands.

     the Fermi energy is     1.6507 ev

     Writing output data file na_hcp_7.05.save

                                                                                

     bravais-lattice index     =            4
     lattice parameter (alat)  =       7.0500  a.u.
     unit-cell volume          =     494.7754 (a.u.)^3
     number of atoms/cell      =            2
     number of atomic types    =            1
     kinetic-energy cut-off    =      40.0000  Ry
     charge density cut-off    =     320.0000  Ry
     convergence threshold     =      1.0E-15
     beta                      =       0.7000
     number of iterations used =            4
     Exchange-correlation      = SLA  PW   PBE  PBE ( 1  4  3  4 0 0)


     celldm(1)=    7.05000  celldm(2)=    0.00000  celldm(3)=    1.63046
     celldm(4)=    0.00000  celldm(5)=    0.00000  celldm(6)=    0.00000

     crystal axes: (cart. coord. in units of alat)
               a(1) = (  1.0000  0.0000  0.0000 )  
               a(2) = ( -0.5000  0.8660  0.0000 )  
               a(3) = (  0.0000  0.0000  1.6305 )  

     reciprocal axes: (cart. coord. in units 2 pi/alat)
               b(1) = (  1.0000  0.5774  0.0000 )  
               b(2) = (  0.0000  1.1547  0.0000 )  
               b(3) = (  0.0000  0.0000  0.6133 )  


     Atoms inside the unit cell: 

     Cartesian axes

     site n.  atom      mass           positions (alat units)
        1     Na  22.9900   tau(    1) = (    0.00000    0.00000    0.00000  )
        2     Na  22.9900   tau(    2) = (    0.50000    0.28868    0.81523  )

     Computing dynamical matrix for 
                    q = (   0.0000000   0.2886751  -0.3066619 )
 
      4 Sym.Ops. (no q -> -q+G )


     G cutoff =  402.8733  (   5987 G-vectors)     FFT grid: ( 45, 45, 72)
     G cutoff =  201.4366  (   2119 G-vectors)  smooth grid: ( 30, 30, 48)

     number of k points=  3600  Marzari-Vanderbilt smearing, width (Ry)=  0.0200

     PseudoPot. # 1 for Na read from file:
     ./Na_pbe_v1.uspp.F.UPF
     MD5 check sum: 76a99c7e9422403d3e93cbc85ab7bccb
     Pseudo is Ultrasoft, Zval =  9.0
     Generated by new atomic code, or converted to UPF format
     Using radial grid of  819 points,  5 beta functions with: 
                l(1) =   0
                l(2) =   0
                l(3) =   1
                l(4) =   1
                l(5) =   2
     Q(r) pseudized with  8 coefficients,  rinner =    1.250   1.250   1.250
                                                       1.250   1.250

     Mode symmetry, C_2v (mm2)  point group:


     Atomic displacements:
     There are   6 irreducible representations

     Representation     1      1 modes -A_1  D_1  S_1  To be done

     Representation     2      1 modes -A_1  D_1  S_1  To be done

     Representation     3      1 modes -A_2  D_2  S_2  To be done

     Representation     4      1 modes -B_1  D_3  S_3  To be done

     Representation     5      1 modes -B_2  D_4  S_4  To be done

     Representation     6      1 modes -B_2  D_4  S_4  To be done



     Alpha used in Ewald sum =   2.8000
     PHONON       : 30m18.73s CPU    32m22.29s WALL



     Representation #  1 mode #   1

     Self-consistent Calculation

      iter #   1 total cpu time :  1944.3 secs   av.it.:   5.6
      thresh= 1.000E-02 alpha_mix =  0.700 |ddv_scf|^2 =  5.836E-05

      iter #   2 total cpu time :  1951.7 secs   av.it.:   7.9
      thresh= 7.640E-04 alpha_mix =  0.700 |ddv_scf|^2 =  3.211E-04

      iter #   3 total cpu time :  1959.5 secs   av.it.:   6.7
      thresh= 1.792E-03 alpha_mix =  0.700 |ddv_scf|^2 =  3.946E-08

      iter #   4 total cpu time :  1965.7 secs   av.it.:   8.8
      thresh= 1.986E-05 alpha_mix =  0.700 |ddv_scf|^2 =  1.982E-09

      iter #   5 total cpu time :  1977.4 secs   av.it.:   8.9
      thresh= 4.452E-06 alpha_mix =  0.700 |ddv_scf|^2 =  7.527E-11

      iter #   6 total cpu time :  1982.3 secs   av.it.:   9.1
      thresh= 8.676E-07 alpha_mix =  0.700 |ddv_scf|^2 =  3.482E-12

      iter #   7 total cpu time :  1990.4 secs   av.it.:   8.8
      thresh= 1.866E-07 alpha_mix =  0.700 |ddv_scf|^2 =  2.244E-12

      iter #   8 total cpu time :  1996.3 secs   av.it.:   7.7
      thresh= 1.498E-07 alpha_mix =  0.700 |ddv_scf|^2 =  2.024E-12

      iter #   9 total cpu time :  2003.3 secs   av.it.:   7.6
      thresh= 1.423E-07 alpha_mix =  0.700 |ddv_scf|^2 =  3.993E-13

      iter #  10 total cpu time :  2010.9 secs   av.it.:   7.5
      thresh= 6.319E-08 alpha_mix =  0.700 |ddv_scf|^2 =  4.462E-16

     End of self-consistent calculation

     Convergence has been achieved 


     Representation #  2 mode #   2

     Self-consistent Calculation

      iter #   1 total cpu time :  2014.4 secs   av.it.:   5.7
      thresh= 1.000E-02 alpha_mix =  0.700 |ddv_scf|^2 =  6.547E-05

      iter #   2 total cpu time :  2021.4 secs   av.it.:   7.8
      thresh= 8.092E-04 alpha_mix =  0.700 |ddv_scf|^2 =  3.646E-04

      iter #   3 total cpu time :  2028.2 secs   av.it.:   6.7
      thresh= 1.910E-03 alpha_mix =  0.700 |ddv_scf|^2 =  5.170E-08

      iter #   4 total cpu time :  2033.7 secs   av.it.:   8.8
      thresh= 2.274E-05 alpha_mix =  0.700 |ddv_scf|^2 =  1.816E-09

      iter #   5 total cpu time :  2041.1 secs   av.it.:   8.9
      thresh= 4.262E-06 alpha_mix =  0.700 |ddv_scf|^2 =  9.793E-11

      iter #   6 total cpu time :  2047.3 secs   av.it.:   9.1
      thresh= 9.896E-07 alpha_mix =  0.700 |ddv_scf|^2 =  3.334E-12

      iter #   7 total cpu time :  2052.6 secs   av.it.:   8.8
      thresh= 1.826E-07 alpha_mix =  0.700 |ddv_scf|^2 =  2.391E-12

      iter #   8 total cpu time :  2059.9 secs   av.it.:   7.7
      thresh= 1.546E-07 alpha_mix =  0.700 |ddv_scf|^2 =  1.257E-12

      iter #   9 total cpu time :  2065.6 secs   av.it.:   7.6
      thresh= 1.121E-07 alpha_mix =  0.700 |ddv_scf|^2 =  2.297E-13

      iter #  10 total cpu time :  2069.7 secs   av.it.:   7.5
      thresh= 4.793E-08 alpha_mix =  0.700 |ddv_scf|^2 =  7.520E-16

     End of self-consistent calculation

     Convergence has been achieved 


     Representation #  3 mode #   3

     Self-consistent Calculation

      iter #   1 total cpu time :  2082.8 secs   av.it.:   5.3
      thresh= 1.000E-02 alpha_mix =  0.700 |ddv_scf|^2 =  3.149E-06

[...]
      iter #   4 total cpu time :  4287.0 secs   av.it.:   8.5
      thresh= 1.188E-05 alpha_mix =  0.700 |ddv_scf|^2 =  1.172E-09

      iter #   5 total cpu time :  4294.6 secs   av.it.:   8.6
      thresh= 3.424E-06 alpha_mix =  0.700 |ddv_scf|^2 =  1.440E-11

      iter #   6 total cpu time :  4301.9 secs   av.it.:   8.5
      thresh= 3.795E-07 alpha_mix =  0.700 |ddv_scf|^2 =  8.011E-13

      iter #   7 total cpu time :  4309.8 secs   av.it.:   8.8
      thresh= 8.951E-08 alpha_mix =  0.700 |ddv_scf|^2 =  1.936E-14

      iter #   8 total cpu time :  4317.9 secs   av.it.:   8.9
      thresh= 1.391E-08 alpha_mix =  0.700 |ddv_scf|^2 =  4.095E-16

     End of self-consistent calculation

     Convergence has been achieved 
 
     Number of q in the star =   12
     List of q in the star:
          1   0.250000000   0.433012702   0.153330962
          2   0.250000000   0.433012702  -0.153330962
          3  -0.250000000   0.433012702   0.153330962
          4   0.250000000  -0.433012702  -0.153330962
          5  -0.250000000   0.433012702  -0.153330962
          6  -0.250000000  -0.433012702  -0.153330962
          7   0.500000000   0.000000000   0.153330962
          8   0.250000000  -0.433012702   0.153330962
          9  -0.500000000   0.000000000   0.153330962
         10  -0.250000000  -0.433012702   0.153330962
         11  -0.500000000   0.000000000  -0.153330962
         12   0.500000000   0.000000000  -0.153330962

     Diagonalizing the dynamical matrix

     q = (    0.250000000   0.433012702   0.153330962 ) 

 **************************************************************************
     freq (    1) =       1.940657 [THz] =      64.733347 [cm-1]
     freq (    2) =       2.425255 [THz] =      80.897795 [cm-1]
     freq (    3) =       3.003186 [THz] =     100.175489 [cm-1]
     freq (    4) =       3.029354 [THz] =     101.048365 [cm-1]
     freq (    5) =       3.553558 [THz] =     118.533951 [cm-1]
     freq (    6) =       3.714972 [THz] =     123.918124 [cm-1]
 **************************************************************************

     Mode symmetry, C_s (m)     point group:

     freq (  1 -  1) =         64.7  [cm-1]   --> A'                 
     freq (  2 -  2) =         80.9  [cm-1]   --> A''                
     freq (  3 -  3) =        100.2  [cm-1]   --> A''                
     freq (  4 -  4) =        101.0  [cm-1]   --> A'                 
     freq (  5 -  5) =        118.5  [cm-1]   --> A'                 
     freq (  6 -  6) =        123.9  [cm-1]   --> A''                

     Calculation of q =    0.2500000   0.4330127  -0.3066619
 
     Parallelization info
     --------------------
     sticks:   dense  smooth     PW     G-vecs:    dense   smooth      PW
     Min         137      69     23                 5985     2102     421
     Max         138      70     24                 5987     2126     428
     Sum        1099     559    187                47891    16901    3393
 


     bravais-lattice index     =            4
     lattice parameter (alat)  =       7.0500  a.u.
     unit-cell volume          =     494.7754 (a.u.)^3
     number of atoms/cell      =            2
     number of atomic types    =            1
     number of electrons       =        18.00
     number of Kohn-Sham states=           13
     kinetic-energy cutoff     =      40.0000  Ry
     charge density cutoff     =     320.0000  Ry
     Exchange-correlation      = SLA  PW   PBE  PBE ( 1  4  3  4 0 0)

     celldm(1)=   7.050000  celldm(2)=   0.000000  celldm(3)=   1.630460
     celldm(4)=   0.000000  celldm(5)=   0.000000  celldm(6)=   0.000000

     crystal axes: (cart. coord. in units of alat)
               a(1) = (   1.000000   0.000000   0.000000 )  
               a(2) = (  -0.500000   0.866025   0.000000 )  
               a(3) = (   0.000000   0.000000   1.630460 )  

     reciprocal axes: (cart. coord. in units 2 pi/alat)
               b(1) = (  1.000000  0.577350  0.000000 )  
               b(2) = (  0.000000  1.154701  0.000000 )  
               b(3) = (  0.000000  0.000000  0.613324 )  


     PseudoPot. # 1 for Na read from file:
     ./Na_pbe_v1.uspp.F.UPF
     MD5 check sum: 76a99c7e9422403d3e93cbc85ab7bccb
     Pseudo is Ultrasoft, Zval =  9.0
     Generated by new atomic code, or converted to UPF format
     Using radial grid of  819 points,  5 beta functions with: 
                l(1) =   0
                l(2) =   0
                l(3) =   1
                l(4) =   1
                l(5) =   2
     Q(r) pseudized with  8 coefficients,  rinner =    1.250   1.250   1.250
                                                       1.250   1.250

     atomic species   valence    mass     pseudopotential
        Na             9.00    22.99000     Na( 1.00)

     24 Sym. Ops., with inversion, found



   Cartesian axes

     site n.     atom                  positions (alat units)
         1           Na  tau(   1) = (   0.0000000   0.0000000   0.0000000  )
         2           Na  tau(   2) = (   0.5000000   0.2886751   0.8152300  )

     number of k points=  3600  Marzari-Vanderbilt smearing, width (Ry)=  0.0200

     Number of k-points >= 100: set verbosity='high' to print them.

     Dense  grid:    47891 G-vectors     FFT dimensions: (  45,  45,  72)

     Smooth grid:    16901 G-vectors     FFT dimensions: (  30,  30,  48)

     Largest allocated arrays     est. size (Mb)     dimensions
        Kohn-Sham Wavefunctions         0.06 Mb     (     279,   13)
        NL pseudopotentials             0.11 Mb     (     279,   26)
        Each V/rho on FFT grid          0.28 Mb     (   18225)
        Each G-vector array             0.05 Mb     (    5987)
        G-vector shells                 0.01 Mb     (    1754)
     Largest temporary arrays     est. size (Mb)     dimensions
        Auxiliary wavefunctions         0.22 Mb     (     279,   52)
        Each subspace H/S matrix        0.01 Mb     (      26,   26)
        Each <psi_i|beta_j> matrix      0.01 Mb     (      26,   13)

     The potential is recalculated from file :
     ./na_hcp_7.05/_ph0/na_hcp_7.05.save/charge-density.dat

     Starting wfc are   10 atomic +    3 random wfc

     Band Structure Calculation
     Davidson diagonalization with overlap

     ethr =  5.56E-11,  avg # of iterations = 22.6

     total cpu time spent up to now is      263.1 secs

     End of band structure calculation

     Number of k-points >= 100: set verbosity='high' to print the bands.

     the Fermi energy is     1.6507 ev

     Writing output data file na_hcp_7.05.save

                                                                                

     bravais-lattice index     =            4
     lattice parameter (alat)  =       7.0500  a.u.
     unit-cell volume          =     494.7754 (a.u.)^3
     number of atoms/cell      =            2
     number of atomic types    =            1
     kinetic-energy cut-off    =      40.0000  Ry
     charge density cut-off    =     320.0000  Ry
     convergence threshold     =      1.0E-15
     beta                      =       0.7000
     number of iterations used =            4
     Exchange-correlation      = SLA  PW   PBE  PBE ( 1  4  3  4 0 0)


     celldm(1)=    7.05000  celldm(2)=    0.00000  celldm(3)=    1.63046
     celldm(4)=    0.00000  celldm(5)=    0.00000  celldm(6)=    0.00000

     crystal axes: (cart. coord. in units of alat)
               a(1) = (  1.0000  0.0000  0.0000 )  
               a(2) = ( -0.5000  0.8660  0.0000 )  
               a(3) = (  0.0000  0.0000  1.6305 )  

     reciprocal axes: (cart. coord. in units 2 pi/alat)
               b(1) = (  1.0000  0.5774  0.0000 )  
               b(2) = (  0.0000  1.1547  0.0000 )  
               b(3) = (  0.0000  0.0000  0.6133 )  


     Atoms inside the unit cell: 

     Cartesian axes

     site n.  atom      mass           positions (alat units)
        1     Na  22.9900   tau(    1) = (    0.00000    0.00000    0.00000  )
        2     Na  22.9900   tau(    2) = (    0.50000    0.28868    0.81523  )

     Computing dynamical matrix for 
                    q = (   0.2500000   0.4330127  -0.3066619 )
 
      4 Sym.Ops. (no q -> -q+G )


     G cutoff =  402.8733  (   5987 G-vectors)     FFT grid: ( 45, 45, 72)
     G cutoff =  201.4366  (   2107 G-vectors)  smooth grid: ( 30, 30, 48)

     number of k points=  3600  Marzari-Vanderbilt smearing, width (Ry)=  0.0200

     PseudoPot. # 1 for Na read from file:
     ./Na_pbe_v1.uspp.F.UPF
     MD5 check sum: 76a99c7e9422403d3e93cbc85ab7bccb
     Pseudo is Ultrasoft, Zval =  9.0
     Generated by new atomic code, or converted to UPF format
     Using radial grid of  819 points,  5 beta functions with: 
                l(1) =   0
                l(2) =   0
                l(3) =   1
                l(4) =   1
                l(5) =   2
     Q(r) pseudized with  8 coefficients,  rinner =    1.250   1.250   1.250
                                                       1.250   1.250


     Atomic displacements:
     There are   3 irreducible representations

     Representation     1      2 modes -  To be done

     Representation     2      2 modes -  To be done

     Representation     3      2 modes -  To be done



     Alpha used in Ewald sum =   2.8000
     PHONON       :     1h 7m CPU        1h12m WALL



     Representation #  1 modes #   1  2

     Self-consistent Calculation

      iter #   1 total cpu time :  4370.7 secs   av.it.:   5.7
      thresh= 1.000E-02 alpha_mix =  0.700 |ddv_scf|^2 =  2.967E-06

      iter #   2 total cpu time :  4381.3 secs   av.it.:   9.0
      thresh= 1.722E-04 alpha_mix =  0.700 |ddv_scf|^2 =  1.660E-06

      iter #   3 total cpu time :  4390.0 secs   av.it.:   8.1
      thresh= 1.289E-04 alpha_mix =  0.700 |ddv_scf|^2 =  1.096E-08

      iter #   4 total cpu time :  4400.1 secs   av.it.:   9.3
      thresh= 1.047E-05 alpha_mix =  0.700 |ddv_scf|^2 =  3.014E-10

      iter #   5 total cpu time :  4412.8 secs   av.it.:   9.6
      thresh= 1.736E-06 alpha_mix =  0.700 |ddv_scf|^2 =  1.651E-11

      iter #   6 total cpu time :  4424.5 secs   av.it.:   9.8
      thresh= 4.063E-07 alpha_mix =  0.700 |ddv_scf|^2 =  1.119E-12

      iter #   7 total cpu time :  4449.0 secs   av.it.:   9.8
      thresh= 1.058E-07 alpha_mix =  0.700 |ddv_scf|^2 =  1.210E-14

      iter #   8 total cpu time :  4467.3 secs   av.it.:   9.5
      thresh= 1.100E-08 alpha_mix =  0.700 |ddv_scf|^2 =  3.099E-16

     End of self-consistent calculation

     Convergence has been achieved 


     Representation #  2 modes #   3  4

     Self-consistent Calculation

      iter #   1 total cpu time :  4481.0 secs   av.it.:   5.7
      thresh= 1.000E-02 alpha_mix =  0.700 |ddv_scf|^2 =  2.296E-06

      iter #   2 total cpu time :  4491.1 secs   av.it.:   8.9
      thresh= 1.515E-04 alpha_mix =  0.700 |ddv_scf|^2 =  1.150E-06

      iter #   3 total cpu time :  4500.4 secs   av.it.:   8.2
      thresh= 1.072E-04 alpha_mix =  0.700 |ddv_scf|^2 =  1.322E-08

      iter #   4 total cpu time :  4515.4 secs   av.it.:   9.2
      thresh= 1.150E-05 alpha_mix =  0.700 |ddv_scf|^2 =  2.881E-10

      iter #   5 total cpu time :  4526.2 secs   av.it.:   9.4
      thresh= 1.697E-06 alpha_mix =  0.700 |ddv_scf|^2 =  2.126E-11

      iter #   6 total cpu time :  4535.8 secs   av.it.:   9.5
      thresh= 4.610E-07 alpha_mix =  0.700 |ddv_scf|^2 =  7.896E-13

      iter #   7 total cpu time :  4546.8 secs   av.it.:  10.0
      thresh= 8.886E-08 alpha_mix =  0.700 |ddv_scf|^2 =  1.473E-14

      iter #   8 total cpu time :  4560.0 secs   av.it.:   9.8
      thresh= 1.214E-08 alpha_mix =  0.700 |ddv_scf|^2 =  8.897E-16

     End of self-consistent calculation

     Convergence has been achieved 


     Representation #  3 modes #   5  6

     Self-consistent Calculation

      iter #   1 total cpu time :  4585.4 secs   av.it.:   5.7
      thresh= 1.000E-02 alpha_mix =  0.700 |ddv_scf|^2 =  2.188E-06

      iter #   2 total cpu time :  4596.8 secs   av.it.:   9.0
      thresh= 1.479E-04 alpha_mix =  0.700 |ddv_scf|^2 =  8.776E-07

      iter #   3 total cpu time :  4608.3 secs   av.it.:   8.3
      thresh= 9.368E-05 alpha_mix =  0.700 |ddv_scf|^2 =  2.399E-08

      iter #   4 total cpu time :  4619.3 secs   av.it.:   8.9
      thresh= 1.549E-05 alpha_mix =  0.700 |ddv_scf|^2 =  3.975E-10

      iter #   5 total cpu time :  4631.5 secs   av.it.:   9.5
      thresh= 1.994E-06 alpha_mix =  0.700 |ddv_scf|^2 =  1.057E-11

      iter #   6 total cpu time :  4641.7 secs   av.it.:   9.7
      thresh= 3.251E-07 alpha_mix =  0.700 |ddv_scf|^2 =  8.267E-13

      iter #   7 total cpu time :  4651.8 secs   av.it.:   9.9
      thresh= 9.092E-08 alpha_mix =  0.700 |ddv_scf|^2 =  1.979E-14

      iter #   8 total cpu time :  4661.9 secs   av.it.:   9.9
      thresh= 1.407E-08 alpha_mix =  0.700 |ddv_scf|^2 =  2.128E-16

     End of self-consistent calculation

     Convergence has been achieved 
 
     Number of q in the star =    6
     List of q in the star:
          1   0.250000000   0.433012702  -0.306661924
          2  -0.250000000   0.433012702  -0.306661924
          3   0.250000000  -0.433012702   0.306661924
          4  -0.250000000  -0.433012702   0.306661924
          5   0.500000000   0.000000000  -0.306661924
          6  -0.500000000   0.000000000  -0.306661924

     Diagonalizing the dynamical matrix

     q = (    0.250000000   0.433012702  -0.306661924 ) 

 **************************************************************************
     freq (    1) =       2.037598 [THz] =      67.966938 [cm-1]
     freq (    2) =       2.037598 [THz] =      67.966938 [cm-1]
     freq (    3) =       3.040060 [THz] =     101.405479 [cm-1]
     freq (    4) =       3.040060 [THz] =     101.405479 [cm-1]
     freq (    5) =       3.769993 [THz] =     125.753420 [cm-1]
     freq (    6) =       3.769993 [THz] =     125.753420 [cm-1]
 **************************************************************************
 
     init_run     :      1.50s CPU      1.67s WALL (      11 calls)
     electrons    :    208.26s CPU    213.10s WALL (      11 calls)

     Called by init_run:
     wfcinit      :      0.00s CPU      0.11s WALL (      11 calls)
     potinit      :      0.24s CPU      0.31s WALL (      11 calls)

     Called by electrons:
     c_bands      :    208.21s CPU    213.05s WALL (      11 calls)
     v_of_rho     :      0.11s CPU      0.12s WALL (      12 calls)
     newd         :      0.13s CPU      0.14s WALL (      12 calls)

     Called by c_bands:
     init_us_2    :      3.14s CPU      3.39s WALL (   48132 calls)
     cegterg      :     73.64s CPU     75.35s WALL (    3020 calls)

     Called by sum_band:

     Called by *egterg:
     h_psi        :     43.52s CPU     44.31s WALL (   49121 calls)
     s_psi        :     44.49s CPU     46.11s WALL ( 1180902 calls)
     g_psi        :      0.40s CPU      0.45s WALL (   44489 calls)
     cdiaghg      :     20.79s CPU     21.42s WALL (   46101 calls)

     Called by h_psi:
     add_vuspsi   :     26.79s CPU     27.93s WALL (  593828 calls)

     General routines
     calbec       :     73.85s CPU     77.16s WALL ( 1259437 calls)
     fft          :      2.93s CPU      2.97s WALL (    8991 calls)
     ffts         :      2.28s CPU      2.29s WALL (    7231 calls)
     fftw         :   1648.00s CPU   1679.29s WALL ( 9199794 calls)
     interpolate  :      0.68s CPU      0.74s WALL (    1239 calls)
     davcio       :      9.87s CPU    205.08s WALL (  215785 calls)
 
     Parallel routines
     fft_scatter  :   1276.43s CPU   1290.86s WALL ( 9216016 calls)
 
     PHONON       :     1h12m CPU        1h17m WALL

     INITIALIZATION: 
     phq_setup    :      0.38s CPU      0.70s WALL (      12 calls)
     phq_init     :     25.40s CPU     26.12s WALL (      12 calls)
 
     phq_init     :     25.40s CPU     26.12s WALL (      12 calls)
     init_vloc    :      0.12s CPU      0.13s WALL (      12 calls)
     init_us_1    :      0.45s CPU      0.45s WALL (      12 calls)
     newd         :      0.13s CPU      0.14s WALL (      12 calls)
     dvanqq       :      1.42s CPU      1.42s WALL (      12 calls)
     drho         :     17.71s CPU     18.15s WALL (      12 calls)
 
     DYNAMICAL MATRIX:
     dynmat0      :      5.07s CPU      5.24s WALL (      12 calls)
     phqscf       :   4065.11s CPU   4348.38s WALL (      12 calls)
     dynmatrix    :      5.30s CPU      5.49s WALL (      12 calls)
 
     phqscf       :   4065.11s CPU   4348.38s WALL (      12 calls)
     solve_linter :   4062.45s CPU   4340.92s WALL (      58 calls)
     drhodv       :      2.54s CPU      2.82s WALL (      58 calls)
 
     dynmat0      :      5.07s CPU      5.24s WALL (      12 calls)
     dynmat_us    :      5.02s CPU      5.08s WALL (      12 calls)
     d2ionq       :      0.02s CPU      0.03s WALL (      12 calls)
 
     dynmat_us    :      5.02s CPU      5.08s WALL (      12 calls)
     addusdynmat  :      0.00s CPU      0.00s WALL (      12 calls)
 
     phqscf       :   4065.11s CPU   4348.38s WALL (      12 calls)
     solve_linter :   4062.45s CPU   4340.92s WALL (      58 calls)
 
     solve_linter :   4062.45s CPU   4340.92s WALL (      58 calls)
     dvqpsi_us    :     13.69s CPU     14.40s WALL (    4932 calls)
     ortho        :     67.73s CPU     68.59s WALL (   42367 calls)
     cgsolve      :    676.62s CPU    705.61s WALL (   42367 calls)
     incdrhoscf   :   1180.10s CPU   1189.15s WALL (   42367 calls)
     addusddens   :      7.70s CPU      7.77s WALL (     535 calls)
     vpsifft      :     45.13s CPU     48.88s WALL (   37435 calls)
     dv_of_drho   :      3.70s CPU      3.67s WALL (     570 calls)
     mix_pot      :      8.99s CPU     19.73s WALL (     477 calls)
     ef_shift     :      0.03s CPU      0.69s WALL (      29 calls)
     localdos     :     11.92s CPU     11.99s WALL (       4 calls)
     psymdvscf    :     28.61s CPU     28.71s WALL (     477 calls)
     newdq        :      7.43s CPU      7.38s WALL (     477 calls)
     adddvscf     :      3.28s CPU      3.50s WALL (   37435 calls)
     drhodvus     :      0.07s CPU      0.07s WALL (      58 calls)
 
     dvqpsi_us    :     13.69s CPU     14.40s WALL (    4932 calls)
     dvqpsi_us_on :      3.64s CPU      3.80s WALL (    4932 calls)
 
     cgsolve      :    676.62s CPU    705.61s WALL (   42367 calls)
     ch_psi       :    652.58s CPU    680.54s WALL (  544707 calls)
 
     ch_psi       :    652.58s CPU    680.54s WALL (  544707 calls)
     h_psiq       :    568.61s CPU    593.06s WALL (  544707 calls)
     last         :     80.24s CPU     83.81s WALL (  544707 calls)
 
     h_psiq       :    568.61s CPU    593.06s WALL (  544707 calls)
     firstfft     :    267.37s CPU    279.36s WALL ( 3462006 calls)
     secondfft    :    197.37s CPU    205.98s WALL ( 3462006 calls)
     add_vuspsi   :     26.79s CPU     27.93s WALL (  593828 calls)
 
     incdrhoscf   :   1180.10s CPU   1189.15s WALL (   42367 calls)
     addusdbec    :      4.14s CPU      4.41s WALL (   47299 calls)
 
     drhodvus     :      0.07s CPU      0.07s WALL (      58 calls)
 
      General routines
     calbec       :     73.85s CPU     77.16s WALL ( 1259437 calls)
     fft          :      2.93s CPU      2.97s WALL (    8991 calls)
     ffts         :      2.28s CPU      2.29s WALL (    7231 calls)
     fftw         :   1648.00s CPU   1679.29s WALL ( 9199794 calls)
     davcio       :      9.87s CPU    205.08s WALL (  215785 calls)
     write_rec    :      0.84s CPU     31.21s WALL (     535 calls)
 
 
     PHONON       :     1h12m CPU        1h17m WALL

 
   This run was terminated on:  18:51:52  28Mar2018            

=------------------------------------------------------------------------------=
   JOB DONE.
=------------------------------------------------------------------------------=
Application 30382910 resources: utime ~839328s, stime ~8338s, Rss ~59000, inblocks ~3925284511, outblocks ~1361579835
