
     Program PHONON v.5.4.0 starts on 28Mar2018 at 23:50:53 

     This program is part of the open-source Quantum ESPRESSO suite
     for quantum simulation of materials; please cite
         "P. Giannozzi et al., J. Phys.:Condens. Matter 21 395502 (2009);
          URL http://www.quantum-espresso.org", 
     in publications or presentations arising from this work. More details at
     http://www.quantum-espresso.org/quote

     Parallel version (MPI & OpenMP), running on     192 processor cores
     Number of MPI processes:               192
     Threads/MPI process:                     1
     K-points division:     npool     =      24
     R & G space division:  proc/nbgrp/npool/nimage =       8

     Reading data from directory:
     ./na_hcp_7.14/na_hcp_7.14.save

   Info: using nr1, nr2, nr3 values from input

   Info: using nr1, nr2, nr3 values from input

     IMPORTANT: XC functional enforced from input :
     Exchange-correlation      = SLA  PW   PBE  PBE ( 1  4  3  4 0 0)
     Any further DFT definition will be discarded
     Please, verify this is what you really want

 
     Parallelization info
     --------------------
     sticks:   dense  smooth     PW     G-vecs:    dense   smooth      PW
     Min         141      69     20                 6214     2180     356
     Max         142      70     21                 6216     2200     363
     Sum        1135     559    163                49717    17525    2875
 


     Dynamical matrices for ( 4, 4, 4)  uniform grid of q-points
     (  12q-points):
       N         xq(1)         xq(2)         xq(3) 
       1   0.000000000   0.000000000   0.000000000
       2   0.000000000   0.000000000   0.153330962
       3   0.000000000   0.000000000  -0.306661924
       4   0.000000000   0.288675135   0.000000000
       5   0.000000000   0.288675135   0.153330962
       6   0.000000000   0.288675135  -0.306661924
       7   0.000000000  -0.577350269   0.000000000
       8   0.000000000  -0.577350269   0.153330962
       9   0.000000000  -0.577350269  -0.306661924
      10   0.250000000   0.433012702   0.000000000
      11   0.250000000   0.433012702   0.153330962
      12   0.250000000   0.433012702  -0.306661924

     Calculation of q =    0.0000000   0.0000000   0.0000000

                                                                                

     bravais-lattice index     =            4
     lattice parameter (alat)  =       7.1400  a.u.
     unit-cell volume          =     513.9672 (a.u.)^3
     number of atoms/cell      =            2
     number of atomic types    =            1
     kinetic-energy cut-off    =      40.0000  Ry
     charge density cut-off    =     320.0000  Ry
     convergence threshold     =      1.0E-15
     beta                      =       0.7000
     number of iterations used =            4
     Exchange-correlation      = SLA  PW   PBE  PBE ( 1  4  3  4 0 0)


     celldm(1)=    7.14000  celldm(2)=    0.00000  celldm(3)=    1.63046
     celldm(4)=    0.00000  celldm(5)=    0.00000  celldm(6)=    0.00000

     crystal axes: (cart. coord. in units of alat)
               a(1) = (  1.0000  0.0000  0.0000 )  
               a(2) = ( -0.5000  0.8660  0.0000 )  
               a(3) = (  0.0000  0.0000  1.6305 )  

     reciprocal axes: (cart. coord. in units 2 pi/alat)
               b(1) = (  1.0000  0.5774  0.0000 )  
               b(2) = (  0.0000  1.1547  0.0000 )  
               b(3) = (  0.0000  0.0000  0.6133 )  


     Atoms inside the unit cell: 

     Cartesian axes

     site n.  atom      mass           positions (alat units)
        1     Na  22.9900   tau(    1) = (    0.00000    0.00000    0.00000  )
        2     Na  22.9900   tau(    2) = (    0.50000    0.28868    0.81523  )

     Computing dynamical matrix for 
                    q = (   0.0000000   0.0000000   0.0000000 )
 
     25 Sym.Ops. (with q -> -q+G )


     G cutoff =  413.2251  (   6215 G-vectors)     FFT grid: ( 45, 45, 72)
     G cutoff =  206.6125  (   2200 G-vectors)  smooth grid: ( 30, 30, 48)

     number of k points=   366  Marzari-Vanderbilt smearing, width (Ry)=  0.0200

     PseudoPot. # 1 for Na read from file:
     ./Na_pbe_v1.uspp.F.UPF
     MD5 check sum: 76a99c7e9422403d3e93cbc85ab7bccb
     Pseudo is Ultrasoft, Zval =  9.0
     Generated by new atomic code, or converted to UPF format
     Using radial grid of  819 points,  5 beta functions with: 
                l(1) =   0
                l(2) =   0
                l(3) =   1
                l(4) =   1
                l(5) =   2
     Q(r) pseudized with  8 coefficients,  rinner =    1.250   1.250   1.250
                                                       1.250   1.250

     Mode symmetry, D_6h(6/mmm) point group:


     Atomic displacements:
     There are   4 irreducible representations

     Representation     1      1 modes -B_1g  To be done

     Representation     2      2 modes -E_2g  To be done

     Representation     3      1 modes -A_2u  To be done

     Representation     4      2 modes -E_1u  To be done



     Alpha used in Ewald sum =   2.8000
     PHONON       :     5.39s CPU         8.35s WALL



     Representation #  1 mode #   1

     Self-consistent Calculation
 
     Pert. #  1: Fermi energy shift (Ry) =     0.0000E+00     0.0000E+00

      iter #   1 total cpu time :     9.1 secs   av.it.:   5.4
      thresh= 1.000E-02 alpha_mix =  0.700 |ddv_scf|^2 =  2.745E-05
 
     Pert. #  1: Fermi energy shift (Ry) =     0.0000E+00     0.0000E+00

      iter #   2 total cpu time :     9.7 secs   av.it.:   7.2
      thresh= 5.239E-04 alpha_mix =  0.700 |ddv_scf|^2 =  1.706E-05
 
     Pert. #  1: Fermi energy shift (Ry) =     0.0000E+00     0.0000E+00

      iter #   3 total cpu time :    10.8 secs   av.it.:   6.9
      thresh= 4.130E-04 alpha_mix =  0.700 |ddv_scf|^2 =  2.165E-08
 
     Pert. #  1: Fermi energy shift (Ry) =     1.4117E-22     1.5306E-41

      iter #   4 total cpu time :    11.6 secs   av.it.:   8.3
      thresh= 1.471E-05 alpha_mix =  0.700 |ddv_scf|^2 =  8.771E-11
 
     Pert. #  1: Fermi energy shift (Ry) =     0.0000E+00     4.7831E-43

      iter #   5 total cpu time :    12.2 secs   av.it.:   7.3
      thresh= 9.365E-07 alpha_mix =  0.700 |ddv_scf|^2 =  1.743E-12
 
     Pert. #  1: Fermi energy shift (Ry) =     0.0000E+00     0.0000E+00

      iter #   6 total cpu time :    13.0 secs   av.it.:   7.2
      thresh= 1.320E-07 alpha_mix =  0.700 |ddv_scf|^2 =  4.935E-15
 
     Pert. #  1: Fermi energy shift (Ry) =     0.0000E+00     1.1958E-43

      iter #   7 total cpu time :    13.7 secs   av.it.:   8.1
      thresh= 7.025E-09 alpha_mix =  0.700 |ddv_scf|^2 =  1.346E-17

     End of self-consistent calculation

     Convergence has been achieved 


     Representation #  2 modes #   2  3

     Self-consistent Calculation
 
     Pert. #  1: Fermi energy shift (Ry) =     4.0522E-20    -1.1439E-41
     Pert. #  2: Fermi energy shift (Ry) =     4.3368E-19    -7.6530E-41

      iter #   1 total cpu time :    15.5 secs   av.it.:   5.1
      thresh= 1.000E-02 alpha_mix =  0.700 |ddv_scf|^2 =  7.322E-07
 
     Pert. #  1: Fermi energy shift (Ry) =     4.0018E-21    -7.7345E-42
     Pert. #  2: Fermi energy shift (Ry) =    -4.5175E-21     7.6530E-41

      iter #   2 total cpu time :    28.3 secs   av.it.:   8.6
      thresh= 8.557E-05 alpha_mix =  0.700 |ddv_scf|^2 =  1.261E-08
 
     Pert. #  1: Fermi energy shift (Ry) =    -3.9587E-21    -4.4417E-44
     Pert. #  2: Fermi energy shift (Ry) =     6.7763E-21     1.1958E-43

      iter #   3 total cpu time :    30.6 secs   av.it.:   8.8
      thresh= 1.123E-05 alpha_mix =  0.700 |ddv_scf|^2 =  4.318E-10
 
     Pert. #  1: Fermi energy shift (Ry) =    -1.6994E-21    -1.7767E-43
     Pert. #  2: Fermi energy shift (Ry) =     5.6469E-21     4.7831E-43

      iter #   4 total cpu time :    32.9 secs   av.it.:   8.4
      thresh= 2.078E-06 alpha_mix =  0.700 |ddv_scf|^2 =  1.421E-12
 
     Pert. #  1: Fermi energy shift (Ry) =    -5.6519E-21     1.5106E-44
     Pert. #  2: Fermi energy shift (Ry) =    -1.1294E-20    -1.4947E-43

      iter #   5 total cpu time :    35.2 secs   av.it.:   8.8
      thresh= 1.192E-07 alpha_mix =  0.700 |ddv_scf|^2 =  2.080E-15
 
     Pert. #  1: Fermi energy shift (Ry) =    -7.9107E-21     8.9723E-44
     Pert. #  2: Fermi energy shift (Ry) =    -9.0350E-21    -1.5695E-43

      iter #   6 total cpu time :    37.5 secs   av.it.:   7.8
      thresh= 4.561E-09 alpha_mix =  0.700 |ddv_scf|^2 =  9.138E-17

     End of self-consistent calculation

     Convergence has been achieved 


     Representation #  3 mode #   4

     Self-consistent Calculation
 
     Pert. #  1: Fermi energy shift (Ry) =     6.8932E-26     5.0154E-37

      iter #   1 total cpu time :    40.0 secs   av.it.:   5.1
      thresh= 1.000E-02 alpha_mix =  0.700 |ddv_scf|^2 =  2.746E-06
 
     Pert. #  1: Fermi energy shift (Ry) =     5.1699E-26    -9.7958E-40

      iter #   2 total cpu time :    41.9 secs   av.it.:   8.0
      thresh= 1.657E-04 alpha_mix =  0.700 |ddv_scf|^2 =  5.146E-08
 
     Pert. #  1: Fermi energy shift (Ry) =     0.0000E+00     4.8979E-40

      iter #   3 total cpu time :    42.6 secs   av.it.:   8.2
      thresh= 2.269E-05 alpha_mix =  0.700 |ddv_scf|^2 =  1.123E-09
 
     Pert. #  1: Fermi energy shift (Ry) =    -6.4623E-27    -1.2245E-40

      iter #   4 total cpu time :    43.2 secs   av.it.:   7.7
      thresh= 3.352E-06 alpha_mix =  0.700 |ddv_scf|^2 =  3.773E-12
 
     Pert. #  1: Fermi energy shift (Ry) =     1.2925E-26    -1.5306E-41

      iter #   5 total cpu time :    43.8 secs   av.it.:   8.2
      thresh= 1.942E-07 alpha_mix =  0.700 |ddv_scf|^2 =  8.214E-15
 
     Pert. #  1: Fermi energy shift (Ry) =     4.3082E-27     7.6530E-42

      iter #   6 total cpu time :    44.8 secs   av.it.:   7.6
      thresh= 9.063E-09 alpha_mix =  0.700 |ddv_scf|^2 =  1.993E-16

     End of self-consistent calculation

     Convergence has been achieved 


     Representation #  4 modes #   5  6

     Self-consistent Calculation
 
     Pert. #  1: Fermi energy shift (Ry) =     5.4123E-24     1.2539E-37
     Pert. #  2: Fermi energy shift (Ry) =     1.1029E-24     2.3510E-37

      iter #   1 total cpu time :    47.3 secs   av.it.:   5.2
      thresh= 1.000E-02 alpha_mix =  0.700 |ddv_scf|^2 =  6.890E-07
 
     Pert. #  1: Fermi energy shift (Ry) =    -1.0691E-24    -9.7958E-40
     Pert. #  2: Fermi energy shift (Ry) =     4.1359E-25    -1.8367E-39

      iter #   2 total cpu time :    49.2 secs   av.it.:   8.7
      thresh= 8.301E-05 alpha_mix =  0.700 |ddv_scf|^2 =  1.282E-08
 
     Pert. #  1: Fermi energy shift (Ry) =    -6.1076E-26    -1.2245E-40
     Pert. #  2: Fermi energy shift (Ry) =    -6.8932E-26    -2.2959E-40

      iter #   3 total cpu time :    50.9 secs   av.it.:   9.0
      thresh= 1.132E-05 alpha_mix =  0.700 |ddv_scf|^2 =  2.922E-10
 
     Pert. #  1: Fermi energy shift (Ry) =    -1.6368E-25    -1.9132E-42
     Pert. #  2: Fermi energy shift (Ry) =     4.1359E-25    -3.5873E-42

      iter #   4 total cpu time :    70.8 secs   av.it.:   8.7
      thresh= 1.709E-06 alpha_mix =  0.700 |ddv_scf|^2 =  9.801E-13
 
     Pert. #  1: Fermi energy shift (Ry) =    -2.6725E-25    -9.2673E-43
     Pert. #  2: Fermi energy shift (Ry) =     1.3786E-25     3.5873E-43

      iter #   5 total cpu time :    73.0 secs   av.it.:   9.1
      thresh= 9.900E-08 alpha_mix =  0.700 |ddv_scf|^2 =  2.002E-15
 
     Pert. #  1: Fermi energy shift (Ry) =    -6.0455E-26    -9.2673E-43
     Pert. #  2: Fermi energy shift (Ry) =    -4.1359E-25     3.5873E-43

      iter #   6 total cpu time :    76.5 secs   av.it.:   8.5
      thresh= 4.475E-09 alpha_mix =  0.700 |ddv_scf|^2 =  4.945E-17

     End of self-consistent calculation

     Convergence has been achieved 
 
     Number of q in the star =    1
     List of q in the star:
          1   0.000000000   0.000000000   0.000000000

     Diagonalizing the dynamical matrix

     q = (    0.000000000   0.000000000   0.000000000 ) 

 **************************************************************************
     freq (    1) =      -0.509304 [THz] =     -16.988566 [cm-1]
     freq (    2) =      -0.398278 [THz] =     -13.285141 [cm-1]
     freq (    3) =      -0.398278 [THz] =     -13.285141 [cm-1]
     freq (    4) =       1.558467 [THz] =      51.984865 [cm-1]
     freq (    5) =       1.558467 [THz] =      51.984865 [cm-1]
     freq (    6) =       3.709309 [THz] =     123.729239 [cm-1]
 **************************************************************************

     Mode symmetry, D_6h(6/mmm) point group:

     freq (  1 -  1) =        -17.0  [cm-1]   --> A_2u            I  
     freq (  2 -  3) =        -13.3  [cm-1]   --> E_1u            I  
     freq (  4 -  5) =         52.0  [cm-1]   --> E_2g            R  
     freq (  6 -  6) =        123.7  [cm-1]   --> B_1g               

     Calculation of q =    0.0000000   0.0000000   0.1533310
 
     Parallelization info
     --------------------
     sticks:   dense  smooth     PW     G-vecs:    dense   smooth      PW
     Min         141      69     20                 6214     2186     372
     Max         142      70     21                 6216     2196     379
     Sum        1135     559    163                49717    17525    2997
 


     bravais-lattice index     =            4
     lattice parameter (alat)  =       7.1400  a.u.
     unit-cell volume          =     513.9672 (a.u.)^3
     number of atoms/cell      =            2
     number of atomic types    =            1
     number of electrons       =        18.00
     number of Kohn-Sham states=           13
     kinetic-energy cutoff     =      40.0000  Ry
     charge density cutoff     =     320.0000  Ry
     Exchange-correlation      = SLA  PW   PBE  PBE ( 1  4  3  4 0 0)

     celldm(1)=   7.140000  celldm(2)=   0.000000  celldm(3)=   1.630460
     celldm(4)=   0.000000  celldm(5)=   0.000000  celldm(6)=   0.000000

     crystal axes: (cart. coord. in units of alat)
               a(1) = (   1.000000   0.000000   0.000000 )  
               a(2) = (  -0.500000   0.866025   0.000000 )  
               a(3) = (   0.000000   0.000000   1.630460 )  

     reciprocal axes: (cart. coord. in units 2 pi/alat)
               b(1) = (  1.000000  0.577350  0.000000 )  
               b(2) = (  0.000000  1.154701  0.000000 )  
               b(3) = (  0.000000  0.000000  0.613324 )  


     PseudoPot. # 1 for Na read from file:
     ./Na_pbe_v1.uspp.F.UPF
     MD5 check sum: 76a99c7e9422403d3e93cbc85ab7bccb
     Pseudo is Ultrasoft, Zval =  9.0
     Generated by new atomic code, or converted to UPF format
     Using radial grid of  819 points,  5 beta functions with: 
                l(1) =   0
                l(2) =   0
                l(3) =   1
                l(4) =   1
                l(5) =   2
     Q(r) pseudized with  8 coefficients,  rinner =    1.250   1.250   1.250
                                                       1.250   1.250

     atomic species   valence    mass     pseudopotential
        Na             9.00    22.99000     Na( 1.00)

     24 Sym. Ops., with inversion, found



   Cartesian axes

     site n.     atom                  positions (alat units)
         1           Na  tau(   1) = (   0.0000000   0.0000000   0.0000000  )
         2           Na  tau(   2) = (   0.5000000   0.2886751   0.8152300  )

     number of k points=  1464  Marzari-Vanderbilt smearing, width (Ry)=  0.0200

     Number of k-points >= 100: set verbosity='high' to print them.

     Dense  grid:    49717 G-vectors     FFT dimensions: (  45,  45,  72)

     Smooth grid:    17525 G-vectors     FFT dimensions: (  30,  30,  48)

     Largest allocated arrays     est. size (Mb)     dimensions
        Kohn-Sham Wavefunctions         0.06 Mb     (     286,   13)
        NL pseudopotentials             0.11 Mb     (     286,   26)
        Each V/rho on FFT grid          0.28 Mb     (   18225)
        Each G-vector array             0.05 Mb     (    6215)
        G-vector shells                 0.01 Mb     (    1811)
     Largest temporary arrays     est. size (Mb)     dimensions
        Auxiliary wavefunctions         0.23 Mb     (     286,   52)
        Each subspace H/S matrix        0.01 Mb     (      26,   26)
        Each <psi_i|beta_j> matrix      0.01 Mb     (      26,   13)

     The potential is recalculated from file :
     ./na_hcp_7.14/_ph0/na_hcp_7.14.save/charge-density.dat

     Starting wfc are   10 atomic +    3 random wfc

     Band Structure Calculation
     Davidson diagonalization with overlap

     ethr =  5.56E-11,  avg # of iterations = 24.0

     total cpu time spent up to now is        4.9 secs

     End of band structure calculation

     Number of k-points >= 100: set verbosity='high' to print the bands.

     the Fermi energy is     1.4938 ev

     Writing output data file na_hcp_7.14.save

                                                                                

     bravais-lattice index     =            4
     lattice parameter (alat)  =       7.1400  a.u.
     unit-cell volume          =     513.9672 (a.u.)^3
     number of atoms/cell      =            2
     number of atomic types    =            1
     kinetic-energy cut-off    =      40.0000  Ry
     charge density cut-off    =     320.0000  Ry
     convergence threshold     =      1.0E-15
     beta                      =       0.7000
     number of iterations used =            4
     Exchange-correlation      = SLA  PW   PBE  PBE ( 1  4  3  4 0 0)


     celldm(1)=    7.14000  celldm(2)=    0.00000  celldm(3)=    1.63046
     celldm(4)=    0.00000  celldm(5)=    0.00000  celldm(6)=    0.00000

     crystal axes: (cart. coord. in units of alat)
               a(1) = (  1.0000  0.0000  0.0000 )  
               a(2) = ( -0.5000  0.8660  0.0000 )  
               a(3) = (  0.0000  0.0000  1.6305 )  

     reciprocal axes: (cart. coord. in units 2 pi/alat)
               b(1) = (  1.0000  0.5774  0.0000 )  
               b(2) = (  0.0000  1.1547  0.0000 )  
               b(3) = (  0.0000  0.0000  0.6133 )  


     Atoms inside the unit cell: 

     Cartesian axes

     site n.  atom      mass           positions (alat units)
        1     Na  22.9900   tau(    1) = (    0.00000    0.00000    0.00000  )
        2     Na  22.9900   tau(    2) = (    0.50000    0.28868    0.81523  )

     Computing dynamical matrix for 
                    q = (   0.0000000   0.0000000   0.1533310 )
 
     12 Sym.Ops. (no q -> -q+G )


     G cutoff =  413.2251  (   6215 G-vectors)     FFT grid: ( 45, 45, 72)
     G cutoff =  206.6125  (   2196 G-vectors)  smooth grid: ( 30, 30, 48)

     number of k points=  1464  Marzari-Vanderbilt smearing, width (Ry)=  0.0200

     PseudoPot. # 1 for Na read from file:
     ./Na_pbe_v1.uspp.F.UPF
     MD5 check sum: 76a99c7e9422403d3e93cbc85ab7bccb
     Pseudo is Ultrasoft, Zval =  9.0
     Generated by new atomic code, or converted to UPF format
     Using radial grid of  819 points,  5 beta functions with: 
                l(1) =   0
                l(2) =   0
                l(3) =   1
                l(4) =   1
                l(5) =   2
     Q(r) pseudized with  8 coefficients,  rinner =    1.250   1.250   1.250
                                                       1.250   1.250

     Mode symmetry, C_6v (6mm)  point group:


     Atomic displacements:
     There are   4 irreducible representations

     Representation     1      1 modes -A_1  To be done

     Representation     2      1 modes -B_2  To be done

     Representation     3      2 modes -E_1  To be done

     Representation     4      2 modes -E_2  To be done



     Alpha used in Ewald sum =   2.8000
     PHONON       :  1m14.04s CPU     1m24.52s WALL



     Representation #  1 mode #   1

     Self-consistent Calculation

      iter #   1 total cpu time :    85.3 secs   av.it.:   5.4
      thresh= 1.000E-02 alpha_mix =  0.700 |ddv_scf|^2 =  4.574E-02

      iter #   2 total cpu time :    88.1 secs   av.it.:   6.8
      thresh= 1.000E-02 alpha_mix =  0.700 |ddv_scf|^2 =  2.583E+01

      iter #   3 total cpu time :    89.7 secs   av.it.:   6.8
      thresh= 1.000E-02 alpha_mix =  0.700 |ddv_scf|^2 =  9.968E-05

      iter #   4 total cpu time :    91.5 secs   av.it.:   5.5
      thresh= 9.984E-04 alpha_mix =  0.700 |ddv_scf|^2 =  3.544E-08

      iter #   5 total cpu time :    98.5 secs   av.it.:   7.7
      thresh= 1.883E-05 alpha_mix =  0.700 |ddv_scf|^2 =  2.729E-09

      iter #   6 total cpu time :   101.3 secs   av.it.:   6.9
      thresh= 5.224E-06 alpha_mix =  0.700 |ddv_scf|^2 =  2.185E-07

      iter #   7 total cpu time :   102.8 secs   av.it.:   5.0
      thresh= 4.675E-05 alpha_mix =  0.700 |ddv_scf|^2 =  1.129E-11

      iter #   8 total cpu time :   105.6 secs   av.it.:   8.4
      thresh= 3.360E-07 alpha_mix =  0.700 |ddv_scf|^2 =  2.734E-13

      iter #   9 total cpu time :   107.1 secs   av.it.:   8.7
      thresh= 5.229E-08 alpha_mix =  0.700 |ddv_scf|^2 =  1.328E-14

      iter #  10 total cpu time :   109.4 secs   av.it.:   8.7
      thresh= 1.152E-08 alpha_mix =  0.700 |ddv_scf|^2 =  1.499E-13

      iter #  11 total cpu time :   111.1 secs   av.it.:   5.6
      thresh= 3.871E-08 alpha_mix =  0.700 |ddv_scf|^2 =  5.563E-14

      iter #  12 total cpu time :   113.1 secs   av.it.:   5.9
      thresh= 2.359E-08 alpha_mix =  0.700 |ddv_scf|^2 =  3.610E-15

      iter #  13 total cpu time :   114.7 secs   av.it.:   5.1
      thresh= 6.008E-09 alpha_mix =  0.700 |ddv_scf|^2 =  6.240E-16

     End of self-consistent calculation

     Convergence has been achieved 


     Representation #  2 mode #   2

     Self-consistent Calculation

      iter #   1 total cpu time :   116.7 secs   av.it.:   5.4
      thresh= 1.000E-02 alpha_mix =  0.700 |ddv_scf|^2 =  7.235E-05

      iter #   2 total cpu time :   118.2 secs   av.it.:   7.2
      thresh= 8.506E-04 alpha_mix =  0.700 |ddv_scf|^2 =  2.488E-04

      iter #   3 total cpu time :   119.6 secs   av.it.:   6.4
      thresh= 1.577E-03 alpha_mix =  0.700 |ddv_scf|^2 =  1.216E-07

      iter #   4 total cpu time :   121.6 secs   av.it.:   8.2
      thresh= 3.487E-05 alpha_mix =  0.700 |ddv_scf|^2 =  3.261E-09

      iter #   5 total cpu time :   123.7 secs   av.it.:   8.7
      thresh= 5.710E-06 alpha_mix =  0.700 |ddv_scf|^2 =  7.558E-11

      iter #   6 total cpu time :   125.3 secs   av.it.:   8.7
      thresh= 8.693E-07 alpha_mix =  0.700 |ddv_scf|^2 =  5.450E-12

      iter #   7 total cpu time :   127.0 secs   av.it.:   8.3
      thresh= 2.335E-07 alpha_mix =  0.700 |ddv_scf|^2 =  3.260E-13

      iter #   8 total cpu time :   129.6 secs   av.it.:   8.5
      thresh= 5.709E-08 alpha_mix =  0.700 |ddv_scf|^2 =  1.740E-14

      iter #   9 total cpu time :   131.4 secs   av.it.:   7.7
      thresh= 1.319E-08 alpha_mix =  0.700 |ddv_scf|^2 =  5.529E-16

     End of self-consistent calculation

     Convergence has been achieved 


     Representation #  3 modes #   3  4

     Self-consistent Calculation

      iter #   1 total cpu time :   136.5 secs   av.it.:   5.1
      thresh= 1.000E-02 alpha_mix =  0.700 |ddv_scf|^2 =  6.946E-07

      iter #   2 total cpu time :   141.8 secs   av.it.:   8.6
      thresh= 8.334E-05 alpha_mix =  0.700 |ddv_scf|^2 =  1.280E-08

      iter #   3 total cpu time :   146.9 secs   av.it.:   8.8
      thresh= 1.131E-05 alpha_mix =  0.700 |ddv_scf|^2 =  3.074E-10

      iter #   4 total cpu time :   153.4 secs   av.it.:   8.5
      thresh= 1.753E-06 alpha_mix =  0.700 |ddv_scf|^2 =  1.021E-12

      iter #   5 total cpu time :   169.4 secs   av.it.:   8.9
      thresh= 1.011E-07 alpha_mix =  0.700 |ddv_scf|^2 =  2.044E-15

      iter #   6 total cpu time :   174.1 secs   av.it.:   8.3
      thresh= 4.521E-09 alpha_mix =  0.700 |ddv_scf|^2 =  5.781E-17

     End of self-consistent calculation

     Convergence has been achieved 


     Representation #  4 modes #   5  6

     Self-consistent Calculation

      iter #   1 total cpu time :   182.0 secs   av.it.:   5.1
      thresh= 1.000E-02 alpha_mix =  0.700 |ddv_scf|^2 =  7.251E-07

      iter #   2 total cpu time :   186.3 secs   av.it.:   8.6
      thresh= 8.515E-05 alpha_mix =  0.700 |ddv_scf|^2 =  1.265E-08

      iter #   3 total cpu time :   190.8 secs   av.it.:   8.8
      thresh= 1.125E-05 alpha_mix =  0.700 |ddv_scf|^2 =  4.056E-10

      iter #   4 total cpu time :   202.2 secs   av.it.:   8.5
      thresh= 2.014E-06 alpha_mix =  0.700 |ddv_scf|^2 =  1.334E-12

      iter #   5 total cpu time :   222.1 secs   av.it.:   8.9
      thresh= 1.155E-07 alpha_mix =  0.700 |ddv_scf|^2 =  2.098E-15

      iter #   6 total cpu time :   231.5 secs   av.it.:   8.0
      thresh= 4.580E-09 alpha_mix =  0.700 |ddv_scf|^2 =  8.713E-17

     End of self-consistent calculation

     Convergence has been achieved 
 
     Number of q in the star =    2
     List of q in the star:
          1   0.000000000   0.000000000   0.153330962
          2   0.000000000   0.000000000  -0.153330962

     Diagonalizing the dynamical matrix

     q = (    0.000000000   0.000000000   0.153330962 ) 

 **************************************************************************
     freq (    1) =       0.459572 [THz] =      15.329667 [cm-1]
     freq (    2) =       0.459572 [THz] =      15.329667 [cm-1]
     freq (    3) =       1.429715 [THz] =      47.690164 [cm-1]
     freq (    4) =       1.429715 [THz] =      47.690164 [cm-1]
     freq (    5) =       1.470916 [THz] =      49.064472 [cm-1]
     freq (    6) =       3.455927 [THz] =     115.277320 [cm-1]
 **************************************************************************

     Mode symmetry, C_6v (6mm)  point group:

     freq (  1 -  2) =         15.3  [cm-1]   --> E_1                
     freq (  3 -  4) =         47.7  [cm-1]   --> E_2                
     freq (  5 -  5) =         49.1  [cm-1]   --> A_1                
     freq (  6 -  6) =        115.3  [cm-1]   --> B_2                

     Calculation of q =    0.0000000   0.0000000  -0.3066619
 
     Parallelization info
     --------------------
     sticks:   dense  smooth     PW     G-vecs:    dense   smooth      PW
     Min         141      69     20                 6214     2180     356
     Max         142      70     21                 6216     2200     363
     Sum        1135     559    163                49717    17525    2875
 


     bravais-lattice index     =            4
     lattice parameter (alat)  =       7.1400  a.u.
     unit-cell volume          =     513.9672 (a.u.)^3
     number of atoms/cell      =            2
     number of atomic types    =            1
     number of electrons       =        18.00
     number of Kohn-Sham states=           13
     kinetic-energy cutoff     =      40.0000  Ry
     charge density cutoff     =     320.0000  Ry
     Exchange-correlation      = SLA  PW   PBE  PBE ( 1  4  3  4 0 0)

     celldm(1)=   7.140000  celldm(2)=   0.000000  celldm(3)=   1.630460
     celldm(4)=   0.000000  celldm(5)=   0.000000  celldm(6)=   0.000000

     crystal axes: (cart. coord. in units of alat)
               a(1) = (   1.000000   0.000000   0.000000 )  
               a(2) = (  -0.500000   0.866025   0.000000 )  
               a(3) = (   0.000000   0.000000   1.630460 )  

     reciprocal axes: (cart. coord. in units 2 pi/alat)
               b(1) = (  1.000000  0.577350  0.000000 )  
               b(2) = (  0.000000  1.154701  0.000000 )  
               b(3) = (  0.000000  0.000000  0.613324 )  


     PseudoPot. # 1 for Na read from file:
     ./Na_pbe_v1.uspp.F.UPF
     MD5 check sum: 76a99c7e9422403d3e93cbc85ab7bccb
     Pseudo is Ultrasoft, Zval =  9.0
     Generated by new atomic code, or converted to UPF format
     Using radial grid of  819 points,  5 beta functions with: 
                l(1) =   0
                l(2) =   0
                l(3) =   1
                l(4) =   1
                l(5) =   2
     Q(r) pseudized with  8 coefficients,  rinner =    1.250   1.250   1.250
                                                       1.250   1.250

     atomic species   valence    mass     pseudopotential
        Na             9.00    22.99000     Na( 1.00)

     24 Sym. Ops., with inversion, found



   Cartesian axes

     site n.     atom                  positions (alat units)
         1           Na  tau(   1) = (   0.0000000   0.0000000   0.0000000  )
         2           Na  tau(   2) = (   0.5000000   0.2886751   0.8152300  )

     number of k points=   732  Marzari-Vanderbilt smearing, width (Ry)=  0.0200

     Number of k-points >= 100: set verbosity='high' to print them.

     Dense  grid:    49717 G-vectors     FFT dimensions: (  45,  45,  72)

     Smooth grid:    17525 G-vectors     FFT dimensions: (  30,  30,  48)

     Largest allocated arrays     est. size (Mb)     dimensions
        Kohn-Sham Wavefunctions         0.06 Mb     (     291,   13)
        NL pseudopotentials             0.12 Mb     (     291,   26)
        Each V/rho on FFT grid          0.28 Mb     (   18225)
        Each G-vector array             0.05 Mb     (    6215)
        G-vector shells                 0.01 Mb     (    1807)
     Largest temporary arrays     est. size (Mb)     dimensions
        Auxiliary wavefunctions         0.23 Mb     (     291,   52)
        Each subspace H/S matrix        0.01 Mb     (      26,   26)
        Each <psi_i|beta_j> matrix      0.01 Mb     (      26,   13)

     The potential is recalculated from file :
     ./na_hcp_7.14/_ph0/na_hcp_7.14.save/charge-density.dat

     Starting wfc are   10 atomic +    3 random wfc

     Band Structure Calculation
     Davidson diagonalization with overlap

     ethr =  5.56E-11,  avg # of iterations = 24.0

     total cpu time spent up to now is        9.0 secs

     End of band structure calculation

     Number of k-points >= 100: set verbosity='high' to print the bands.

     the Fermi energy is     1.4938 ev

     Writing output data file na_hcp_7.14.save

                                                                                

     bravais-lattice index     =            4
     lattice parameter (alat)  =       7.1400  a.u.
     unit-cell volume          =     513.9672 (a.u.)^3
     number of atoms/cell      =            2
     number of atomic types    =            1
     kinetic-energy cut-off    =      40.0000  Ry
     charge density cut-off    =     320.0000  Ry
     convergence threshold     =      1.0E-15
     beta                      =       0.7000
     number of iterations used =            4
     Exchange-correlation      = SLA  PW   PBE  PBE ( 1  4  3  4 0 0)


     celldm(1)=    7.14000  celldm(2)=    0.00000  celldm(3)=    1.63046
     celldm(4)=    0.00000  celldm(5)=    0.00000  celldm(6)=    0.00000

     crystal axes: (cart. coord. in units of alat)
               a(1) = (  1.0000  0.0000  0.0000 )  
               a(2) = ( -0.5000  0.8660  0.0000 )  
               a(3) = (  0.0000  0.0000  1.6305 )  

     reciprocal axes: (cart. coord. in units 2 pi/alat)
               b(1) = (  1.0000  0.5774  0.0000 )  
               b(2) = (  0.0000  1.1547  0.0000 )  
               b(3) = (  0.0000  0.0000  0.6133 )  


     Atoms inside the unit cell: 

     Cartesian axes

     site n.  atom      mass           positions (alat units)
        1     Na  22.9900   tau(    1) = (    0.00000    0.00000    0.00000  )
        2     Na  22.9900   tau(    2) = (    0.50000    0.28868    0.81523  )

     Computing dynamical matrix for 
                    q = (   0.0000000   0.0000000  -0.3066619 )
 
     25 Sym.Ops. (with q -> -q+G )


     G cutoff =  413.2251  (   6215 G-vectors)     FFT grid: ( 45, 45, 72)
     G cutoff =  206.6125  (   2200 G-vectors)  smooth grid: ( 30, 30, 48)

     number of k points=   732  Marzari-Vanderbilt smearing, width (Ry)=  0.0200

     PseudoPot. # 1 for Na read from file:
     ./Na_pbe_v1.uspp.F.UPF
     MD5 check sum: 76a99c7e9422403d3e93cbc85ab7bccb
     Pseudo is Ultrasoft, Zval =  9.0
     Generated by new atomic code, or converted to UPF format
     Using radial grid of  819 points,  5 beta functions with: 
                l(1) =   0
                l(2) =   0
                l(3) =   1
                l(4) =   1
                l(5) =   2
     Q(r) pseudized with  8 coefficients,  rinner =    1.250   1.250   1.250
                                                       1.250   1.250


     Atomic displacements:
     There are   2 irreducible representations

     Representation     1      4 modes -  To be done

     Representation     2      2 modes -  To be done



     Alpha used in Ewald sum =   2.8000
     PHONON       :  3m37.05s CPU     3m56.67s WALL



     Representation #  1 modes #   1  2  3  4

     Self-consistent Calculation

      iter #   1 total cpu time :   240.8 secs   av.it.:   5.2
      thresh= 1.000E-02 alpha_mix =  0.700 |ddv_scf|^2 =  1.773E-07

      iter #   2 total cpu time :   245.4 secs   av.it.:   9.4
      thresh= 4.210E-05 alpha_mix =  0.700 |ddv_scf|^2 =  3.180E-09

      iter #   3 total cpu time :   251.6 secs   av.it.:   9.7
      thresh= 5.639E-06 alpha_mix =  0.700 |ddv_scf|^2 =  8.750E-11

      iter #   4 total cpu time :   257.4 secs   av.it.:   9.1
      thresh= 9.354E-07 alpha_mix =  0.700 |ddv_scf|^2 =  2.894E-13

      iter #   5 total cpu time :   263.1 secs   av.it.:   9.5
      thresh= 5.380E-08 alpha_mix =  0.700 |ddv_scf|^2 =  5.272E-16

     End of self-consistent calculation

     Convergence has been achieved 


     Representation #  2 modes #   5  6

     Self-consistent Calculation

      iter #   1 total cpu time :   290.3 secs   av.it.:   5.7
      thresh= 1.000E-02 alpha_mix =  0.700 |ddv_scf|^2 =  1.822E-04

      iter #   2 total cpu time :   293.2 secs   av.it.:   7.7
      thresh= 1.350E-03 alpha_mix =  0.700 |ddv_scf|^2 =  5.047E-03

      iter #   3 total cpu time :   295.8 secs   av.it.:   6.1
      thresh= 7.104E-03 alpha_mix =  0.700 |ddv_scf|^2 =  1.263E-07

      iter #   4 total cpu time :   299.1 secs   av.it.:   8.6
      thresh= 3.554E-05 alpha_mix =  0.700 |ddv_scf|^2 =  6.724E-10

      iter #   5 total cpu time :   302.5 secs   av.it.:   9.5
      thresh= 2.593E-06 alpha_mix =  0.700 |ddv_scf|^2 =  5.077E-11

      iter #   6 total cpu time :   309.0 secs   av.it.:   9.4
      thresh= 7.125E-07 alpha_mix =  0.700 |ddv_scf|^2 =  1.312E-12

      iter #   7 total cpu time :   311.7 secs   av.it.:   9.7
      thresh= 1.145E-07 alpha_mix =  0.700 |ddv_scf|^2 =  1.929E-13

      iter #   8 total cpu time :   314.0 secs   av.it.:   8.3
      thresh= 4.392E-08 alpha_mix =  0.700 |ddv_scf|^2 =  2.438E-16

     End of self-consistent calculation

     Convergence has been achieved 
 
     Number of q in the star =    1
     List of q in the star:
          1   0.000000000   0.000000000  -0.306661924

     Diagonalizing the dynamical matrix

     q = (    0.000000000   0.000000000  -0.306661924 ) 

 **************************************************************************
     freq (    1) =       0.949378 [THz] =      31.667851 [cm-1]
     freq (    2) =       0.949378 [THz] =      31.667851 [cm-1]
     freq (    3) =       0.949378 [THz] =      31.667851 [cm-1]
     freq (    4) =       0.949378 [THz] =      31.667851 [cm-1]
     freq (    5) =       2.709928 [THz] =      90.393485 [cm-1]
     freq (    6) =       2.709928 [THz] =      90.393485 [cm-1]
 **************************************************************************

     Calculation of q =    0.0000000   0.2886751   0.0000000
 
     Parallelization info
     --------------------
     sticks:   dense  smooth     PW     G-vecs:    dense   smooth      PW
     Min         141      69     22                 6214     2188     400
     Max         142      70     24                 6216     2196     403
     Sum        1135     559    187                49717    17525    3213
 


     bravais-lattice index     =            4
     lattice parameter (alat)  =       7.1400  a.u.
     unit-cell volume          =     513.9672 (a.u.)^3
     number of atoms/cell      =            2
     number of atomic types    =            1
     number of electrons       =        18.00
     number of Kohn-Sham states=           13
     kinetic-energy cutoff     =      40.0000  Ry
     charge density cutoff     =     320.0000  Ry
     Exchange-correlation      = SLA  PW   PBE  PBE ( 1  4  3  4 0 0)

     celldm(1)=   7.140000  celldm(2)=   0.000000  celldm(3)=   1.630460
     celldm(4)=   0.000000  celldm(5)=   0.000000  celldm(6)=   0.000000

     crystal axes: (cart. coord. in units of alat)
               a(1) = (   1.000000   0.000000   0.000000 )  
               a(2) = (  -0.500000   0.866025   0.000000 )  
               a(3) = (   0.000000   0.000000   1.630460 )  

     reciprocal axes: (cart. coord. in units 2 pi/alat)
               b(1) = (  1.000000  0.577350  0.000000 )  
               b(2) = (  0.000000  1.154701  0.000000 )  
               b(3) = (  0.000000  0.000000  0.613324 )  


     PseudoPot. # 1 for Na read from file:
     ./Na_pbe_v1.uspp.F.UPF
     MD5 check sum: 76a99c7e9422403d3e93cbc85ab7bccb
     Pseudo is Ultrasoft, Zval =  9.0
     Generated by new atomic code, or converted to UPF format
     Using radial grid of  819 points,  5 beta functions with: 
                l(1) =   0
                l(2) =   0
                l(3) =   1
                l(4) =   1
                l(5) =   2
     Q(r) pseudized with  8 coefficients,  rinner =    1.250   1.250   1.250
                                                       1.250   1.250

     atomic species   valence    mass     pseudopotential
        Na             9.00    22.99000     Na( 1.00)

     24 Sym. Ops., with inversion, found



   Cartesian axes

     site n.     atom                  positions (alat units)
         1           Na  tau(   1) = (   0.0000000   0.0000000   0.0000000  )
         2           Na  tau(   2) = (   0.5000000   0.2886751   0.8152300  )

     number of k points=  3600  Marzari-Vanderbilt smearing, width (Ry)=  0.0200

     Number of k-points >= 100: set verbosity='high' to print them.

     Dense  grid:    49717 G-vectors     FFT dimensions: (  45,  45,  72)

     Smooth grid:    17525 G-vectors     FFT dimensions: (  30,  30,  48)

     Largest allocated arrays     est. size (Mb)     dimensions
        Kohn-Sham Wavefunctions         0.06 Mb     (     294,   13)
        NL pseudopotentials             0.12 Mb     (     294,   26)
        Each V/rho on FFT grid          0.28 Mb     (   18225)
        Each G-vector array             0.05 Mb     (    6215)
        G-vector shells                 0.01 Mb     (    1744)
     Largest temporary arrays     est. size (Mb)     dimensions
        Auxiliary wavefunctions         0.23 Mb     (     294,   52)
        Each subspace H/S matrix        0.01 Mb     (      26,   26)
        Each <psi_i|beta_j> matrix      0.01 Mb     (      26,   13)

     The potential is recalculated from file :
     ./na_hcp_7.14/_ph0/na_hcp_7.14.save/charge-density.dat

     Starting wfc are   10 atomic +    3 random wfc

     Band Structure Calculation
     Davidson diagonalization with overlap

     ethr =  5.56E-11,  avg # of iterations = 23.1

     total cpu time spent up to now is       40.0 secs

     End of band structure calculation

     Number of k-points >= 100: set verbosity='high' to print the bands.

     the Fermi energy is     1.4938 ev

     Writing output data file na_hcp_7.14.save

                                                                                

     bravais-lattice index     =            4
     lattice parameter (alat)  =       7.1400  a.u.
     unit-cell volume          =     513.9672 (a.u.)^3
     number of atoms/cell      =            2
     number of atomic types    =            1
     kinetic-energy cut-off    =      40.0000  Ry
     charge density cut-off    =     320.0000  Ry
     convergence threshold     =      1.0E-15
     beta                      =       0.7000
     number of iterations used =            4
     Exchange-correlation      = SLA  PW   PBE  PBE ( 1  4  3  4 0 0)


     celldm(1)=    7.14000  celldm(2)=    0.00000  celldm(3)=    1.63046
     celldm(4)=    0.00000  celldm(5)=    0.00000  celldm(6)=    0.00000

     crystal axes: (cart. coord. in units of alat)
               a(1) = (  1.0000  0.0000  0.0000 )  
               a(2) = ( -0.5000  0.8660  0.0000 )  
               a(3) = (  0.0000  0.0000  1.6305 )  

     reciprocal axes: (cart. coord. in units 2 pi/alat)
               b(1) = (  1.0000  0.5774  0.0000 )  
               b(2) = (  0.0000  1.1547  0.0000 )  
               b(3) = (  0.0000  0.0000  0.6133 )  


     Atoms inside the unit cell: 

     Cartesian axes

     site n.  atom      mass           positions (alat units)
        1     Na  22.9900   tau(    1) = (    0.00000    0.00000    0.00000  )
        2     Na  22.9900   tau(    2) = (    0.50000    0.28868    0.81523  )

     Computing dynamical matrix for 
                    q = (   0.0000000   0.2886751   0.0000000 )
 
      4 Sym.Ops. (no q -> -q+G )


     G cutoff =  413.2251  (   6215 G-vectors)     FFT grid: ( 45, 45, 72)
     G cutoff =  206.6125  (   2192 G-vectors)  smooth grid: ( 30, 30, 48)

     number of k points=  3600  Marzari-Vanderbilt smearing, width (Ry)=  0.0200

     PseudoPot. # 1 for Na read from file:
     ./Na_pbe_v1.uspp.F.UPF
     MD5 check sum: 76a99c7e9422403d3e93cbc85ab7bccb
     Pseudo is Ultrasoft, Zval =  9.0
     Generated by new atomic code, or converted to UPF format
     Using radial grid of  819 points,  5 beta functions with: 
                l(1) =   0
                l(2) =   0
                l(3) =   1
                l(4) =   1
                l(5) =   2
     Q(r) pseudized with  8 coefficients,  rinner =    1.250   1.250   1.250
                                                       1.250   1.250

     Mode symmetry, C_2v (mm2)  point group:


     Atomic displacements:
     There are   6 irreducible representations

     Representation     1      1 modes -A_1  D_1  S_1  To be done

     Representation     2      1 modes -A_1  D_1  S_1  To be done

     Representation     3      1 modes -B_1  D_3  S_3  To be done

     Representation     4      1 modes -B_1  D_3  S_3  To be done

     Representation     5      1 modes -B_2  D_4  S_4  To be done

     Representation     6      1 modes -B_2  D_4  S_4  To be done



     Alpha used in Ewald sum =   2.8000
     PHONON       :  5m19.97s CPU     5m50.46s WALL



     Representation #  1 mode #   1

     Self-consistent Calculation

      iter #   1 total cpu time :   352.3 secs   av.it.:   5.7
      thresh= 1.000E-02 alpha_mix =  0.700 |ddv_scf|^2 =  5.261E-04

      iter #   2 total cpu time :   357.4 secs   av.it.:   7.3
      thresh= 2.294E-03 alpha_mix =  0.700 |ddv_scf|^2 =  1.919E-02

      iter #   3 total cpu time :   360.6 secs   av.it.:   5.3
      thresh= 1.000E-02 alpha_mix =  0.700 |ddv_scf|^2 =  4.493E-07

      iter #   4 total cpu time :   364.7 secs   av.it.:   8.2
      thresh= 6.703E-05 alpha_mix =  0.700 |ddv_scf|^2 =  2.676E-08

      iter #   5 total cpu time :   369.1 secs   av.it.:   8.3
      thresh= 1.636E-05 alpha_mix =  0.700 |ddv_scf|^2 =  6.528E-10

      iter #   6 total cpu time :   374.1 secs   av.it.:   8.7
      thresh= 2.555E-06 alpha_mix =  0.700 |ddv_scf|^2 =  1.090E-10

      iter #   7 total cpu time :   388.0 secs   av.it.:   8.1
      thresh= 1.044E-06 alpha_mix =  0.700 |ddv_scf|^2 =  1.471E-09

      iter #   8 total cpu time :   392.1 secs   av.it.:   6.5
      thresh= 3.835E-06 alpha_mix =  0.700 |ddv_scf|^2 =  2.762E-12

      iter #   9 total cpu time :   399.5 secs   av.it.:   8.7
      thresh= 1.662E-07 alpha_mix =  0.700 |ddv_scf|^2 =  4.752E-13

      iter #  10 total cpu time :   407.5 secs   av.it.:   7.7
      thresh= 6.893E-08 alpha_mix =  0.700 |ddv_scf|^2 =  1.936E-12

      iter #  11 total cpu time :   412.8 secs   av.it.:   6.9
      thresh= 1.392E-07 alpha_mix =  0.700 |ddv_scf|^2 =  1.536E-15

      iter #  12 total cpu time :   417.3 secs   av.it.:   8.9
      thresh= 3.919E-09 alpha_mix =  0.700 |ddv_scf|^2 =  8.955E-17

     End of self-consistent calculation

     Convergence has been achieved 


     Representation #  2 mode #   2

     Self-consistent Calculation

      iter #   1 total cpu time :   421.1 secs   av.it.:   5.7
      thresh= 1.000E-02 alpha_mix =  0.700 |ddv_scf|^2 =  5.261E-04

      iter #   2 total cpu time :   425.6 secs   av.it.:   7.3
      thresh= 2.294E-03 alpha_mix =  0.700 |ddv_scf|^2 =  1.919E-02

      iter #   3 total cpu time :   431.8 secs   av.it.:   5.3
      thresh= 1.000E-02 alpha_mix =  0.700 |ddv_scf|^2 =  4.493E-07

      iter #   4 total cpu time :   435.6 secs   av.it.:   8.2
      thresh= 6.703E-05 alpha_mix =  0.700 |ddv_scf|^2 =  2.676E-08

      iter #   5 total cpu time :   441.1 secs   av.it.:   8.3
      thresh= 1.636E-05 alpha_mix =  0.700 |ddv_scf|^2 =  6.529E-10

      iter #   6 total cpu time :   448.6 secs   av.it.:   8.7
      thresh= 2.555E-06 alpha_mix =  0.700 |ddv_scf|^2 =  1.130E-10

      iter #   7 total cpu time :   452.6 secs   av.it.:   8.0
      thresh= 1.063E-06 alpha_mix =  0.700 |ddv_scf|^2 =  1.486E-09

      iter #   8 total cpu time :   456.3 secs   av.it.:   6.5
      thresh= 3.855E-06 alpha_mix =  0.700 |ddv_scf|^2 =  2.711E-12

      iter #   9 total cpu time :   460.8 secs   av.it.:   8.7
      thresh= 1.646E-07 alpha_mix =  0.700 |ddv_scf|^2 =  4.748E-13

      iter #  10 total cpu time :   471.6 secs   av.it.:   7.7
      thresh= 6.891E-08 alpha_mix =  0.700 |ddv_scf|^2 =  1.936E-12

      iter #  11 total cpu time :   475.9 secs   av.it.:   6.9
      thresh= 1.391E-07 alpha_mix =  0.700 |ddv_scf|^2 =  1.535E-15

      iter #  12 total cpu time :   479.9 secs   av.it.:   8.9
      thresh= 3.918E-09 alpha_mix =  0.700 |ddv_scf|^2 =  8.945E-17

     End of self-consistent calculation

     Convergence has been achieved 


     Representation #  3 mode #   3

     Self-consistent Calculation

      iter #   1 total cpu time :   484.6 secs   av.it.:   5.3
      thresh= 1.000E-02 alpha_mix =  0.700 |ddv_scf|^2 =  3.074E-06

      iter #   2 total cpu time :   489.2 secs   av.it.:   8.3
      thresh= 1.753E-04 alpha_mix =  0.700 |ddv_scf|^2 =  4.932E-08

      iter #   3 total cpu time :   492.7 secs   av.it.:   8.6
      thresh= 2.221E-05 alpha_mix =  0.700 |ddv_scf|^2 =  2.308E-09

      iter #   4 total cpu time :   509.9 secs   av.it.:   8.2
      thresh= 4.804E-06 alpha_mix =  0.700 |ddv_scf|^2 =  1.367E-11

      iter #   5 total cpu time :   516.3 secs   av.it.:   8.3
      thresh= 3.698E-07 alpha_mix =  0.700 |ddv_scf|^2 =  1.029E-13

      iter #   6 total cpu time :   524.9 secs   av.it.:   8.7
      thresh= 3.208E-08 alpha_mix =  0.700 |ddv_scf|^2 =  3.686E-16

     End of self-consistent calculation

     Convergence has been achieved 


     Representation #  4 mode #   4

     Self-consistent Calculation

      iter #   1 total cpu time :   529.0 secs   av.it.:   5.3
      thresh= 1.000E-02 alpha_mix =  0.700 |ddv_scf|^2 =  3.074E-06

      iter #   2 total cpu time :   533.5 secs   av.it.:   8.3
      thresh= 1.753E-04 alpha_mix =  0.700 |ddv_scf|^2 =  4.932E-08

      iter #   3 total cpu time :   545.8 secs   av.it.:   8.6
      thresh= 2.221E-05 alpha_mix =  0.700 |ddv_scf|^2 =  2.308E-09

      iter #   4 total cpu time :   555.9 secs   av.it.:   8.2
      thresh= 4.804E-06 alpha_mix =  0.700 |ddv_scf|^2 =  1.367E-11

      iter #   5 total cpu time :   567.6 secs   av.it.:   8.3
      thresh= 3.698E-07 alpha_mix =  0.700 |ddv_scf|^2 =  1.029E-13

      iter #   6 total cpu time :   577.1 secs   av.it.:   8.7
      thresh= 3.208E-08 alpha_mix =  0.700 |ddv_scf|^2 =  3.685E-16

     End of self-consistent calculation

     Convergence has been achieved 


     Representation #  5 mode #   5

     Self-consistent Calculation

      iter #   1 total cpu time :   583.9 secs   av.it.:   5.5
      thresh= 1.000E-02 alpha_mix =  0.700 |ddv_scf|^2 =  8.388E-06

      iter #   2 total cpu time :   588.4 secs   av.it.:   8.4
      thresh= 2.896E-04 alpha_mix =  0.700 |ddv_scf|^2 =  1.783E-06

      iter #   3 total cpu time :   599.6 secs   av.it.:   7.7
      thresh= 1.335E-04 alpha_mix =  0.700 |ddv_scf|^2 =  1.047E-08

      iter #   4 total cpu time :   604.0 secs   av.it.:   8.8
      thresh= 1.023E-05 alpha_mix =  0.700 |ddv_scf|^2 =  3.664E-10

      iter #   5 total cpu time :   609.3 secs   av.it.:   8.2
      thresh= 1.914E-06 alpha_mix =  0.700 |ddv_scf|^2 =  2.137E-12

      iter #   6 total cpu time :   617.1 secs   av.it.:   8.6
      thresh= 1.462E-07 alpha_mix =  0.700 |ddv_scf|^2 =  1.136E-14

      iter #   7 total cpu time :   625.5 secs   av.it.:   8.4
      thresh= 1.066E-08 alpha_mix =  0.700 |ddv_scf|^2 =  5.313E-16

     End of self-consistent calculation

     Convergence has been achieved 


     Representation #  6 mode #   6

     Self-consistent Calculation

      iter #   1 total cpu time :   630.8 secs   av.it.:   5.5
      thresh= 1.000E-02 alpha_mix =  0.700 |ddv_scf|^2 =  8.388E-06

      iter #   2 total cpu time :   635.0 secs   av.it.:   8.4
      thresh= 2.896E-04 alpha_mix =  0.700 |ddv_scf|^2 =  1.783E-06

      iter #   3 total cpu time :   639.2 secs   av.it.:   7.7
      thresh= 1.335E-04 alpha_mix =  0.700 |ddv_scf|^2 =  1.047E-08

      iter #   4 total cpu time :   643.0 secs   av.it.:   8.8
      thresh= 1.023E-05 alpha_mix =  0.700 |ddv_scf|^2 =  3.664E-10

      iter #   5 total cpu time :   647.6 secs   av.it.:   8.2
      thresh= 1.914E-06 alpha_mix =  0.700 |ddv_scf|^2 =  2.137E-12

      iter #   6 total cpu time :   651.6 secs   av.it.:   8.6
      thresh= 1.462E-07 alpha_mix =  0.700 |ddv_scf|^2 =  1.136E-14

      iter #   7 total cpu time :   665.6 secs   av.it.:   8.4
      thresh= 1.066E-08 alpha_mix =  0.700 |ddv_scf|^2 =  5.313E-16

     End of self-consistent calculation

     Convergence has been achieved 
 
     Number of q in the star =    6
     List of q in the star:
          1   0.000000000   0.288675135   0.000000000
          2  -0.250000000   0.144337567   0.000000000
          3   0.250000000  -0.144337567   0.000000000
          4  -0.250000000  -0.144337567   0.000000000
          5   0.250000000   0.144337567   0.000000000
          6   0.000000000  -0.288675135   0.000000000

     Diagonalizing the dynamical matrix

     q = (    0.000000000   0.288675135   0.000000000 ) 

 **************************************************************************
     freq (    1) =       1.125095 [THz] =      37.529126 [cm-1]
     freq (    2) =       1.342157 [THz] =      44.769547 [cm-1]
     freq (    3) =       2.292663 [THz] =      76.475013 [cm-1]
     freq (    4) =       2.397350 [THz] =      79.966985 [cm-1]
     freq (    5) =       2.922836 [THz] =      97.495327 [cm-1]
     freq (    6) =       3.462340 [THz] =     115.491230 [cm-1]
 **************************************************************************

     Mode symmetry, C_2v (mm2)  point group:

     freq (  1 -  1) =         37.5  [cm-1]   --> B_1  D_3  S_3      
     freq (  2 -  2) =         44.8  [cm-1]   --> B_2  D_4  S_4      
     freq (  3 -  3) =         76.5  [cm-1]   --> B_1  D_3  S_3      
     freq (  4 -  4) =         80.0  [cm-1]   --> A_1  D_1  S_1      
     freq (  5 -  5) =         97.5  [cm-1]   --> A_1  D_1  S_1      
     freq (  6 -  6) =        115.5  [cm-1]   --> B_2  D_4  S_4      

     Calculation of q =    0.0000000   0.2886751   0.1533310
 
     Parallelization info
     --------------------
     sticks:   dense  smooth     PW     G-vecs:    dense   smooth      PW
     Min         141      69     23                 6214     2185     409
     Max         142      70     24                 6216     2198     414
     Sum        1135     559    187                49717    17525    3297
 


     bravais-lattice index     =            4
     lattice parameter (alat)  =       7.1400  a.u.
     unit-cell volume          =     513.9672 (a.u.)^3
     number of atoms/cell      =            2
     number of atomic types    =            1
     number of electrons       =        18.00
     number of Kohn-Sham states=           13
     kinetic-energy cutoff     =      40.0000  Ry
     charge density cutoff     =     320.0000  Ry
     Exchange-correlation      = SLA  PW   PBE  PBE ( 1  4  3  4 0 0)

     celldm(1)=   7.140000  celldm(2)=   0.000000  celldm(3)=   1.630460
     celldm(4)=   0.000000  celldm(5)=   0.000000  celldm(6)=   0.000000

     crystal axes: (cart. coord. in units of alat)
               a(1) = (   1.000000   0.000000   0.000000 )  
               a(2) = (  -0.500000   0.866025   0.000000 )  
               a(3) = (   0.000000   0.000000   1.630460 )  

     reciprocal axes: (cart. coord. in units 2 pi/alat)
               b(1) = (  1.000000  0.577350  0.000000 )  
               b(2) = (  0.000000  1.154701  0.000000 )  
               b(3) = (  0.000000  0.000000  0.613324 )  


     PseudoPot. # 1 for Na read from file:
     ./Na_pbe_v1.uspp.F.UPF
     MD5 check sum: 76a99c7e9422403d3e93cbc85ab7bccb
     Pseudo is Ultrasoft, Zval =  9.0
     Generated by new atomic code, or converted to UPF format
     Using radial grid of  819 points,  5 beta functions with: 
                l(1) =   0
                l(2) =   0
                l(3) =   1
                l(4) =   1
                l(5) =   2
     Q(r) pseudized with  8 coefficients,  rinner =    1.250   1.250   1.250
                                                       1.250   1.250

     atomic species   valence    mass     pseudopotential
        Na             9.00    22.99000     Na( 1.00)

     24 Sym. Ops., with inversion, found



   Cartesian axes

     site n.     atom                  positions (alat units)
         1           Na  tau(   1) = (   0.0000000   0.0000000   0.0000000  )
         2           Na  tau(   2) = (   0.5000000   0.2886751   0.8152300  )

     number of k points=  7200  Marzari-Vanderbilt smearing, width (Ry)=  0.0200

     Number of k-points >= 100: set verbosity='high' to print them.

     Dense  grid:    49717 G-vectors     FFT dimensions: (  45,  45,  72)

     Smooth grid:    17525 G-vectors     FFT dimensions: (  30,  30,  48)

     Largest allocated arrays     est. size (Mb)     dimensions
        Kohn-Sham Wavefunctions         0.06 Mb     (     299,   13)
        NL pseudopotentials             0.12 Mb     (     299,   26)
        Each V/rho on FFT grid          0.28 Mb     (   18225)
        Each G-vector array             0.05 Mb     (    6215)
        G-vector shells                 0.01 Mb     (    1782)
     Largest temporary arrays     est. size (Mb)     dimensions
        Auxiliary wavefunctions         0.24 Mb     (     299,   52)
        Each subspace H/S matrix        0.01 Mb     (      26,   26)
        Each <psi_i|beta_j> matrix      0.01 Mb     (      26,   13)

     The potential is recalculated from file :
     ./na_hcp_7.14/_ph0/na_hcp_7.14.save/charge-density.dat

     Starting wfc are   10 atomic +    3 random wfc

     Band Structure Calculation
     Davidson diagonalization with overlap

     ethr =  5.56E-11,  avg # of iterations = 23.2

     total cpu time spent up to now is       70.8 secs

     End of band structure calculation

     Number of k-points >= 100: set verbosity='high' to print the bands.

     the Fermi energy is     1.4938 ev

     Writing output data file na_hcp_7.14.save

                                                                                

     bravais-lattice index     =            4
     lattice parameter (alat)  =       7.1400  a.u.
     unit-cell volume          =     513.9672 (a.u.)^3
     number of atoms/cell      =            2
     number of atomic types    =            1
     kinetic-energy cut-off    =      40.0000  Ry
     charge density cut-off    =     320.0000  Ry
     convergence threshold     =      1.0E-15
     beta                      =       0.7000
     number of iterations used =            4
     Exchange-correlation      = SLA  PW   PBE  PBE ( 1  4  3  4 0 0)


     celldm(1)=    7.14000  celldm(2)=    0.00000  celldm(3)=    1.63046
     celldm(4)=    0.00000  celldm(5)=    0.00000  celldm(6)=    0.00000

     crystal axes: (cart. coord. in units of alat)
               a(1) = (  1.0000  0.0000  0.0000 )  
               a(2) = ( -0.5000  0.8660  0.0000 )  
               a(3) = (  0.0000  0.0000  1.6305 )  

     reciprocal axes: (cart. coord. in units 2 pi/alat)
               b(1) = (  1.0000  0.5774  0.0000 )  
               b(2) = (  0.0000  1.1547  0.0000 )  
               b(3) = (  0.0000  0.0000  0.6133 )  


     Atoms inside the unit cell: 

     Cartesian axes

     site n.  atom      mass           positions (alat units)
        1     Na  22.9900   tau(    1) = (    0.00000    0.00000    0.00000  )
        2     Na  22.9900   tau(    2) = (    0.50000    0.28868    0.81523  )

     Computing dynamical matrix for 
                    q = (   0.0000000   0.2886751   0.1533310 )
 
      2 Sym.Ops. (no q -> -q+G )


     G cutoff =  413.2251  (   6215 G-vectors)     FFT grid: ( 45, 45, 72)
     G cutoff =  206.6125  (   2198 G-vectors)  smooth grid: ( 30, 30, 48)

     number of k points=  7200  Marzari-Vanderbilt smearing, width (Ry)=  0.0200

     PseudoPot. # 1 for Na read from file:
     ./Na_pbe_v1.uspp.F.UPF
     MD5 check sum: 76a99c7e9422403d3e93cbc85ab7bccb
     Pseudo is Ultrasoft, Zval =  9.0
     Generated by new atomic code, or converted to UPF format
     Using radial grid of  819 points,  5 beta functions with: 
                l(1) =   0
                l(2) =   0
                l(3) =   1
                l(4) =   1
                l(5) =   2
     Q(r) pseudized with  8 coefficients,  rinner =    1.250   1.250   1.250
                                                       1.250   1.250

     Mode symmetry, C_s (m)     point group:


     Atomic displacements:
     There are   6 irreducible representations

     Representation     1      1 modes -A'  To be done

     Representation     2      1 modes -A'  To be done

     Representation     3      1 modes -A'  To be done

     Representation     4      1 modes -A'  To be done

     Representation     5      1 modes -A''  To be done

     Representation     6      1 modes -A''  To be done



     Alpha used in Ewald sum =   2.8000
     PHONON       : 10m46.31s CPU    11m44.10s WALL



     Representation #  1 mode #   1

     Self-consistent Calculation

      iter #   1 total cpu time :   707.5 secs   av.it.:   5.7
      thresh= 1.000E-02 alpha_mix =  0.700 |ddv_scf|^2 =  2.059E-04

      iter #   2 total cpu time :   725.9 secs   av.it.:   7.6
      thresh= 1.435E-03 alpha_mix =  0.700 |ddv_scf|^2 =  4.159E-03

      iter #   3 total cpu time :   740.3 secs   av.it.:   5.5
      thresh= 6.449E-03 alpha_mix =  0.700 |ddv_scf|^2 =  1.905E-06

      iter #   4 total cpu time :   754.4 secs   av.it.:   7.8
      thresh= 1.380E-04 alpha_mix =  0.700 |ddv_scf|^2 =  2.750E-07

      iter #   5 total cpu time :   769.8 secs   av.it.:   7.8
      thresh= 5.244E-05 alpha_mix =  0.700 |ddv_scf|^2 =  1.217E-09

      iter #   6 total cpu time :   777.1 secs   av.it.:   8.7
      thresh= 3.488E-06 alpha_mix =  0.700 |ddv_scf|^2 =  5.807E-11

      iter #   7 total cpu time :   790.7 secs   av.it.:   8.7
      thresh= 7.620E-07 alpha_mix =  0.700 |ddv_scf|^2 =  2.577E-11

      iter #   8 total cpu time :   807.8 secs   av.it.:   7.6
      thresh= 5.077E-07 alpha_mix =  0.700 |ddv_scf|^2 =  4.954E-11

      iter #   9 total cpu time :   814.7 secs   av.it.:   7.5
      thresh= 7.038E-07 alpha_mix =  0.700 |ddv_scf|^2 =  3.076E-13

      iter #  10 total cpu time :   831.8 secs   av.it.:   8.6
      thresh= 5.546E-08 alpha_mix =  0.700 |ddv_scf|^2 =  5.205E-13

      iter #  11 total cpu time :   846.0 secs   av.it.:   7.4
      thresh= 7.215E-08 alpha_mix =  0.700 |ddv_scf|^2 =  1.913E-14

      iter #  12 total cpu time :   879.6 secs   av.it.:   8.1
      thresh= 1.383E-08 alpha_mix =  0.700 |ddv_scf|^2 =  8.039E-15

      iter #  13 total cpu time :   893.6 secs   av.it.:   7.8
      thresh= 8.966E-09 alpha_mix =  0.700 |ddv_scf|^2 =  8.845E-16

     End of self-consistent calculation

     Convergence has been achieved 


     Representation #  2 mode #   2

     Self-consistent Calculation

      iter #   1 total cpu time :   915.6 secs   av.it.:   5.7
      thresh= 1.000E-02 alpha_mix =  0.700 |ddv_scf|^2 =  3.524E-05

      iter #   2 total cpu time :   940.5 secs   av.it.:   8.0
      thresh= 5.936E-04 alpha_mix =  0.700 |ddv_scf|^2 =  4.344E-04

      iter #   3 total cpu time :   953.4 secs   av.it.:   5.9
      thresh= 2.084E-03 alpha_mix =  0.700 |ddv_scf|^2 =  1.397E-05

      iter #   4 total cpu time :   981.5 secs   av.it.:   7.2
      thresh= 3.738E-04 alpha_mix =  0.700 |ddv_scf|^2 =  6.810E-08

      iter #   5 total cpu time :   988.2 secs   av.it.:   8.6
      thresh= 2.610E-05 alpha_mix =  0.700 |ddv_scf|^2 =  7.792E-10

      iter #   6 total cpu time :  1015.5 secs   av.it.:   8.9
      thresh= 2.791E-06 alpha_mix =  0.700 |ddv_scf|^2 =  6.355E-11

      iter #   7 total cpu time :  1022.7 secs   av.it.:   8.8
      thresh= 7.972E-07 alpha_mix =  0.700 |ddv_scf|^2 =  4.903E-11

      iter #   8 total cpu time :  1042.5 secs   av.it.:   7.7
      thresh= 7.002E-07 alpha_mix =  0.700 |ddv_scf|^2 =  1.401E-10

      iter #   9 total cpu time :  1055.1 secs   av.it.:   7.0
      thresh= 1.184E-06 alpha_mix =  0.700 |ddv_scf|^2 =  4.353E-12

      iter #  10 total cpu time :  1070.1 secs   av.it.:   7.6
      thresh= 2.086E-07 alpha_mix =  0.700 |ddv_scf|^2 =  2.562E-12

      iter #  11 total cpu time :  1086.9 secs   av.it.:   7.6
      thresh= 1.601E-07 alpha_mix =  0.700 |ddv_scf|^2 =  2.281E-14

      iter #  12 total cpu time :  1098.1 secs   av.it.:   7.9
      thresh= 1.510E-08 alpha_mix =  0.700 |ddv_scf|^2 =  2.863E-15

      iter #  13 total cpu time :  1127.1 secs   av.it.:   8.7
      thresh= 5.350E-09 alpha_mix =  0.700 |ddv_scf|^2 =  7.127E-17

     End of self-consistent calculation

     Convergence has been achieved 


     Representation #  3 mode #   3

     Self-consistent Calculation

      iter #   1 total cpu time :  1145.0 secs   av.it.:   5.8
      thresh= 1.000E-02 alpha_mix =  0.700 |ddv_scf|^2 =  2.358E-04

      iter #   2 total cpu time :  1161.2 secs   av.it.:   7.6
      thresh= 1.536E-03 alpha_mix =  0.700 |ddv_scf|^2 =  4.828E-03

      iter #   3 total cpu time :  1175.0 secs   av.it.:   5.5
      thresh= 6.948E-03 alpha_mix =  0.700 |ddv_scf|^2 =  6.152E-07

      iter #   4 total cpu time :  1195.0 secs   av.it.:   8.0
      thresh= 7.844E-05 alpha_mix =  0.700 |ddv_scf|^2 =  2.879E-07

      iter #   5 total cpu time :  1209.5 secs   av.it.:   7.7
      thresh= 5.365E-05 alpha_mix =  0.700 |ddv_scf|^2 =  1.509E-09

      iter #   6 total cpu time :  1227.1 secs   av.it.:   8.7
      thresh= 3.884E-06 alpha_mix =  0.700 |ddv_scf|^2 =  7.318E-11

      iter #   7 total cpu time :  1235.4 secs   av.it.:   8.6
      thresh= 8.554E-07 alpha_mix =  0.700 |ddv_scf|^2 =  3.575E-12

      iter #   8 total cpu time :  1261.6 secs   av.it.:   8.8
      thresh= 1.891E-07 alpha_mix =  0.700 |ddv_scf|^2 =  2.745E-11

      iter #   9 total cpu time :  1274.5 secs   av.it.:   6.9
      thresh= 5.239E-07 alpha_mix =  0.700 |ddv_scf|^2 =  8.335E-13

      iter #  10 total cpu time :  1302.1 secs   av.it.:   8.1
      thresh= 9.129E-08 alpha_mix =  0.700 |ddv_scf|^2 =  5.884E-13

      iter #  11 total cpu time :  1333.7 secs   av.it.:   7.3
      thresh= 7.671E-08 alpha_mix =  0.700 |ddv_scf|^2 =  1.577E-14

      iter #  12 total cpu time :  1341.6 secs   av.it.:   8.1
      thresh= 1.256E-08 alpha_mix =  0.700 |ddv_scf|^2 =  2.504E-15

      iter #  13 total cpu time :  1370.7 secs   av.it.:   8.1
      thresh= 5.004E-09 alpha_mix =  0.700 |ddv_scf|^2 =  1.695E-16

     End of self-consistent calculation

     Convergence has been achieved 


     Representation #  4 mode #   4

     Self-consistent Calculation

      iter #   1 total cpu time :  1384.3 secs   av.it.:   5.7
      thresh= 1.000E-02 alpha_mix =  0.700 |ddv_scf|^2 =  6.513E-05

      iter #   2 total cpu time :  1403.7 secs   av.it.:   7.8
      thresh= 8.070E-04 alpha_mix =  0.700 |ddv_scf|^2 =  1.103E-03

      iter #   3 total cpu time :  1409.5 secs   av.it.:   5.7
      thresh= 3.321E-03 alpha_mix =  0.700 |ddv_scf|^2 =  6.963E-06

      iter #   4 total cpu time :  1432.1 secs   av.it.:   7.5
      thresh= 2.639E-04 alpha_mix =  0.700 |ddv_scf|^2 =  1.072E-07

      iter #   5 total cpu time :  1448.2 secs   av.it.:   8.2
      thresh= 3.274E-05 alpha_mix =  0.700 |ddv_scf|^2 =  8.805E-10

      iter #   6 total cpu time :  1463.8 secs   av.it.:   8.9
      thresh= 2.967E-06 alpha_mix =  0.700 |ddv_scf|^2 =  7.438E-11

      iter #   7 total cpu time :  1477.8 secs   av.it.:   8.7
      thresh= 8.625E-07 alpha_mix =  0.700 |ddv_scf|^2 =  1.798E-11

      iter #   8 total cpu time :  1491.3 secs   av.it.:   8.4
      thresh= 4.240E-07 alpha_mix =  0.700 |ddv_scf|^2 =  1.877E-10

      iter #   9 total cpu time :  1508.1 secs   av.it.:   6.6
      thresh= 1.370E-06 alpha_mix =  0.700 |ddv_scf|^2 =  1.265E-12

      iter #  10 total cpu time :  1517.3 secs   av.it.:   7.8
      thresh= 1.125E-07 alpha_mix =  0.700 |ddv_scf|^2 =  4.003E-12

      iter #  11 total cpu time :  1532.6 secs   av.it.:   7.3
      thresh= 2.001E-07 alpha_mix =  0.700 |ddv_scf|^2 =  6.763E-15

      iter #  12 total cpu time :  1547.8 secs   av.it.:   8.8
      thresh= 8.224E-09 alpha_mix =  0.700 |ddv_scf|^2 =  3.261E-15

      iter #  13 total cpu time :  1561.9 secs   av.it.:   8.1
      thresh= 5.711E-09 alpha_mix =  0.700 |ddv_scf|^2 =  2.445E-16

     End of self-consistent calculation

     Convergence has been achieved 


     Representation #  5 mode #   5

     Self-consistent Calculation

      iter #   1 total cpu time :  1588.0 secs   av.it.:   5.3
      thresh= 1.000E-02 alpha_mix =  0.700 |ddv_scf|^2 =  3.067E-06

      iter #   2 total cpu time :  1609.5 secs   av.it.:   8.4
      thresh= 1.751E-04 alpha_mix =  0.700 |ddv_scf|^2 =  4.915E-08

      iter #   3 total cpu time :  1629.0 secs   av.it.:   8.7
      thresh= 2.217E-05 alpha_mix =  0.700 |ddv_scf|^2 =  2.320E-09

      iter #   4 total cpu time :  1648.9 secs   av.it.:   8.1
      thresh= 4.817E-06 alpha_mix =  0.700 |ddv_scf|^2 =  1.068E-11

      iter #   5 total cpu time :  1681.7 secs   av.it.:   8.4
      thresh= 3.267E-07 alpha_mix =  0.700 |ddv_scf|^2 =  7.578E-14

      iter #   6 total cpu time :  1697.6 secs   av.it.:   8.7
      thresh= 2.753E-08 alpha_mix =  0.700 |ddv_scf|^2 =  3.494E-16

     End of self-consistent calculation

     Convergence has been achieved 


     Representation #  6 mode #   6

     Self-consistent Calculation

      iter #   1 total cpu time :  1712.7 secs   av.it.:   5.3
      thresh= 1.000E-02 alpha_mix =  0.700 |ddv_scf|^2 =  3.067E-06

      iter #   2 total cpu time :  1731.2 secs   av.it.:   8.4
      thresh= 1.751E-04 alpha_mix =  0.700 |ddv_scf|^2 =  4.915E-08

      iter #   3 total cpu time :  1759.8 secs   av.it.:   8.7
      thresh= 2.217E-05 alpha_mix =  0.700 |ddv_scf|^2 =  2.320E-09

      iter #   4 total cpu time :  1771.9 secs   av.it.:   8.1
      thresh= 4.817E-06 alpha_mix =  0.700 |ddv_scf|^2 =  1.068E-11

      iter #   5 total cpu time :  1784.8 secs   av.it.:   8.4
      thresh= 3.267E-07 alpha_mix =  0.700 |ddv_scf|^2 =  7.578E-14

      iter #   6 total cpu time :  1799.8 secs   av.it.:   8.7
      thresh= 2.753E-08 alpha_mix =  0.700 |ddv_scf|^2 =  3.494E-16

     End of self-consistent calculation

     Convergence has been achieved 
 
     Number of q in the star =   12
     List of q in the star:
          1   0.000000000   0.288675135   0.153330962
          2   0.000000000   0.288675135  -0.153330962
          3  -0.250000000   0.144337567   0.153330962
          4   0.250000000  -0.144337567   0.153330962
          5  -0.250000000  -0.144337567   0.153330962
          6   0.250000000   0.144337567   0.153330962
          7   0.000000000  -0.288675135   0.153330962
          8   0.000000000  -0.288675135  -0.153330962
          9   0.250000000   0.144337567  -0.153330962
         10   0.250000000  -0.144337567  -0.153330962
         11  -0.250000000  -0.144337567  -0.153330962
         12  -0.250000000   0.144337567  -0.153330962

     Diagonalizing the dynamical matrix

     q = (    0.000000000   0.288675135   0.153330962 ) 

 **************************************************************************
     freq (    1) =       1.355047 [THz] =      45.199502 [cm-1]
     freq (    2) =       1.550054 [THz] =      51.704220 [cm-1]
     freq (    3) =       2.171671 [THz] =      72.439147 [cm-1]
     freq (    4) =       2.614075 [THz] =      87.196165 [cm-1]
     freq (    5) =       2.750042 [THz] =      91.731512 [cm-1]
     freq (    6) =       3.380942 [THz] =     112.776086 [cm-1]
 **************************************************************************

     Mode symmetry, C_s (m)     point group:

     freq (  1 -  1) =         45.2  [cm-1]   --> A''                
     freq (  2 -  2) =         51.7  [cm-1]   --> A'                 
     freq (  3 -  3) =         72.4  [cm-1]   --> A''                
     freq (  4 -  4) =         87.2  [cm-1]   --> A'                 
     freq (  5 -  5) =         91.7  [cm-1]   --> A'                 
     freq (  6 -  6) =        112.8  [cm-1]   --> A'                 

     Calculation of q =    0.0000000   0.2886751  -0.3066619
 
     Parallelization info
     --------------------
     sticks:   dense  smooth     PW     G-vecs:    dense   smooth      PW
     Min         141      69     22                 6214     2188     400
     Max         142      70     24                 6216     2196     403
     Sum        1135     559    187                49717    17525    3213
 


     bravais-lattice index     =            4
     lattice parameter (alat)  =       7.1400  a.u.
     unit-cell volume          =     513.9672 (a.u.)^3
     number of atoms/cell      =            2
     number of atomic types    =            1
     number of electrons       =        18.00
     number of Kohn-Sham states=           13
     kinetic-energy cutoff     =      40.0000  Ry
     charge density cutoff     =     320.0000  Ry
     Exchange-correlation      = SLA  PW   PBE  PBE ( 1  4  3  4 0 0)

     celldm(1)=   7.140000  celldm(2)=   0.000000  celldm(3)=   1.630460
     celldm(4)=   0.000000  celldm(5)=   0.000000  celldm(6)=   0.000000

     crystal axes: (cart. coord. in units of alat)
               a(1) = (   1.000000   0.000000   0.000000 )  
               a(2) = (  -0.500000   0.866025   0.000000 )  
               a(3) = (   0.000000   0.000000   1.630460 )  

     reciprocal axes: (cart. coord. in units 2 pi/alat)
               b(1) = (  1.000000  0.577350  0.000000 )  
               b(2) = (  0.000000  1.154701  0.000000 )  
               b(3) = (  0.000000  0.000000  0.613324 )  


     PseudoPot. # 1 for Na read from file:
     ./Na_pbe_v1.uspp.F.UPF
     MD5 check sum: 76a99c7e9422403d3e93cbc85ab7bccb
     Pseudo is Ultrasoft, Zval =  9.0
     Generated by new atomic code, or converted to UPF format
     Using radial grid of  819 points,  5 beta functions with: 
                l(1) =   0
                l(2) =   0
                l(3) =   1
                l(4) =   1
                l(5) =   2
     Q(r) pseudized with  8 coefficients,  rinner =    1.250   1.250   1.250
                                                       1.250   1.250

     atomic species   valence    mass     pseudopotential
        Na             9.00    22.99000     Na( 1.00)

     24 Sym. Ops., with inversion, found



   Cartesian axes

     site n.     atom                  positions (alat units)
         1           Na  tau(   1) = (   0.0000000   0.0000000   0.0000000  )
         2           Na  tau(   2) = (   0.5000000   0.2886751   0.8152300  )

     number of k points=  3600  Marzari-Vanderbilt smearing, width (Ry)=  0.0200

     Number of k-points >= 100: set verbosity='high' to print them.

     Dense  grid:    49717 G-vectors     FFT dimensions: (  45,  45,  72)

     Smooth grid:    17525 G-vectors     FFT dimensions: (  30,  30,  48)

     Largest allocated arrays     est. size (Mb)     dimensions
        Kohn-Sham Wavefunctions         0.06 Mb     (     294,   13)
        NL pseudopotentials             0.12 Mb     (     294,   26)
        Each V/rho on FFT grid          0.28 Mb     (   18225)
        Each G-vector array             0.05 Mb     (    6215)
        G-vector shells                 0.01 Mb     (    1744)
     Largest temporary arrays     est. size (Mb)     dimensions
        Auxiliary wavefunctions         0.23 Mb     (     294,   52)
        Each subspace H/S matrix        0.01 Mb     (      26,   26)
        Each <psi_i|beta_j> matrix      0.01 Mb     (      26,   13)

     The potential is recalculated from file :
     ./na_hcp_7.14/_ph0/na_hcp_7.14.save/charge-density.dat

     Starting wfc are   10 atomic +    3 random wfc

     Band Structure Calculation
     Davidson diagonalization with overlap

     ethr =  5.56E-11,  avg # of iterations = 23.2

     total cpu time spent up to now is       92.6 secs

     End of band structure calculation

     Number of k-points >= 100: set verbosity='high' to print the bands.

     the Fermi energy is     1.4938 ev

     Writing output data file na_hcp_7.14.save

                                                                                

     bravais-lattice index     =            4
     lattice parameter (alat)  =       7.1400  a.u.
     unit-cell volume          =     513.9672 (a.u.)^3
     number of atoms/cell      =            2
     number of atomic types    =            1
     kinetic-energy cut-off    =      40.0000  Ry
     charge density cut-off    =     320.0000  Ry
     convergence threshold     =      1.0E-15
     beta                      =       0.7000
     number of iterations used =            4
     Exchange-correlation      = SLA  PW   PBE  PBE ( 1  4  3  4 0 0)


     celldm(1)=    7.14000  celldm(2)=    0.00000  celldm(3)=    1.63046
     celldm(4)=    0.00000  celldm(5)=    0.00000  celldm(6)=    0.00000

     crystal axes: (cart. coord. in units of alat)
               a(1) = (  1.0000  0.0000  0.0000 )  
               a(2) = ( -0.5000  0.8660  0.0000 )  
               a(3) = (  0.0000  0.0000  1.6305 )  

     reciprocal axes: (cart. coord. in units 2 pi/alat)
               b(1) = (  1.0000  0.5774  0.0000 )  
               b(2) = (  0.0000  1.1547  0.0000 )  
               b(3) = (  0.0000  0.0000  0.6133 )  


     Atoms inside the unit cell: 

     Cartesian axes

     site n.  atom      mass           positions (alat units)
        1     Na  22.9900   tau(    1) = (    0.00000    0.00000    0.00000  )
        2     Na  22.9900   tau(    2) = (    0.50000    0.28868    0.81523  )

     Computing dynamical matrix for 
                    q = (   0.0000000   0.2886751  -0.3066619 )
 
      4 Sym.Ops. (no q -> -q+G )


     G cutoff =  413.2251  (   6215 G-vectors)     FFT grid: ( 45, 45, 72)
     G cutoff =  206.6125  (   2192 G-vectors)  smooth grid: ( 30, 30, 48)

     number of k points=  3600  Marzari-Vanderbilt smearing, width (Ry)=  0.0200

     PseudoPot. # 1 for Na read from file:
     ./Na_pbe_v1.uspp.F.UPF
     MD5 check sum: 76a99c7e9422403d3e93cbc85ab7bccb
     Pseudo is Ultrasoft, Zval =  9.0
     Generated by new atomic code, or converted to UPF format
     Using radial grid of  819 points,  5 beta functions with: 
                l(1) =   0
                l(2) =   0
                l(3) =   1
                l(4) =   1
                l(5) =   2
     Q(r) pseudized with  8 coefficients,  rinner =    1.250   1.250   1.250
                                                       1.250   1.250

     Mode symmetry, C_2v (mm2)  point group:


     Atomic displacements:
     There are   6 irreducible representations

     Representation     1      1 modes -A_1  D_1  S_1  To be done

     Representation     2      1 modes -A_1  D_1  S_1  To be done

     Representation     3      1 modes -A_2  D_2  S_2  To be done

     Representation     4      1 modes -B_1  D_3  S_3  To be done

     Representation     5      1 modes -B_2  D_4  S_4  To be done

     Representation     6      1 modes -B_2  D_4  S_4  To be done



     Alpha used in Ewald sum =   2.8000
     PHONON       : 26m37.34s CPU    30m18.05s WALL



     Representation #  1 mode #   1

     Self-consistent Calculation

      iter #   1 total cpu time :  1820.3 secs   av.it.:   5.6
      thresh= 1.000E-02 alpha_mix =  0.700 |ddv_scf|^2 =  5.633E-05

      iter #   2 total cpu time :  1826.5 secs   av.it.:   7.9
      thresh= 7.505E-04 alpha_mix =  0.700 |ddv_scf|^2 =  3.155E-04

      iter #   3 total cpu time :  1833.5 secs   av.it.:   6.7
      thresh= 1.776E-03 alpha_mix =  0.700 |ddv_scf|^2 =  3.805E-08

      iter #   4 total cpu time :  1838.9 secs   av.it.:   8.9
      thresh= 1.951E-05 alpha_mix =  0.700 |ddv_scf|^2 =  1.960E-09

      iter #   5 total cpu time :  1844.5 secs   av.it.:   8.9
      thresh= 4.427E-06 alpha_mix =  0.700 |ddv_scf|^2 =  7.156E-11

      iter #   6 total cpu time :  1849.9 secs   av.it.:   9.1
      thresh= 8.460E-07 alpha_mix =  0.700 |ddv_scf|^2 =  3.571E-12

      iter #   7 total cpu time :  1855.5 secs   av.it.:   8.8
      thresh= 1.890E-07 alpha_mix =  0.700 |ddv_scf|^2 =  2.728E-12

      iter #   8 total cpu time :  1860.0 secs   av.it.:   7.7
      thresh= 1.652E-07 alpha_mix =  0.700 |ddv_scf|^2 =  2.014E-12

      iter #   9 total cpu time :  1863.9 secs   av.it.:   7.6
      thresh= 1.419E-07 alpha_mix =  0.700 |ddv_scf|^2 =  5.578E-13

      iter #  10 total cpu time :  1868.1 secs   av.it.:   7.4
      thresh= 7.469E-08 alpha_mix =  0.700 |ddv_scf|^2 =  4.578E-16

     End of self-consistent calculation

     Convergence has been achieved 


     Representation #  2 mode #   2

     Self-consistent Calculation

      iter #   1 total cpu time :  1872.1 secs   av.it.:   5.7
      thresh= 1.000E-02 alpha_mix =  0.700 |ddv_scf|^2 =  6.318E-05

      iter #   2 total cpu time :  1876.1 secs   av.it.:   7.9
      thresh= 7.949E-04 alpha_mix =  0.700 |ddv_scf|^2 =  3.581E-04

      iter #   3 total cpu time :  1882.0 secs   av.it.:   6.7
      thresh= 1.892E-03 alpha_mix =  0.700 |ddv_scf|^2 =  4.941E-08

      iter #   4 total cpu time :  1886.2 secs   av.it.:   8.8
      thresh= 2.223E-05 alpha_mix =  0.700 |ddv_scf|^2 =  1.808E-09

      iter #   5 total cpu time :  1896.3 secs   av.it.:   8.9
      thresh= 4.252E-06 alpha_mix =  0.700 |ddv_scf|^2 =  9.215E-11

      iter #   6 total cpu time :  1905.8 secs   av.it.:   9.2
      thresh= 9.600E-07 alpha_mix =  0.700 |ddv_scf|^2 =  3.556E-12

      iter #   7 total cpu time :  1911.1 secs   av.it.:   8.8
      thresh= 1.886E-07 alpha_mix =  0.700 |ddv_scf|^2 =  3.130E-12

      iter #   8 total cpu time :  1915.5 secs   av.it.:   7.7
      thresh= 1.769E-07 alpha_mix =  0.700 |ddv_scf|^2 =  1.163E-12

      iter #   9 total cpu time :  1920.1 secs   av.it.:   7.7
      thresh= 1.079E-07 alpha_mix =  0.700 |ddv_scf|^2 =  3.602E-13

      iter #  10 total cpu time :  1924.7 secs   av.it.:   7.5
      thresh= 6.001E-08 alpha_mix =  0.700 |ddv_scf|^2 =  8.076E-16

     End of self-consistent calculation

     Convergence has been achieved 


     Representation #  3 mode #   3

     Self-consistent Calculation

      iter #   1 total cpu time :  1932.8 secs   av.it.:   5.3
      thresh= 1.000E-02 alpha_mix =  0.700 |ddv_scf|^2 =  3.061E-06

[...]
      iter #   4 total cpu time :  3754.1 secs   av.it.:   8.5
      thresh= 1.182E-05 alpha_mix =  0.700 |ddv_scf|^2 =  1.155E-09

      iter #   5 total cpu time :  3761.7 secs   av.it.:   8.6
      thresh= 3.399E-06 alpha_mix =  0.700 |ddv_scf|^2 =  1.434E-11

      iter #   6 total cpu time :  3769.1 secs   av.it.:   8.5
      thresh= 3.787E-07 alpha_mix =  0.700 |ddv_scf|^2 =  8.094E-13

      iter #   7 total cpu time :  3778.5 secs   av.it.:   8.8
      thresh= 8.996E-08 alpha_mix =  0.700 |ddv_scf|^2 =  1.903E-14

      iter #   8 total cpu time :  3787.8 secs   av.it.:   8.9
      thresh= 1.380E-08 alpha_mix =  0.700 |ddv_scf|^2 =  4.127E-16

     End of self-consistent calculation

     Convergence has been achieved 
 
     Number of q in the star =   12
     List of q in the star:
          1   0.250000000   0.433012702   0.153330962
          2   0.250000000   0.433012702  -0.153330962
          3  -0.250000000   0.433012702   0.153330962
          4   0.250000000  -0.433012702  -0.153330962
          5  -0.250000000   0.433012702  -0.153330962
          6  -0.250000000  -0.433012702  -0.153330962
          7   0.500000000   0.000000000   0.153330962
          8   0.250000000  -0.433012702   0.153330962
          9  -0.500000000   0.000000000   0.153330962
         10  -0.250000000  -0.433012702   0.153330962
         11  -0.500000000   0.000000000  -0.153330962
         12   0.500000000   0.000000000  -0.153330962

     Diagonalizing the dynamical matrix

     q = (    0.250000000   0.433012702   0.153330962 ) 

 **************************************************************************
     freq (    1) =       1.866658 [THz] =      62.264993 [cm-1]
     freq (    2) =       2.319014 [THz] =      77.353987 [cm-1]
     freq (    3) =       2.871484 [THz] =      95.782409 [cm-1]
     freq (    4) =       2.878336 [THz] =      96.010952 [cm-1]
     freq (    5) =       3.360500 [THz] =     112.094227 [cm-1]
     freq (    6) =       3.513491 [THz] =     117.197437 [cm-1]
 **************************************************************************

     Mode symmetry, C_s (m)     point group:

     freq (  1 -  1) =         62.3  [cm-1]   --> A'                 
     freq (  2 -  2) =         77.4  [cm-1]   --> A''                
     freq (  3 -  3) =         95.8  [cm-1]   --> A''                
     freq (  4 -  4) =         96.0  [cm-1]   --> A'                 
     freq (  5 -  5) =        112.1  [cm-1]   --> A'                 
     freq (  6 -  6) =        117.2  [cm-1]   --> A''                

     Calculation of q =    0.2500000   0.4330127  -0.3066619
 
     Parallelization info
     --------------------
     sticks:   dense  smooth     PW     G-vecs:    dense   smooth      PW
     Min         141      69     24                 6214     2186     432
     Max         142      70     26                 6216     2202     435
     Sum        1135     559    199                49717    17525    3465
 


     bravais-lattice index     =            4
     lattice parameter (alat)  =       7.1400  a.u.
     unit-cell volume          =     513.9672 (a.u.)^3
     number of atoms/cell      =            2
     number of atomic types    =            1
     number of electrons       =        18.00
     number of Kohn-Sham states=           13
     kinetic-energy cutoff     =      40.0000  Ry
     charge density cutoff     =     320.0000  Ry
     Exchange-correlation      = SLA  PW   PBE  PBE ( 1  4  3  4 0 0)

     celldm(1)=   7.140000  celldm(2)=   0.000000  celldm(3)=   1.630460
     celldm(4)=   0.000000  celldm(5)=   0.000000  celldm(6)=   0.000000

     crystal axes: (cart. coord. in units of alat)
               a(1) = (   1.000000   0.000000   0.000000 )  
               a(2) = (  -0.500000   0.866025   0.000000 )  
               a(3) = (   0.000000   0.000000   1.630460 )  

     reciprocal axes: (cart. coord. in units 2 pi/alat)
               b(1) = (  1.000000  0.577350  0.000000 )  
               b(2) = (  0.000000  1.154701  0.000000 )  
               b(3) = (  0.000000  0.000000  0.613324 )  


     PseudoPot. # 1 for Na read from file:
     ./Na_pbe_v1.uspp.F.UPF
     MD5 check sum: 76a99c7e9422403d3e93cbc85ab7bccb
     Pseudo is Ultrasoft, Zval =  9.0
     Generated by new atomic code, or converted to UPF format
     Using radial grid of  819 points,  5 beta functions with: 
                l(1) =   0
                l(2) =   0
                l(3) =   1
                l(4) =   1
                l(5) =   2
     Q(r) pseudized with  8 coefficients,  rinner =    1.250   1.250   1.250
                                                       1.250   1.250

     atomic species   valence    mass     pseudopotential
        Na             9.00    22.99000     Na( 1.00)

     24 Sym. Ops., with inversion, found



   Cartesian axes

     site n.     atom                  positions (alat units)
         1           Na  tau(   1) = (   0.0000000   0.0000000   0.0000000  )
         2           Na  tau(   2) = (   0.5000000   0.2886751   0.8152300  )

     number of k points=  3600  Marzari-Vanderbilt smearing, width (Ry)=  0.0200

     Number of k-points >= 100: set verbosity='high' to print them.

     Dense  grid:    49717 G-vectors     FFT dimensions: (  45,  45,  72)

     Smooth grid:    17525 G-vectors     FFT dimensions: (  30,  30,  48)

     Largest allocated arrays     est. size (Mb)     dimensions
        Kohn-Sham Wavefunctions         0.06 Mb     (     290,   13)
        NL pseudopotentials             0.12 Mb     (     290,   26)
        Each V/rho on FFT grid          0.28 Mb     (   18225)
        Each G-vector array             0.05 Mb     (    6215)
        G-vector shells                 0.01 Mb     (    1715)
     Largest temporary arrays     est. size (Mb)     dimensions
        Auxiliary wavefunctions         0.23 Mb     (     290,   52)
        Each subspace H/S matrix        0.01 Mb     (      26,   26)
        Each <psi_i|beta_j> matrix      0.01 Mb     (      26,   13)

     The potential is recalculated from file :
     ./na_hcp_7.14/_ph0/na_hcp_7.14.save/charge-density.dat

     Starting wfc are   10 atomic +    3 random wfc

     Band Structure Calculation
     Davidson diagonalization with overlap

     ethr =  5.56E-11,  avg # of iterations = 22.9

     total cpu time spent up to now is      203.0 secs

     End of band structure calculation

     Number of k-points >= 100: set verbosity='high' to print the bands.

     the Fermi energy is     1.4938 ev

     Writing output data file na_hcp_7.14.save

                                                                                

     bravais-lattice index     =            4
     lattice parameter (alat)  =       7.1400  a.u.
     unit-cell volume          =     513.9672 (a.u.)^3
     number of atoms/cell      =            2
     number of atomic types    =            1
     kinetic-energy cut-off    =      40.0000  Ry
     charge density cut-off    =     320.0000  Ry
     convergence threshold     =      1.0E-15
     beta                      =       0.7000
     number of iterations used =            4
     Exchange-correlation      = SLA  PW   PBE  PBE ( 1  4  3  4 0 0)


     celldm(1)=    7.14000  celldm(2)=    0.00000  celldm(3)=    1.63046
     celldm(4)=    0.00000  celldm(5)=    0.00000  celldm(6)=    0.00000

     crystal axes: (cart. coord. in units of alat)
               a(1) = (  1.0000  0.0000  0.0000 )  
               a(2) = ( -0.5000  0.8660  0.0000 )  
               a(3) = (  0.0000  0.0000  1.6305 )  

     reciprocal axes: (cart. coord. in units 2 pi/alat)
               b(1) = (  1.0000  0.5774  0.0000 )  
               b(2) = (  0.0000  1.1547  0.0000 )  
               b(3) = (  0.0000  0.0000  0.6133 )  


     Atoms inside the unit cell: 

     Cartesian axes

     site n.  atom      mass           positions (alat units)
        1     Na  22.9900   tau(    1) = (    0.00000    0.00000    0.00000  )
        2     Na  22.9900   tau(    2) = (    0.50000    0.28868    0.81523  )

     Computing dynamical matrix for 
                    q = (   0.2500000   0.4330127  -0.3066619 )
 
      4 Sym.Ops. (no q -> -q+G )


     G cutoff =  413.2251  (   6215 G-vectors)     FFT grid: ( 45, 45, 72)
     G cutoff =  206.6125  (   2192 G-vectors)  smooth grid: ( 30, 30, 48)

     number of k points=  3600  Marzari-Vanderbilt smearing, width (Ry)=  0.0200

     PseudoPot. # 1 for Na read from file:
     ./Na_pbe_v1.uspp.F.UPF
     MD5 check sum: 76a99c7e9422403d3e93cbc85ab7bccb
     Pseudo is Ultrasoft, Zval =  9.0
     Generated by new atomic code, or converted to UPF format
     Using radial grid of  819 points,  5 beta functions with: 
                l(1) =   0
                l(2) =   0
                l(3) =   1
                l(4) =   1
                l(5) =   2
     Q(r) pseudized with  8 coefficients,  rinner =    1.250   1.250   1.250
                                                       1.250   1.250


     Atomic displacements:
     There are   3 irreducible representations

     Representation     1      2 modes -  To be done

     Representation     2      2 modes -  To be done

     Representation     3      2 modes -  To be done



     Alpha used in Ewald sum =   2.8000
     PHONON       :     0h57m CPU        1h 3m WALL



     Representation #  1 modes #   1  2

     Self-consistent Calculation

      iter #   1 total cpu time :  3818.4 secs   av.it.:   5.7
      thresh= 1.000E-02 alpha_mix =  0.700 |ddv_scf|^2 =  2.864E-06

      iter #   2 total cpu time :  3841.6 secs   av.it.:   9.0
      thresh= 1.692E-04 alpha_mix =  0.700 |ddv_scf|^2 =  1.627E-06

      iter #   3 total cpu time :  3866.6 secs   av.it.:   8.1
      thresh= 1.275E-04 alpha_mix =  0.700 |ddv_scf|^2 =  1.101E-08

      iter #   4 total cpu time :  3886.5 secs   av.it.:   9.3
      thresh= 1.049E-05 alpha_mix =  0.700 |ddv_scf|^2 =  2.975E-10

      iter #   5 total cpu time :  3900.6 secs   av.it.:   9.6
      thresh= 1.725E-06 alpha_mix =  0.700 |ddv_scf|^2 =  1.631E-11

      iter #   6 total cpu time :  3922.3 secs   av.it.:   9.7
      thresh= 4.038E-07 alpha_mix =  0.700 |ddv_scf|^2 =  1.096E-12

      iter #   7 total cpu time :  3935.9 secs   av.it.:   9.8
      thresh= 1.047E-07 alpha_mix =  0.700 |ddv_scf|^2 =  1.237E-14

      iter #   8 total cpu time :  3947.7 secs   av.it.:   9.6
      thresh= 1.112E-08 alpha_mix =  0.700 |ddv_scf|^2 =  3.137E-16

     End of self-consistent calculation

     Convergence has been achieved 


     Representation #  2 modes #   3  4

     Self-consistent Calculation

      iter #   1 total cpu time :  3967.2 secs   av.it.:   5.7
      thresh= 1.000E-02 alpha_mix =  0.700 |ddv_scf|^2 =  2.218E-06

      iter #   2 total cpu time :  3987.0 secs   av.it.:   9.0
      thresh= 1.489E-04 alpha_mix =  0.700 |ddv_scf|^2 =  1.127E-06

      iter #   3 total cpu time :  4000.5 secs   av.it.:   8.2
      thresh= 1.061E-04 alpha_mix =  0.700 |ddv_scf|^2 =  1.327E-08

      iter #   4 total cpu time :  4015.2 secs   av.it.:   9.2
      thresh= 1.152E-05 alpha_mix =  0.700 |ddv_scf|^2 =  2.839E-10

      iter #   5 total cpu time :  4040.4 secs   av.it.:   9.4
      thresh= 1.685E-06 alpha_mix =  0.700 |ddv_scf|^2 =  2.100E-11

      iter #   6 total cpu time :  4052.7 secs   av.it.:   9.5
      thresh= 4.582E-07 alpha_mix =  0.700 |ddv_scf|^2 =  7.678E-13

      iter #   7 total cpu time :  4063.4 secs   av.it.:  10.0
      thresh= 8.762E-08 alpha_mix =  0.700 |ddv_scf|^2 =  1.471E-14

      iter #   8 total cpu time :  4076.1 secs   av.it.:   9.8
      thresh= 1.213E-08 alpha_mix =  0.700 |ddv_scf|^2 =  8.802E-16

     End of self-consistent calculation

     Convergence has been achieved 


     Representation #  3 modes #   5  6

     Self-consistent Calculation

      iter #   1 total cpu time :  4094.6 secs   av.it.:   5.7
      thresh= 1.000E-02 alpha_mix =  0.700 |ddv_scf|^2 =  2.111E-06

      iter #   2 total cpu time :  4113.0 secs   av.it.:   9.0
      thresh= 1.453E-04 alpha_mix =  0.700 |ddv_scf|^2 =  8.558E-07

      iter #   3 total cpu time :  4126.0 secs   av.it.:   8.3
      thresh= 9.251E-05 alpha_mix =  0.700 |ddv_scf|^2 =  2.405E-08

      iter #   4 total cpu time :  4138.0 secs   av.it.:   8.9
      thresh= 1.551E-05 alpha_mix =  0.700 |ddv_scf|^2 =  3.928E-10

      iter #   5 total cpu time :  4154.4 secs   av.it.:   9.5
      thresh= 1.982E-06 alpha_mix =  0.700 |ddv_scf|^2 =  1.037E-11

      iter #   6 total cpu time :  4166.2 secs   av.it.:   9.7
      thresh= 3.220E-07 alpha_mix =  0.700 |ddv_scf|^2 =  7.983E-13

      iter #   7 total cpu time :  4177.0 secs   av.it.:   9.9
      thresh= 8.935E-08 alpha_mix =  0.700 |ddv_scf|^2 =  1.909E-14

      iter #   8 total cpu time :  4188.5 secs   av.it.:   9.9
      thresh= 1.382E-08 alpha_mix =  0.700 |ddv_scf|^2 =  2.122E-16

     End of self-consistent calculation

     Convergence has been achieved 
 
     Number of q in the star =    6
     List of q in the star:
          1   0.250000000   0.433012702  -0.306661924
          2  -0.250000000   0.433012702  -0.306661924
          3   0.250000000  -0.433012702   0.306661924
          4  -0.250000000  -0.433012702   0.306661924
          5   0.500000000   0.000000000  -0.306661924
          6  -0.500000000   0.000000000  -0.306661924

     Diagonalizing the dynamical matrix

     q = (    0.250000000   0.433012702  -0.306661924 ) 

 **************************************************************************
     freq (    1) =       1.969742 [THz] =      65.703529 [cm-1]
     freq (    2) =       1.969742 [THz] =      65.703529 [cm-1]
     freq (    3) =       2.903264 [THz] =      96.842475 [cm-1]
     freq (    4) =       2.903264 [THz] =      96.842475 [cm-1]
     freq (    5) =       3.565195 [THz] =     118.922088 [cm-1]
     freq (    6) =       3.565195 [THz] =     118.922088 [cm-1]
 **************************************************************************
 
     init_run     :      1.55s CPU      1.73s WALL (      11 calls)
     electrons    :    154.49s CPU    157.20s WALL (      11 calls)

     Called by init_run:
     wfcinit      :      0.00s CPU      0.11s WALL (      11 calls)
     potinit      :      0.26s CPU      0.30s WALL (      11 calls)

     Called by electrons:
     c_bands      :    154.44s CPU    157.15s WALL (      11 calls)
     v_of_rho     :      0.11s CPU      0.12s WALL (      12 calls)
     newd         :      0.13s CPU      0.14s WALL (      12 calls)

     Called by c_bands:
     init_us_2    :      3.34s CPU      3.53s WALL (   48251 calls)
     cegterg      :     74.83s CPU     76.47s WALL (    3056 calls)

     Called by sum_band:

     Called by *egterg:
     h_psi        :     43.36s CPU     44.65s WALL (   49542 calls)
     s_psi        :     46.08s CPU     48.09s WALL ( 1184698 calls)
     g_psi        :      0.47s CPU      0.47s WALL (   44874 calls)
     cdiaghg      :     21.39s CPU     21.64s WALL (   46486 calls)

     Called by h_psi:
     add_vuspsi   :     27.75s CPU     29.28s WALL (  595877 calls)

     General routines
     calbec       :     68.51s CPU     71.28s WALL ( 1263352 calls)
     fft          :      2.95s CPU      3.00s WALL (    8991 calls)
     ffts         :      2.12s CPU      2.17s WALL (    7231 calls)
     fftw         :   1579.42s CPU   1606.57s WALL ( 9233092 calls)
     interpolate  :      0.98s CPU      0.94s WALL (    1239 calls)
     davcio       :      9.76s CPU    303.42s WALL (  216380 calls)
 
     Parallel routines
     fft_scatter  :   1201.32s CPU   1214.74s WALL ( 9249314 calls)
 
     PHONON       :     1h 3m CPU        1h 9m WALL

     INITIALIZATION: 
     phq_setup    :      0.37s CPU      0.88s WALL (      12 calls)
     phq_init     :     22.51s CPU     23.11s WALL (      12 calls)
 
     phq_init     :     22.51s CPU     23.11s WALL (      12 calls)
     init_vloc    :      0.12s CPU      0.13s WALL (      12 calls)
     init_us_1    :      0.44s CPU      0.45s WALL (      12 calls)
     newd         :      0.13s CPU      0.14s WALL (      12 calls)
     dvanqq       :      1.49s CPU      1.50s WALL (      12 calls)
     drho         :     17.91s CPU     18.18s WALL (      12 calls)
 
     DYNAMICAL MATRIX:
     dynmat0      :      2.12s CPU      2.31s WALL (      12 calls)
     phqscf       :   3580.90s CPU   3944.65s WALL (      12 calls)
     dynmatrix    :      1.14s CPU      1.35s WALL (      12 calls)
 
     phqscf       :   3580.90s CPU   3944.65s WALL (      12 calls)
     solve_linter :   3578.14s CPU   3939.04s WALL (      58 calls)
     drhodv       :      2.64s CPU      2.90s WALL (      58 calls)
 
     dynmat0      :      2.12s CPU      2.31s WALL (      12 calls)
     dynmat_us    :      2.08s CPU      2.13s WALL (      12 calls)
     d2ionq       :      0.02s CPU      0.03s WALL (      12 calls)
 
     dynmat_us    :      2.08s CPU      2.13s WALL (      12 calls)
     addusdynmat  :      0.00s CPU      0.00s WALL (      12 calls)
 
     phqscf       :   3580.90s CPU   3944.65s WALL (      12 calls)
     solve_linter :   3578.14s CPU   3939.04s WALL (      58 calls)
 
     solve_linter :   3578.14s CPU   3939.04s WALL (      58 calls)
     dvqpsi_us    :     13.38s CPU     14.20s WALL (    4932 calls)
     ortho        :     34.23s CPU     35.09s WALL (   42486 calls)
     cgsolve      :    688.96s CPU    715.52s WALL (   42486 calls)
     incdrhoscf   :   1100.82s CPU   1108.96s WALL (   42486 calls)
     addusddens   :      8.08s CPU      8.09s WALL (     535 calls)
     vpsifft      :     46.16s CPU     49.47s WALL (   37554 calls)
     dv_of_drho   :      3.54s CPU      3.69s WALL (     570 calls)
     mix_pot      :      8.50s CPU     17.12s WALL (     477 calls)
     ef_shift     :      0.03s CPU      0.62s WALL (      29 calls)
     localdos     :      0.32s CPU      0.34s WALL (       4 calls)
     psymdvscf    :     28.52s CPU     28.60s WALL (     477 calls)
     newdq        :      7.63s CPU      7.65s WALL (     477 calls)
     adddvscf     :      3.45s CPU      3.70s WALL (   37554 calls)
     drhodvus     :      0.06s CPU      0.07s WALL (      58 calls)
 
     dvqpsi_us    :     13.38s CPU     14.20s WALL (    4932 calls)
     dvqpsi_us_on :      3.71s CPU      3.85s WALL (    4932 calls)
 
     cgsolve      :    688.96s CPU    715.52s WALL (   42486 calls)
     ch_psi       :    664.50s CPU    689.40s WALL (  546335 calls)
 
     ch_psi       :    664.50s CPU    689.40s WALL (  546335 calls)
     h_psiq       :    575.62s CPU    598.07s WALL (  546335 calls)
     last         :     85.33s CPU     87.60s WALL (  546335 calls)
 
     h_psiq       :    575.62s CPU    598.07s WALL (  546335 calls)
     firstfft     :    270.05s CPU    280.90s WALL ( 3474768 calls)
     secondfft    :    201.08s CPU    208.23s WALL ( 3474768 calls)
     add_vuspsi   :     27.75s CPU     29.28s WALL (  595877 calls)
 
     incdrhoscf   :   1100.82s CPU   1108.96s WALL (   42486 calls)
     addusdbec    :      4.31s CPU      4.60s WALL (   47418 calls)
 
     drhodvus     :      0.06s CPU      0.07s WALL (      58 calls)
 
      General routines
     calbec       :     68.51s CPU     71.28s WALL ( 1263352 calls)
     fft          :      2.95s CPU      3.00s WALL (    8991 calls)
     ffts         :      2.12s CPU      2.17s WALL (    7231 calls)
     fftw         :   1579.42s CPU   1606.57s WALL ( 9233092 calls)
     davcio       :      9.76s CPU    303.42s WALL (  216380 calls)
     write_rec    :      0.94s CPU     17.21s WALL (     535 calls)
 
 
     PHONON       :     1h 3m CPU        1h 9m WALL

 
   This run was terminated on:   1: 0:43  29Mar2018            

=------------------------------------------------------------------------------=
   JOB DONE.
=------------------------------------------------------------------------------=
Application 30384978 resources: utime ~749317s, stime ~8324s, Rss ~59232, inblocks ~4114607420, outblocks ~1417032753
