
     Program PHONON v.5.4.0 starts on 28Mar2018 at 20: 1:15 

     This program is part of the open-source Quantum ESPRESSO suite
     for quantum simulation of materials; please cite
         "P. Giannozzi et al., J. Phys.:Condens. Matter 21 395502 (2009);
          URL http://www.quantum-espresso.org", 
     in publications or presentations arising from this work. More details at
     http://www.quantum-espresso.org/quote

     Parallel version (MPI & OpenMP), running on     192 processor cores
     Number of MPI processes:               192
     Threads/MPI process:                     1
     K-points division:     npool     =      24
     R & G space division:  proc/nbgrp/npool/nimage =       8

     Reading data from directory:
     ./na_hcp_7.09/na_hcp_7.09.save

   Info: using nr1, nr2, nr3 values from input

   Info: using nr1, nr2, nr3 values from input

     IMPORTANT: XC functional enforced from input :
     Exchange-correlation      = SLA  PW   PBE  PBE ( 1  4  3  4 0 0)
     Any further DFT definition will be discarded
     Please, verify this is what you really want

 
     Parallelization info
     --------------------
     sticks:   dense  smooth     PW     G-vecs:    dense   smooth      PW
     Min         138      69     20                 6076     2151     356
     Max         139      70     21                 6081     2170     363
     Sum        1111     559    163                48635    17285    2875
 


     Dynamical matrices for ( 4, 4, 4)  uniform grid of q-points
     (  12q-points):
       N         xq(1)         xq(2)         xq(3) 
       1   0.000000000   0.000000000   0.000000000
       2   0.000000000   0.000000000   0.153330962
       3   0.000000000   0.000000000  -0.306661924
       4   0.000000000   0.288675135   0.000000000
       5   0.000000000   0.288675135   0.153330962
       6   0.000000000   0.288675135  -0.306661924
       7   0.000000000  -0.577350269   0.000000000
       8   0.000000000  -0.577350269   0.153330962
       9   0.000000000  -0.577350269  -0.306661924
      10   0.250000000   0.433012702   0.000000000
      11   0.250000000   0.433012702   0.153330962
      12   0.250000000   0.433012702  -0.306661924

     Calculation of q =    0.0000000   0.0000000   0.0000000

                                                                                

     bravais-lattice index     =            4
     lattice parameter (alat)  =       7.0900  a.u.
     unit-cell volume          =     503.2450 (a.u.)^3
     number of atoms/cell      =            2
     number of atomic types    =            1
     kinetic-energy cut-off    =      40.0000  Ry
     charge density cut-off    =     320.0000  Ry
     convergence threshold     =      1.0E-15
     beta                      =       0.7000
     number of iterations used =            4
     Exchange-correlation      = SLA  PW   PBE  PBE ( 1  4  3  4 0 0)


     celldm(1)=    7.09000  celldm(2)=    0.00000  celldm(3)=    1.63046
     celldm(4)=    0.00000  celldm(5)=    0.00000  celldm(6)=    0.00000

     crystal axes: (cart. coord. in units of alat)
               a(1) = (  1.0000  0.0000  0.0000 )  
               a(2) = ( -0.5000  0.8660  0.0000 )  
               a(3) = (  0.0000  0.0000  1.6305 )  

     reciprocal axes: (cart. coord. in units 2 pi/alat)
               b(1) = (  1.0000  0.5774  0.0000 )  
               b(2) = (  0.0000  1.1547  0.0000 )  
               b(3) = (  0.0000  0.0000  0.6133 )  


     Atoms inside the unit cell: 

     Cartesian axes

     site n.  atom      mass           positions (alat units)
        1     Na  22.9900   tau(    1) = (    0.00000    0.00000    0.00000  )
        2     Na  22.9900   tau(    2) = (    0.50000    0.28868    0.81523  )

     Computing dynamical matrix for 
                    q = (   0.0000000   0.0000000   0.0000000 )
 
     25 Sym.Ops. (with q -> -q+G )


     G cutoff =  407.4579  (   6081 G-vectors)     FFT grid: ( 45, 45, 72)
     G cutoff =  203.7289  (   2168 G-vectors)  smooth grid: ( 30, 30, 48)

     number of k points=   366  Marzari-Vanderbilt smearing, width (Ry)=  0.0200

     PseudoPot. # 1 for Na read from file:
     ./Na_pbe_v1.uspp.F.UPF
     MD5 check sum: 76a99c7e9422403d3e93cbc85ab7bccb
     Pseudo is Ultrasoft, Zval =  9.0
     Generated by new atomic code, or converted to UPF format
     Using radial grid of  819 points,  5 beta functions with: 
                l(1) =   0
                l(2) =   0
                l(3) =   1
                l(4) =   1
                l(5) =   2
     Q(r) pseudized with  8 coefficients,  rinner =    1.250   1.250   1.250
                                                       1.250   1.250

     Mode symmetry, D_6h(6/mmm) point group:


     Atomic displacements:
     There are   4 irreducible representations

     Representation     1      1 modes -B_1g  To be done

     Representation     2      2 modes -E_2g  To be done

     Representation     3      1 modes -A_2u  To be done

     Representation     4      2 modes -E_1u  To be done



     Alpha used in Ewald sum =   2.8000
     PHONON       :     5.40s CPU         8.29s WALL



     Representation #  1 mode #   1

     Self-consistent Calculation
 
     Pert. #  1: Fermi energy shift (Ry) =     0.0000E+00     0.0000E+00

      iter #   1 total cpu time :     9.0 secs   av.it.:   5.4
      thresh= 1.000E-02 alpha_mix =  0.700 |ddv_scf|^2 =  2.804E-05
 
     Pert. #  1: Fermi energy shift (Ry) =    -5.6469E-22     0.0000E+00

      iter #   2 total cpu time :     9.7 secs   av.it.:   7.2
      thresh= 5.296E-04 alpha_mix =  0.700 |ddv_scf|^2 =  1.735E-05
 
     Pert. #  1: Fermi energy shift (Ry) =     0.0000E+00     0.0000E+00

      iter #   3 total cpu time :    10.3 secs   av.it.:   7.0
      thresh= 4.165E-04 alpha_mix =  0.700 |ddv_scf|^2 =  2.205E-08
 
     Pert. #  1: Fermi energy shift (Ry) =     1.4117E-22     3.8265E-42

      iter #   4 total cpu time :    11.0 secs   av.it.:   8.3
      thresh= 1.485E-05 alpha_mix =  0.700 |ddv_scf|^2 =  8.804E-11
 
     Pert. #  1: Fermi energy shift (Ry) =     0.0000E+00     0.0000E+00

      iter #   5 total cpu time :    11.6 secs   av.it.:   7.3
      thresh= 9.383E-07 alpha_mix =  0.700 |ddv_scf|^2 =  1.793E-12
 
     Pert. #  1: Fermi energy shift (Ry) =     0.0000E+00     0.0000E+00

      iter #   6 total cpu time :    12.4 secs   av.it.:   7.2
      thresh= 1.339E-07 alpha_mix =  0.700 |ddv_scf|^2 =  4.792E-15
 
     Pert. #  1: Fermi energy shift (Ry) =     0.0000E+00     1.4947E-44

      iter #   7 total cpu time :    13.1 secs   av.it.:   8.1
      thresh= 6.923E-09 alpha_mix =  0.700 |ddv_scf|^2 =  1.324E-17

     End of self-consistent calculation

     Convergence has been achieved 


     Representation #  2 modes #   2  3

     Self-consistent Calculation
 
     Pert. #  1: Fermi energy shift (Ry) =    -4.7602E-20    -4.5755E-41
     Pert. #  2: Fermi energy shift (Ry) =    -1.0842E-19    -3.0612E-40

      iter #   1 total cpu time :    16.3 secs   av.it.:   5.1
      thresh= 1.000E-02 alpha_mix =  0.700 |ddv_scf|^2 =  7.436E-07
 
     Pert. #  1: Fermi energy shift (Ry) =    -6.2988E-20    -1.0109E-42
     Pert. #  2: Fermi energy shift (Ry) =     4.5175E-21     0.0000E+00

      iter #   2 total cpu time :    19.1 secs   av.it.:   8.6
      thresh= 8.624E-05 alpha_mix =  0.700 |ddv_scf|^2 =  1.281E-08
 
     Pert. #  1: Fermi energy shift (Ry) =    -6.2172E-21    -1.4213E-42
     Pert. #  2: Fermi energy shift (Ry) =    -5.6469E-21     3.8265E-42

      iter #   3 total cpu time :    22.1 secs   av.it.:   8.8
      thresh= 1.132E-05 alpha_mix =  0.700 |ddv_scf|^2 =  4.306E-10
 
     Pert. #  1: Fermi energy shift (Ry) =     1.1246E-21    -2.4170E-43
     Pert. #  2: Fermi energy shift (Ry) =    -4.5175E-21     2.3915E-42

      iter #   4 total cpu time :    25.5 secs   av.it.:   8.4
      thresh= 2.075E-06 alpha_mix =  0.700 |ddv_scf|^2 =  1.403E-12
 
     Pert. #  1: Fermi energy shift (Ry) =    -4.5233E-24     8.8834E-44
     Pert. #  2: Fermi energy shift (Ry) =     3.3881E-21    -2.3915E-43

      iter #   5 total cpu time :    27.9 secs   av.it.:   8.8
      thresh= 1.184E-07 alpha_mix =  0.700 |ddv_scf|^2 =  2.089E-15
 
     Pert. #  1: Fermi energy shift (Ry) =    -8.4748E-21    -1.5796E-44
     Pert. #  2: Fermi energy shift (Ry) =     4.5175E-21     0.0000E+00

      iter #   6 total cpu time :    31.0 secs   av.it.:   7.9
      thresh= 4.570E-09 alpha_mix =  0.700 |ddv_scf|^2 =  9.032E-17

     End of self-consistent calculation

     Convergence has been achieved 


     Representation #  3 mode #   4

     Self-consistent Calculation
 
     Pert. #  1: Fermi energy shift (Ry) =     2.5849E-26    -1.0031E-36

      iter #   1 total cpu time :    33.5 secs   av.it.:   5.1
      thresh= 1.000E-02 alpha_mix =  0.700 |ddv_scf|^2 =  2.788E-06
 
     Pert. #  1: Fermi energy shift (Ry) =    -1.3786E-25    -3.9183E-39

      iter #   2 total cpu time :    35.5 secs   av.it.:   8.0
      thresh= 1.670E-04 alpha_mix =  0.700 |ddv_scf|^2 =  5.229E-08
 
     Pert. #  1: Fermi energy shift (Ry) =     6.8932E-26    -4.8979E-40

      iter #   3 total cpu time :    37.5 secs   av.it.:   8.2
      thresh= 2.287E-05 alpha_mix =  0.700 |ddv_scf|^2 =  1.110E-09
 
     Pert. #  1: Fermi energy shift (Ry) =    -4.3082E-27    -1.2245E-40

      iter #   4 total cpu time :    40.1 secs   av.it.:   7.7
      thresh= 3.332E-06 alpha_mix =  0.700 |ddv_scf|^2 =  3.714E-12
 
     Pert. #  1: Fermi energy shift (Ry) =     8.6165E-27     1.5306E-41

      iter #   5 total cpu time :    41.8 secs   av.it.:   8.2
      thresh= 1.927E-07 alpha_mix =  0.700 |ddv_scf|^2 =  8.312E-15
 
     Pert. #  1: Fermi energy shift (Ry) =    -1.7233E-26     1.5306E-41

      iter #   6 total cpu time :    43.3 secs   av.it.:   7.7
      thresh= 9.117E-09 alpha_mix =  0.700 |ddv_scf|^2 =  1.949E-16

     End of self-consistent calculation

     Convergence has been achieved 


     Representation #  4 modes #   5  6

     Self-consistent Calculation
 
     Pert. #  1: Fermi energy shift (Ry) =     9.9259E-25     1.2539E-37
     Pert. #  2: Fermi energy shift (Ry) =    -7.7204E-24     2.3510E-37

      iter #   1 total cpu time :    45.4 secs   av.it.:   5.2
      thresh= 1.000E-02 alpha_mix =  0.700 |ddv_scf|^2 =  6.996E-07
 
     Pert. #  1: Fermi energy shift (Ry) =     8.8316E-25    -9.7958E-40
     Pert. #  2: Fermi energy shift (Ry) =     2.7573E-25    -1.8367E-39

      iter #   2 total cpu time :    47.5 secs   av.it.:   8.7
      thresh= 8.364E-05 alpha_mix =  0.700 |ddv_scf|^2 =  1.302E-08
 
     Pert. #  1: Fermi energy shift (Ry) =    -3.8613E-27    -6.1224E-41
     Pert. #  2: Fermi energy shift (Ry) =    -2.7573E-25    -1.1479E-40

      iter #   3 total cpu time :    50.2 secs   av.it.:   9.0
      thresh= 1.141E-05 alpha_mix =  0.700 |ddv_scf|^2 =  2.885E-10
 
     Pert. #  1: Fermi energy shift (Ry) =    -2.3080E-25    -3.8265E-42
     Pert. #  2: Fermi energy shift (Ry) =     1.3786E-25    -7.1746E-42

      iter #   4 total cpu time :    56.0 secs   av.it.:   8.7
      thresh= 1.699E-06 alpha_mix =  0.700 |ddv_scf|^2 =  9.681E-13
 
     Pert. #  1: Fermi energy shift (Ry) =    -5.3995E-25    -4.7831E-43
     Pert. #  2: Fermi energy shift (Ry) =     1.3786E-25    -8.9683E-43

      iter #   5 total cpu time :    59.3 secs   av.it.:   9.1
      thresh= 9.839E-08 alpha_mix =  0.700 |ddv_scf|^2 =  2.024E-15
 
     Pert. #  1: Fermi energy shift (Ry) =     4.5922E-26    -4.7831E-43
     Pert. #  2: Fermi energy shift (Ry) =     5.5145E-25    -8.9683E-43

      iter #   6 total cpu time :    62.4 secs   av.it.:   8.6
      thresh= 4.498E-09 alpha_mix =  0.700 |ddv_scf|^2 =  4.844E-17

     End of self-consistent calculation

     Convergence has been achieved 
 
     Number of q in the star =    1
     List of q in the star:
          1   0.000000000   0.000000000   0.000000000

     Diagonalizing the dynamical matrix

     q = (    0.000000000   0.000000000   0.000000000 ) 

 **************************************************************************
     freq (    1) =      -0.549866 [THz] =     -18.341562 [cm-1]
     freq (    2) =      -0.486608 [THz] =     -16.231486 [cm-1]
     freq (    3) =      -0.486608 [THz] =     -16.231486 [cm-1]
     freq (    4) =       1.542392 [THz] =      51.448650 [cm-1]
     freq (    5) =       1.542392 [THz] =      51.448650 [cm-1]
     freq (    6) =       3.815746 [THz] =     127.279586 [cm-1]
 **************************************************************************

     Mode symmetry, D_6h(6/mmm) point group:

     freq (  1 -  1) =        -18.3  [cm-1]   --> A_2u            I  
     freq (  2 -  3) =        -16.2  [cm-1]   --> E_1u            I  
     freq (  4 -  5) =         51.4  [cm-1]   --> E_2g            R  
     freq (  6 -  6) =        127.3  [cm-1]   --> B_1g               

     Calculation of q =    0.0000000   0.0000000   0.1533310
 
     Parallelization info
     --------------------
     sticks:   dense  smooth     PW     G-vecs:    dense   smooth      PW
     Min         138      69     20                 6076     2153     362
     Max         139      70     21                 6081     2170     369
     Sum        1111     559    163                48635    17285    2923
 


     bravais-lattice index     =            4
     lattice parameter (alat)  =       7.0900  a.u.
     unit-cell volume          =     503.2450 (a.u.)^3
     number of atoms/cell      =            2
     number of atomic types    =            1
     number of electrons       =        18.00
     number of Kohn-Sham states=           13
     kinetic-energy cutoff     =      40.0000  Ry
     charge density cutoff     =     320.0000  Ry
     Exchange-correlation      = SLA  PW   PBE  PBE ( 1  4  3  4 0 0)

     celldm(1)=   7.090000  celldm(2)=   0.000000  celldm(3)=   1.630460
     celldm(4)=   0.000000  celldm(5)=   0.000000  celldm(6)=   0.000000

     crystal axes: (cart. coord. in units of alat)
               a(1) = (   1.000000   0.000000   0.000000 )  
               a(2) = (  -0.500000   0.866025   0.000000 )  
               a(3) = (   0.000000   0.000000   1.630460 )  

     reciprocal axes: (cart. coord. in units 2 pi/alat)
               b(1) = (  1.000000  0.577350  0.000000 )  
               b(2) = (  0.000000  1.154701  0.000000 )  
               b(3) = (  0.000000  0.000000  0.613324 )  


     PseudoPot. # 1 for Na read from file:
     ./Na_pbe_v1.uspp.F.UPF
     MD5 check sum: 76a99c7e9422403d3e93cbc85ab7bccb
     Pseudo is Ultrasoft, Zval =  9.0
     Generated by new atomic code, or converted to UPF format
     Using radial grid of  819 points,  5 beta functions with: 
                l(1) =   0
                l(2) =   0
                l(3) =   1
                l(4) =   1
                l(5) =   2
     Q(r) pseudized with  8 coefficients,  rinner =    1.250   1.250   1.250
                                                       1.250   1.250

     atomic species   valence    mass     pseudopotential
        Na             9.00    22.99000     Na( 1.00)

     24 Sym. Ops., with inversion, found



   Cartesian axes

     site n.     atom                  positions (alat units)
         1           Na  tau(   1) = (   0.0000000   0.0000000   0.0000000  )
         2           Na  tau(   2) = (   0.4999999   0.2886751   0.8152300  )

     number of k points=  1464  Marzari-Vanderbilt smearing, width (Ry)=  0.0200

     Number of k-points >= 100: set verbosity='high' to print them.

     Dense  grid:    48635 G-vectors     FFT dimensions: (  45,  45,  72)

     Smooth grid:    17285 G-vectors     FFT dimensions: (  30,  30,  48)

     Largest allocated arrays     est. size (Mb)     dimensions
        Kohn-Sham Wavefunctions         0.05 Mb     (     275,   13)
        NL pseudopotentials             0.11 Mb     (     275,   26)
        Each V/rho on FFT grid          0.28 Mb     (   18225)
        Each G-vector array             0.05 Mb     (    6081)
        G-vector shells                 0.01 Mb     (    1695)
     Largest temporary arrays     est. size (Mb)     dimensions
        Auxiliary wavefunctions         0.22 Mb     (     275,   52)
        Each subspace H/S matrix        0.01 Mb     (      26,   26)
        Each <psi_i|beta_j> matrix      0.01 Mb     (      26,   13)

     The potential is recalculated from file :
     ./na_hcp_7.09/_ph0/na_hcp_7.09.save/charge-density.dat

     Starting wfc are   10 atomic +    3 random wfc

     Band Structure Calculation
     Davidson diagonalization with overlap

     ethr =  5.56E-11,  avg # of iterations = 23.7

     total cpu time spent up to now is        5.0 secs

     End of band structure calculation

     Number of k-points >= 100: set verbosity='high' to print the bands.

     the Fermi energy is     1.5799 ev

     Writing output data file na_hcp_7.09.save

                                                                                

     bravais-lattice index     =            4
     lattice parameter (alat)  =       7.0900  a.u.
     unit-cell volume          =     503.2450 (a.u.)^3
     number of atoms/cell      =            2
     number of atomic types    =            1
     kinetic-energy cut-off    =      40.0000  Ry
     charge density cut-off    =     320.0000  Ry
     convergence threshold     =      1.0E-15
     beta                      =       0.7000
     number of iterations used =            4
     Exchange-correlation      = SLA  PW   PBE  PBE ( 1  4  3  4 0 0)


     celldm(1)=    7.09000  celldm(2)=    0.00000  celldm(3)=    1.63046
     celldm(4)=    0.00000  celldm(5)=    0.00000  celldm(6)=    0.00000

     crystal axes: (cart. coord. in units of alat)
               a(1) = (  1.0000  0.0000  0.0000 )  
               a(2) = ( -0.5000  0.8660  0.0000 )  
               a(3) = (  0.0000  0.0000  1.6305 )  

     reciprocal axes: (cart. coord. in units 2 pi/alat)
               b(1) = (  1.0000  0.5774  0.0000 )  
               b(2) = (  0.0000  1.1547  0.0000 )  
               b(3) = (  0.0000  0.0000  0.6133 )  


     Atoms inside the unit cell: 

     Cartesian axes

     site n.  atom      mass           positions (alat units)
        1     Na  22.9900   tau(    1) = (    0.00000    0.00000    0.00000  )
        2     Na  22.9900   tau(    2) = (    0.50000    0.28868    0.81523  )

     Computing dynamical matrix for 
                    q = (   0.0000000   0.0000000   0.1533310 )
 
     12 Sym.Ops. (no q -> -q+G )


     G cutoff =  407.4579  (   6081 G-vectors)     FFT grid: ( 45, 45, 72)
     G cutoff =  203.7289  (   2170 G-vectors)  smooth grid: ( 30, 30, 48)

     number of k points=  1464  Marzari-Vanderbilt smearing, width (Ry)=  0.0200

     PseudoPot. # 1 for Na read from file:
     ./Na_pbe_v1.uspp.F.UPF
     MD5 check sum: 76a99c7e9422403d3e93cbc85ab7bccb
     Pseudo is Ultrasoft, Zval =  9.0
     Generated by new atomic code, or converted to UPF format
     Using radial grid of  819 points,  5 beta functions with: 
                l(1) =   0
                l(2) =   0
                l(3) =   1
                l(4) =   1
                l(5) =   2
     Q(r) pseudized with  8 coefficients,  rinner =    1.250   1.250   1.250
                                                       1.250   1.250

     Mode symmetry, C_6v (6mm)  point group:


     Atomic displacements:
     There are   4 irreducible representations

     Representation     1      1 modes -A_1  To be done

     Representation     2      1 modes -B_2  To be done

     Representation     3      2 modes -E_1  To be done

     Representation     4      2 modes -E_2  To be done



     Alpha used in Ewald sum =   2.8000
     PHONON       :  1m 2.69s CPU     1m10.93s WALL



     Representation #  1 mode #   1

     Self-consistent Calculation

      iter #   1 total cpu time :    83.1 secs   av.it.:   5.4
      thresh= 1.000E-02 alpha_mix =  0.700 |ddv_scf|^2 =  4.661E-02

      iter #   2 total cpu time :    85.2 secs   av.it.:   6.8
      thresh= 1.000E-02 alpha_mix =  0.700 |ddv_scf|^2 =  2.607E+01

      iter #   3 total cpu time :    86.9 secs   av.it.:   6.8
      thresh= 1.000E-02 alpha_mix =  0.700 |ddv_scf|^2 =  9.891E-05

      iter #   4 total cpu time :    88.9 secs   av.it.:   5.5
      thresh= 9.946E-04 alpha_mix =  0.700 |ddv_scf|^2 =  3.682E-08

      iter #   5 total cpu time :    91.5 secs   av.it.:   7.7
      thresh= 1.919E-05 alpha_mix =  0.700 |ddv_scf|^2 =  7.376E-09

      iter #   6 total cpu time :    95.2 secs   av.it.:   5.5
      thresh= 8.588E-06 alpha_mix =  0.700 |ddv_scf|^2 =  1.044E-07

      iter #   7 total cpu time :    97.6 secs   av.it.:   5.6
      thresh= 3.231E-05 alpha_mix =  0.700 |ddv_scf|^2 =  8.824E-12

      iter #   8 total cpu time :   100.5 secs   av.it.:   8.5
      thresh= 2.970E-07 alpha_mix =  0.700 |ddv_scf|^2 =  3.079E-13

      iter #   9 total cpu time :   102.6 secs   av.it.:   8.7
      thresh= 5.549E-08 alpha_mix =  0.700 |ddv_scf|^2 =  1.148E-14

      iter #  10 total cpu time :   104.8 secs   av.it.:   8.7
      thresh= 1.072E-08 alpha_mix =  0.700 |ddv_scf|^2 =  2.725E-15

      iter #  11 total cpu time :   106.9 secs   av.it.:   7.1
      thresh= 5.220E-09 alpha_mix =  0.700 |ddv_scf|^2 =  2.021E-13

      iter #  12 total cpu time :   108.6 secs   av.it.:   4.4
      thresh= 4.495E-08 alpha_mix =  0.700 |ddv_scf|^2 =  4.784E-16

     End of self-consistent calculation

     Convergence has been achieved 


     Representation #  2 mode #   2

     Self-consistent Calculation

      iter #   1 total cpu time :   111.3 secs   av.it.:   5.4
      thresh= 1.000E-02 alpha_mix =  0.700 |ddv_scf|^2 =  7.382E-05

      iter #   2 total cpu time :   114.4 secs   av.it.:   7.2
      thresh= 8.592E-04 alpha_mix =  0.700 |ddv_scf|^2 =  2.514E-04

      iter #   3 total cpu time :   116.1 secs   av.it.:   6.4
      thresh= 1.586E-03 alpha_mix =  0.700 |ddv_scf|^2 =  1.228E-07

      iter #   4 total cpu time :   118.7 secs   av.it.:   8.2
      thresh= 3.504E-05 alpha_mix =  0.700 |ddv_scf|^2 =  3.293E-09

      iter #   5 total cpu time :   121.3 secs   av.it.:   8.7
      thresh= 5.738E-06 alpha_mix =  0.700 |ddv_scf|^2 =  7.767E-11

      iter #   6 total cpu time :   123.3 secs   av.it.:   8.7
      thresh= 8.813E-07 alpha_mix =  0.700 |ddv_scf|^2 =  5.510E-12

      iter #   7 total cpu time :   125.7 secs   av.it.:   8.3
      thresh= 2.347E-07 alpha_mix =  0.700 |ddv_scf|^2 =  3.273E-13

      iter #   8 total cpu time :   128.2 secs   av.it.:   8.5
      thresh= 5.721E-08 alpha_mix =  0.700 |ddv_scf|^2 =  1.613E-14

      iter #   9 total cpu time :   131.1 secs   av.it.:   7.7
      thresh= 1.270E-08 alpha_mix =  0.700 |ddv_scf|^2 =  4.613E-16

     End of self-consistent calculation

     Convergence has been achieved 


     Representation #  3 modes #   3  4

     Self-consistent Calculation

      iter #   1 total cpu time :   136.7 secs   av.it.:   5.1
      thresh= 1.000E-02 alpha_mix =  0.700 |ddv_scf|^2 =  7.052E-07

      iter #   2 total cpu time :   140.3 secs   av.it.:   8.6
      thresh= 8.398E-05 alpha_mix =  0.700 |ddv_scf|^2 =  1.300E-08

      iter #   3 total cpu time :   144.8 secs   av.it.:   8.8
      thresh= 1.140E-05 alpha_mix =  0.700 |ddv_scf|^2 =  3.040E-10

      iter #   4 total cpu time :   149.3 secs   av.it.:   8.5
      thresh= 1.743E-06 alpha_mix =  0.700 |ddv_scf|^2 =  1.008E-12

      iter #   5 total cpu time :   153.8 secs   av.it.:   8.9
      thresh= 1.004E-07 alpha_mix =  0.700 |ddv_scf|^2 =  2.065E-15

      iter #   6 total cpu time :   159.5 secs   av.it.:   8.3
      thresh= 4.544E-09 alpha_mix =  0.700 |ddv_scf|^2 =  5.695E-17

     End of self-consistent calculation

     Convergence has been achieved 


     Representation #  4 modes #   5  6

     Self-consistent Calculation

      iter #   1 total cpu time :   166.0 secs   av.it.:   5.1
      thresh= 1.000E-02 alpha_mix =  0.700 |ddv_scf|^2 =  7.364E-07

      iter #   2 total cpu time :   174.0 secs   av.it.:   8.6
      thresh= 8.581E-05 alpha_mix =  0.700 |ddv_scf|^2 =  1.286E-08

      iter #   3 total cpu time :   180.3 secs   av.it.:   8.8
      thresh= 1.134E-05 alpha_mix =  0.700 |ddv_scf|^2 =  4.040E-10

      iter #   4 total cpu time :   184.9 secs   av.it.:   8.5
      thresh= 2.010E-06 alpha_mix =  0.700 |ddv_scf|^2 =  1.317E-12

      iter #   5 total cpu time :   190.2 secs   av.it.:   8.9
      thresh= 1.147E-07 alpha_mix =  0.700 |ddv_scf|^2 =  2.111E-15

      iter #   6 total cpu time :   196.1 secs   av.it.:   8.0
      thresh= 4.594E-09 alpha_mix =  0.700 |ddv_scf|^2 =  8.625E-17

     End of self-consistent calculation

     Convergence has been achieved 
 
     Number of q in the star =    2
     List of q in the star:
          1   0.000000000   0.000000000   0.153330962
          2   0.000000000   0.000000000  -0.153330962

     Diagonalizing the dynamical matrix

     q = (    0.000000000   0.000000000   0.153330962 ) 

 **************************************************************************
     freq (    1) =       0.497228 [THz] =      16.585733 [cm-1]
     freq (    2) =       0.497228 [THz] =      16.585733 [cm-1]
     freq (    3) =       1.443606 [THz] =      48.153506 [cm-1]
     freq (    4) =       1.443606 [THz] =      48.153506 [cm-1]
     freq (    5) =       1.526825 [THz] =      50.929392 [cm-1]
     freq (    6) =       3.563467 [THz] =     118.864474 [cm-1]
 **************************************************************************

     Mode symmetry, C_6v (6mm)  point group:

     freq (  1 -  2) =         16.6  [cm-1]   --> E_1                
     freq (  3 -  4) =         48.2  [cm-1]   --> E_2                
     freq (  5 -  5) =         50.9  [cm-1]   --> A_1                
     freq (  6 -  6) =        118.9  [cm-1]   --> B_2                

     Calculation of q =    0.0000000   0.0000000  -0.3066619
 
     Parallelization info
     --------------------
     sticks:   dense  smooth     PW     G-vecs:    dense   smooth      PW
     Min         138      69     20                 6076     2151     356
     Max         139      70     21                 6081     2170     363
     Sum        1111     559    163                48635    17285    2875
 


     bravais-lattice index     =            4
     lattice parameter (alat)  =       7.0900  a.u.
     unit-cell volume          =     503.2450 (a.u.)^3
     number of atoms/cell      =            2
     number of atomic types    =            1
     number of electrons       =        18.00
     number of Kohn-Sham states=           13
     kinetic-energy cutoff     =      40.0000  Ry
     charge density cutoff     =     320.0000  Ry
     Exchange-correlation      = SLA  PW   PBE  PBE ( 1  4  3  4 0 0)

     celldm(1)=   7.090000  celldm(2)=   0.000000  celldm(3)=   1.630460
     celldm(4)=   0.000000  celldm(5)=   0.000000  celldm(6)=   0.000000

     crystal axes: (cart. coord. in units of alat)
               a(1) = (   1.000000   0.000000   0.000000 )  
               a(2) = (  -0.500000   0.866025   0.000000 )  
               a(3) = (   0.000000   0.000000   1.630460 )  

     reciprocal axes: (cart. coord. in units 2 pi/alat)
               b(1) = (  1.000000  0.577350  0.000000 )  
               b(2) = (  0.000000  1.154701  0.000000 )  
               b(3) = (  0.000000  0.000000  0.613324 )  


     PseudoPot. # 1 for Na read from file:
     ./Na_pbe_v1.uspp.F.UPF
     MD5 check sum: 76a99c7e9422403d3e93cbc85ab7bccb
     Pseudo is Ultrasoft, Zval =  9.0
     Generated by new atomic code, or converted to UPF format
     Using radial grid of  819 points,  5 beta functions with: 
                l(1) =   0
                l(2) =   0
                l(3) =   1
                l(4) =   1
                l(5) =   2
     Q(r) pseudized with  8 coefficients,  rinner =    1.250   1.250   1.250
                                                       1.250   1.250

     atomic species   valence    mass     pseudopotential
        Na             9.00    22.99000     Na( 1.00)

     24 Sym. Ops., with inversion, found



   Cartesian axes

     site n.     atom                  positions (alat units)
         1           Na  tau(   1) = (   0.0000000   0.0000000   0.0000000  )
         2           Na  tau(   2) = (   0.4999999   0.2886751   0.8152300  )

     number of k points=   732  Marzari-Vanderbilt smearing, width (Ry)=  0.0200

     Number of k-points >= 100: set verbosity='high' to print them.

     Dense  grid:    48635 G-vectors     FFT dimensions: (  45,  45,  72)

     Smooth grid:    17285 G-vectors     FFT dimensions: (  30,  30,  48)

     Largest allocated arrays     est. size (Mb)     dimensions
        Kohn-Sham Wavefunctions         0.06 Mb     (     282,   13)
        NL pseudopotentials             0.11 Mb     (     282,   26)
        Each V/rho on FFT grid          0.28 Mb     (   18225)
        Each G-vector array             0.05 Mb     (    6081)
        G-vector shells                 0.01 Mb     (    1760)
     Largest temporary arrays     est. size (Mb)     dimensions
        Auxiliary wavefunctions         0.22 Mb     (     282,   52)
        Each subspace H/S matrix        0.01 Mb     (      26,   26)
        Each <psi_i|beta_j> matrix      0.01 Mb     (      26,   13)

     The potential is recalculated from file :
     ./na_hcp_7.09/_ph0/na_hcp_7.09.save/charge-density.dat

     Starting wfc are   10 atomic +    3 random wfc

     Band Structure Calculation
     Davidson diagonalization with overlap

     ethr =  5.56E-11,  avg # of iterations = 23.8

     total cpu time spent up to now is        9.6 secs

     End of band structure calculation

     Number of k-points >= 100: set verbosity='high' to print the bands.

     the Fermi energy is     1.5799 ev

     Writing output data file na_hcp_7.09.save

                                                                                

     bravais-lattice index     =            4
     lattice parameter (alat)  =       7.0900  a.u.
     unit-cell volume          =     503.2450 (a.u.)^3
     number of atoms/cell      =            2
     number of atomic types    =            1
     kinetic-energy cut-off    =      40.0000  Ry
     charge density cut-off    =     320.0000  Ry
     convergence threshold     =      1.0E-15
     beta                      =       0.7000
     number of iterations used =            4
     Exchange-correlation      = SLA  PW   PBE  PBE ( 1  4  3  4 0 0)


     celldm(1)=    7.09000  celldm(2)=    0.00000  celldm(3)=    1.63046
     celldm(4)=    0.00000  celldm(5)=    0.00000  celldm(6)=    0.00000

     crystal axes: (cart. coord. in units of alat)
               a(1) = (  1.0000  0.0000  0.0000 )  
               a(2) = ( -0.5000  0.8660  0.0000 )  
               a(3) = (  0.0000  0.0000  1.6305 )  

     reciprocal axes: (cart. coord. in units 2 pi/alat)
               b(1) = (  1.0000  0.5774  0.0000 )  
               b(2) = (  0.0000  1.1547  0.0000 )  
               b(3) = (  0.0000  0.0000  0.6133 )  


     Atoms inside the unit cell: 

     Cartesian axes

     site n.  atom      mass           positions (alat units)
        1     Na  22.9900   tau(    1) = (    0.00000    0.00000    0.00000  )
        2     Na  22.9900   tau(    2) = (    0.50000    0.28868    0.81523  )

     Computing dynamical matrix for 
                    q = (   0.0000000   0.0000000  -0.3066619 )
 
     25 Sym.Ops. (with q -> -q+G )


     G cutoff =  407.4579  (   6081 G-vectors)     FFT grid: ( 45, 45, 72)
     G cutoff =  203.7289  (   2168 G-vectors)  smooth grid: ( 30, 30, 48)

     number of k points=   732  Marzari-Vanderbilt smearing, width (Ry)=  0.0200

     PseudoPot. # 1 for Na read from file:
     ./Na_pbe_v1.uspp.F.UPF
     MD5 check sum: 76a99c7e9422403d3e93cbc85ab7bccb
     Pseudo is Ultrasoft, Zval =  9.0
     Generated by new atomic code, or converted to UPF format
     Using radial grid of  819 points,  5 beta functions with: 
                l(1) =   0
                l(2) =   0
                l(3) =   1
                l(4) =   1
                l(5) =   2
     Q(r) pseudized with  8 coefficients,  rinner =    1.250   1.250   1.250
                                                       1.250   1.250


     Atomic displacements:
     There are   2 irreducible representations

     Representation     1      4 modes -  To be done

     Representation     2      2 modes -  To be done



     Alpha used in Ewald sum =   2.8000
     PHONON       :  3m 3.79s CPU     3m21.92s WALL



     Representation #  1 modes #   1  2  3  4

     Self-consistent Calculation

      iter #   1 total cpu time :   207.1 secs   av.it.:   5.2
      thresh= 1.000E-02 alpha_mix =  0.700 |ddv_scf|^2 =  1.800E-07

      iter #   2 total cpu time :   213.8 secs   av.it.:   9.4
      thresh= 4.243E-05 alpha_mix =  0.700 |ddv_scf|^2 =  3.231E-09

      iter #   3 total cpu time :   220.8 secs   av.it.:   9.7
      thresh= 5.685E-06 alpha_mix =  0.700 |ddv_scf|^2 =  8.684E-11

      iter #   4 total cpu time :   227.9 secs   av.it.:   9.2
      thresh= 9.319E-07 alpha_mix =  0.700 |ddv_scf|^2 =  2.860E-13

      iter #   5 total cpu time :   233.9 secs   av.it.:   9.5
      thresh= 5.348E-08 alpha_mix =  0.700 |ddv_scf|^2 =  5.315E-16

     End of self-consistent calculation

     Convergence has been achieved 


     Representation #  2 modes #   5  6

     Self-consistent Calculation

      iter #   1 total cpu time :   237.4 secs   av.it.:   5.7
      thresh= 1.000E-02 alpha_mix =  0.700 |ddv_scf|^2 =  1.856E-04

      iter #   2 total cpu time :   240.3 secs   av.it.:   7.7
      thresh= 1.362E-03 alpha_mix =  0.700 |ddv_scf|^2 =  5.085E-03

      iter #   3 total cpu time :   243.1 secs   av.it.:   6.1
      thresh= 7.131E-03 alpha_mix =  0.700 |ddv_scf|^2 =  1.305E-07

      iter #   4 total cpu time :   246.0 secs   av.it.:   8.6
      thresh= 3.613E-05 alpha_mix =  0.700 |ddv_scf|^2 =  6.800E-10

      iter #   5 total cpu time :   248.8 secs   av.it.:   9.5
      thresh= 2.608E-06 alpha_mix =  0.700 |ddv_scf|^2 =  5.327E-11

      iter #   6 total cpu time :   252.4 secs   av.it.:   9.4
      thresh= 7.299E-07 alpha_mix =  0.700 |ddv_scf|^2 =  1.312E-12

      iter #   7 total cpu time :   255.7 secs   av.it.:   9.7
      thresh= 1.145E-07 alpha_mix =  0.700 |ddv_scf|^2 =  1.971E-13

      iter #   8 total cpu time :   258.3 secs   av.it.:   8.3
      thresh= 4.440E-08 alpha_mix =  0.700 |ddv_scf|^2 =  2.637E-16

     End of self-consistent calculation

     Convergence has been achieved 
 
     Number of q in the star =    1
     List of q in the star:
          1   0.000000000   0.000000000  -0.306661924

     Diagonalizing the dynamical matrix

     q = (    0.000000000   0.000000000  -0.306661924 ) 

 **************************************************************************
     freq (    1) =       0.980318 [THz] =      32.699901 [cm-1]
     freq (    2) =       0.980318 [THz] =      32.699901 [cm-1]
     freq (    3) =       0.980318 [THz] =      32.699901 [cm-1]
     freq (    4) =       0.980318 [THz] =      32.699901 [cm-1]
     freq (    5) =       2.795305 [THz] =      93.241349 [cm-1]
     freq (    6) =       2.795305 [THz] =      93.241349 [cm-1]
 **************************************************************************

     Calculation of q =    0.0000000   0.2886751   0.0000000
 
     Parallelization info
     --------------------
     sticks:   dense  smooth     PW     G-vecs:    dense   smooth      PW
     Min         138      69     23                 6076     2151     395
     Max         139      70     24                 6081     2170     398
     Sum        1111     559    187                48635    17285    3177
 


     bravais-lattice index     =            4
     lattice parameter (alat)  =       7.0900  a.u.
     unit-cell volume          =     503.2450 (a.u.)^3
     number of atoms/cell      =            2
     number of atomic types    =            1
     number of electrons       =        18.00
     number of Kohn-Sham states=           13
     kinetic-energy cutoff     =      40.0000  Ry
     charge density cutoff     =     320.0000  Ry
     Exchange-correlation      = SLA  PW   PBE  PBE ( 1  4  3  4 0 0)

     celldm(1)=   7.090000  celldm(2)=   0.000000  celldm(3)=   1.630460
     celldm(4)=   0.000000  celldm(5)=   0.000000  celldm(6)=   0.000000

     crystal axes: (cart. coord. in units of alat)
               a(1) = (   1.000000   0.000000   0.000000 )  
               a(2) = (  -0.500000   0.866025   0.000000 )  
               a(3) = (   0.000000   0.000000   1.630460 )  

     reciprocal axes: (cart. coord. in units 2 pi/alat)
               b(1) = (  1.000000  0.577350  0.000000 )  
               b(2) = (  0.000000  1.154701  0.000000 )  
               b(3) = (  0.000000  0.000000  0.613324 )  


     PseudoPot. # 1 for Na read from file:
     ./Na_pbe_v1.uspp.F.UPF
     MD5 check sum: 76a99c7e9422403d3e93cbc85ab7bccb
     Pseudo is Ultrasoft, Zval =  9.0
     Generated by new atomic code, or converted to UPF format
     Using radial grid of  819 points,  5 beta functions with: 
                l(1) =   0
                l(2) =   0
                l(3) =   1
                l(4) =   1
                l(5) =   2
     Q(r) pseudized with  8 coefficients,  rinner =    1.250   1.250   1.250
                                                       1.250   1.250

     atomic species   valence    mass     pseudopotential
        Na             9.00    22.99000     Na( 1.00)

     24 Sym. Ops., with inversion, found



   Cartesian axes

     site n.     atom                  positions (alat units)
         1           Na  tau(   1) = (   0.0000000   0.0000000   0.0000000  )
         2           Na  tau(   2) = (   0.4999999   0.2886751   0.8152300  )

     number of k points=  3600  Marzari-Vanderbilt smearing, width (Ry)=  0.0200

     Number of k-points >= 100: set verbosity='high' to print them.

     Dense  grid:    48635 G-vectors     FFT dimensions: (  45,  45,  72)

     Smooth grid:    17285 G-vectors     FFT dimensions: (  30,  30,  48)

     Largest allocated arrays     est. size (Mb)     dimensions
        Kohn-Sham Wavefunctions         0.06 Mb     (     282,   13)
        NL pseudopotentials             0.11 Mb     (     282,   26)
        Each V/rho on FFT grid          0.28 Mb     (   18225)
        Each G-vector array             0.05 Mb     (    6081)
        G-vector shells                 0.01 Mb     (    1790)
     Largest temporary arrays     est. size (Mb)     dimensions
        Auxiliary wavefunctions         0.22 Mb     (     282,   52)
        Each subspace H/S matrix        0.01 Mb     (      26,   26)
        Each <psi_i|beta_j> matrix      0.01 Mb     (      26,   13)

     The potential is recalculated from file :
     ./na_hcp_7.09/_ph0/na_hcp_7.09.save/charge-density.dat

     Starting wfc are   10 atomic +    3 random wfc

     Band Structure Calculation
     Davidson diagonalization with overlap

     ethr =  5.56E-11,  avg # of iterations = 23.1

     total cpu time spent up to now is       29.6 secs

     End of band structure calculation

     Number of k-points >= 100: set verbosity='high' to print the bands.

     the Fermi energy is     1.5799 ev

     Writing output data file na_hcp_7.09.save

                                                                                

     bravais-lattice index     =            4
     lattice parameter (alat)  =       7.0900  a.u.
     unit-cell volume          =     503.2450 (a.u.)^3
     number of atoms/cell      =            2
     number of atomic types    =            1
     kinetic-energy cut-off    =      40.0000  Ry
     charge density cut-off    =     320.0000  Ry
     convergence threshold     =      1.0E-15
     beta                      =       0.7000
     number of iterations used =            4
     Exchange-correlation      = SLA  PW   PBE  PBE ( 1  4  3  4 0 0)


     celldm(1)=    7.09000  celldm(2)=    0.00000  celldm(3)=    1.63046
     celldm(4)=    0.00000  celldm(5)=    0.00000  celldm(6)=    0.00000

     crystal axes: (cart. coord. in units of alat)
               a(1) = (  1.0000  0.0000  0.0000 )  
               a(2) = ( -0.5000  0.8660  0.0000 )  
               a(3) = (  0.0000  0.0000  1.6305 )  

     reciprocal axes: (cart. coord. in units 2 pi/alat)
               b(1) = (  1.0000  0.5774  0.0000 )  
               b(2) = (  0.0000  1.1547  0.0000 )  
               b(3) = (  0.0000  0.0000  0.6133 )  


     Atoms inside the unit cell: 

     Cartesian axes

     site n.  atom      mass           positions (alat units)
        1     Na  22.9900   tau(    1) = (    0.00000    0.00000    0.00000  )
        2     Na  22.9900   tau(    2) = (    0.50000    0.28868    0.81523  )

     Computing dynamical matrix for 
                    q = (   0.0000000   0.2886751   0.0000000 )
 
      4 Sym.Ops. (no q -> -q+G )


     G cutoff =  407.4579  (   6081 G-vectors)     FFT grid: ( 45, 45, 72)
     G cutoff =  203.7289  (   2170 G-vectors)  smooth grid: ( 30, 30, 48)

     number of k points=  3600  Marzari-Vanderbilt smearing, width (Ry)=  0.0200

     PseudoPot. # 1 for Na read from file:
     ./Na_pbe_v1.uspp.F.UPF
     MD5 check sum: 76a99c7e9422403d3e93cbc85ab7bccb
     Pseudo is Ultrasoft, Zval =  9.0
     Generated by new atomic code, or converted to UPF format
     Using radial grid of  819 points,  5 beta functions with: 
                l(1) =   0
                l(2) =   0
                l(3) =   1
                l(4) =   1
                l(5) =   2
     Q(r) pseudized with  8 coefficients,  rinner =    1.250   1.250   1.250
                                                       1.250   1.250

     Mode symmetry, C_2v (mm2)  point group:


     Atomic displacements:
     There are   6 irreducible representations

     Representation     1      1 modes -A_1  D_1  S_1  To be done

     Representation     2      1 modes -A_1  D_1  S_1  To be done

     Representation     3      1 modes -B_1  D_3  S_3  To be done

     Representation     4      1 modes -B_1  D_3  S_3  To be done

     Representation     5      1 modes -B_2  D_4  S_4  To be done

     Representation     6      1 modes -B_2  D_4  S_4  To be done



     Alpha used in Ewald sum =   2.8000
     PHONON       :  4m16.81s CPU     4m44.84s WALL



     Representation #  1 mode #   1

     Self-consistent Calculation

      iter #   1 total cpu time :   287.7 secs   av.it.:   5.7
      thresh= 1.000E-02 alpha_mix =  0.700 |ddv_scf|^2 =  5.359E-04

      iter #   2 total cpu time :   296.2 secs   av.it.:   7.3
      thresh= 2.315E-03 alpha_mix =  0.700 |ddv_scf|^2 =  1.935E-02

      iter #   3 total cpu time :   303.0 secs   av.it.:   5.3
      thresh= 1.000E-02 alpha_mix =  0.700 |ddv_scf|^2 =  4.589E-07

      iter #   4 total cpu time :   308.4 secs   av.it.:   8.2
      thresh= 6.774E-05 alpha_mix =  0.700 |ddv_scf|^2 =  2.654E-08

      iter #   5 total cpu time :   312.6 secs   av.it.:   8.3
      thresh= 1.629E-05 alpha_mix =  0.700 |ddv_scf|^2 =  6.541E-10

      iter #   6 total cpu time :   317.6 secs   av.it.:   8.7
      thresh= 2.558E-06 alpha_mix =  0.700 |ddv_scf|^2 =  1.305E-10

      iter #   7 total cpu time :   321.0 secs   av.it.:   8.0
      thresh= 1.142E-06 alpha_mix =  0.700 |ddv_scf|^2 =  1.508E-09

      iter #   8 total cpu time :   325.1 secs   av.it.:   6.6
      thresh= 3.884E-06 alpha_mix =  0.700 |ddv_scf|^2 =  2.623E-12

      iter #   9 total cpu time :   338.0 secs   av.it.:   8.7
      thresh= 1.620E-07 alpha_mix =  0.700 |ddv_scf|^2 =  4.765E-13

      iter #  10 total cpu time :   345.2 secs   av.it.:   7.7
      thresh= 6.903E-08 alpha_mix =  0.700 |ddv_scf|^2 =  1.922E-12

      iter #  11 total cpu time :   352.4 secs   av.it.:   6.9
      thresh= 1.386E-07 alpha_mix =  0.700 |ddv_scf|^2 =  1.539E-15

      iter #  12 total cpu time :   357.8 secs   av.it.:   8.9
      thresh= 3.922E-09 alpha_mix =  0.700 |ddv_scf|^2 =  9.183E-17

     End of self-consistent calculation

     Convergence has been achieved 


     Representation #  2 mode #   2

     Self-consistent Calculation

      iter #   1 total cpu time :   366.4 secs   av.it.:   5.7
      thresh= 1.000E-02 alpha_mix =  0.700 |ddv_scf|^2 =  5.359E-04

      iter #   2 total cpu time :   369.8 secs   av.it.:   7.3
      thresh= 2.315E-03 alpha_mix =  0.700 |ddv_scf|^2 =  1.935E-02

      iter #   3 total cpu time :   374.2 secs   av.it.:   5.3
      thresh= 1.000E-02 alpha_mix =  0.700 |ddv_scf|^2 =  4.589E-07

      iter #   4 total cpu time :   378.6 secs   av.it.:   8.2
      thresh= 6.774E-05 alpha_mix =  0.700 |ddv_scf|^2 =  2.654E-08

      iter #   5 total cpu time :   384.2 secs   av.it.:   8.3
      thresh= 1.629E-05 alpha_mix =  0.700 |ddv_scf|^2 =  6.544E-10

      iter #   6 total cpu time :   388.9 secs   av.it.:   8.7
      thresh= 2.558E-06 alpha_mix =  0.700 |ddv_scf|^2 =  1.471E-10

      iter #   7 total cpu time :   392.0 secs   av.it.:   7.9
      thresh= 1.213E-06 alpha_mix =  0.700 |ddv_scf|^2 =  1.519E-09

      iter #   8 total cpu time :   396.0 secs   av.it.:   6.6
      thresh= 3.898E-06 alpha_mix =  0.700 |ddv_scf|^2 =  2.504E-12

      iter #   9 total cpu time :   402.4 secs   av.it.:   8.8
      thresh= 1.582E-07 alpha_mix =  0.700 |ddv_scf|^2 =  4.780E-13

      iter #  10 total cpu time :   406.7 secs   av.it.:   7.7
      thresh= 6.914E-08 alpha_mix =  0.700 |ddv_scf|^2 =  1.911E-12

      iter #  11 total cpu time :   411.1 secs   av.it.:   6.9
      thresh= 1.383E-07 alpha_mix =  0.700 |ddv_scf|^2 =  1.538E-15

      iter #  12 total cpu time :   434.3 secs   av.it.:   8.9
      thresh= 3.922E-09 alpha_mix =  0.700 |ddv_scf|^2 =  9.163E-17

     End of self-consistent calculation

     Convergence has been achieved 


     Representation #  3 mode #   3

     Self-consistent Calculation

      iter #   1 total cpu time :   438.4 secs   av.it.:   5.3
      thresh= 1.000E-02 alpha_mix =  0.700 |ddv_scf|^2 =  3.123E-06

      iter #   2 total cpu time :   442.8 secs   av.it.:   8.3
      thresh= 1.767E-04 alpha_mix =  0.700 |ddv_scf|^2 =  5.009E-08

      iter #   3 total cpu time :   447.8 secs   av.it.:   8.6
      thresh= 2.238E-05 alpha_mix =  0.700 |ddv_scf|^2 =  2.317E-09

      iter #   4 total cpu time :   452.5 secs   av.it.:   8.2
      thresh= 4.814E-06 alpha_mix =  0.700 |ddv_scf|^2 =  1.372E-11

      iter #   5 total cpu time :   456.5 secs   av.it.:   8.3
      thresh= 3.704E-07 alpha_mix =  0.700 |ddv_scf|^2 =  1.025E-13

      iter #   6 total cpu time :   460.3 secs   av.it.:   8.7
      thresh= 3.202E-08 alpha_mix =  0.700 |ddv_scf|^2 =  3.652E-16

     End of self-consistent calculation

     Convergence has been achieved 


     Representation #  4 mode #   4

     Self-consistent Calculation

      iter #   1 total cpu time :   466.5 secs   av.it.:   5.3
      thresh= 1.000E-02 alpha_mix =  0.700 |ddv_scf|^2 =  3.123E-06

      iter #   2 total cpu time :   470.6 secs   av.it.:   8.3
      thresh= 1.767E-04 alpha_mix =  0.700 |ddv_scf|^2 =  5.009E-08

      iter #   3 total cpu time :   474.4 secs   av.it.:   8.6
      thresh= 2.238E-05 alpha_mix =  0.700 |ddv_scf|^2 =  2.317E-09

      iter #   4 total cpu time :   478.2 secs   av.it.:   8.2
      thresh= 4.814E-06 alpha_mix =  0.700 |ddv_scf|^2 =  1.372E-11

      iter #   5 total cpu time :   492.9 secs   av.it.:   8.3
      thresh= 3.704E-07 alpha_mix =  0.700 |ddv_scf|^2 =  1.025E-13

      iter #   6 total cpu time :   497.3 secs   av.it.:   8.7
      thresh= 3.202E-08 alpha_mix =  0.700 |ddv_scf|^2 =  3.652E-16

     End of self-consistent calculation

     Convergence has been achieved 


     Representation #  5 mode #   5

     Self-consistent Calculation

      iter #   1 total cpu time :   501.8 secs   av.it.:   5.5
      thresh= 1.000E-02 alpha_mix =  0.700 |ddv_scf|^2 =  8.556E-06

      iter #   2 total cpu time :   506.7 secs   av.it.:   8.4
      thresh= 2.925E-04 alpha_mix =  0.700 |ddv_scf|^2 =  1.813E-06

      iter #   3 total cpu time :   510.1 secs   av.it.:   7.7
      thresh= 1.347E-04 alpha_mix =  0.700 |ddv_scf|^2 =  1.060E-08

      iter #   4 total cpu time :   533.3 secs   av.it.:   8.8
      thresh= 1.030E-05 alpha_mix =  0.700 |ddv_scf|^2 =  3.685E-10

      iter #   5 total cpu time :   538.0 secs   av.it.:   8.2
      thresh= 1.920E-06 alpha_mix =  0.700 |ddv_scf|^2 =  2.144E-12

      iter #   6 total cpu time :   542.6 secs   av.it.:   8.6
      thresh= 1.464E-07 alpha_mix =  0.700 |ddv_scf|^2 =  1.129E-14

      iter #   7 total cpu time :   546.5 secs   av.it.:   8.3
      thresh= 1.063E-08 alpha_mix =  0.700 |ddv_scf|^2 =  5.265E-16

     End of self-consistent calculation

     Convergence has been achieved 


     Representation #  6 mode #   6

     Self-consistent Calculation

      iter #   1 total cpu time :   550.4 secs   av.it.:   5.5
      thresh= 1.000E-02 alpha_mix =  0.700 |ddv_scf|^2 =  8.556E-06

      iter #   2 total cpu time :   555.6 secs   av.it.:   8.4
      thresh= 2.925E-04 alpha_mix =  0.700 |ddv_scf|^2 =  1.813E-06

      iter #   3 total cpu time :   560.3 secs   av.it.:   7.7
      thresh= 1.347E-04 alpha_mix =  0.700 |ddv_scf|^2 =  1.060E-08

      iter #   4 total cpu time :   573.4 secs   av.it.:   8.8
      thresh= 1.030E-05 alpha_mix =  0.700 |ddv_scf|^2 =  3.685E-10

      iter #   5 total cpu time :   577.9 secs   av.it.:   8.2
      thresh= 1.920E-06 alpha_mix =  0.700 |ddv_scf|^2 =  2.144E-12

      iter #   6 total cpu time :   581.9 secs   av.it.:   8.6
      thresh= 1.464E-07 alpha_mix =  0.700 |ddv_scf|^2 =  1.129E-14

      iter #   7 total cpu time :   586.9 secs   av.it.:   8.3
      thresh= 1.063E-08 alpha_mix =  0.700 |ddv_scf|^2 =  5.265E-16

     End of self-consistent calculation

     Convergence has been achieved 
 
     Number of q in the star =    6
     List of q in the star:
          1   0.000000000   0.288675135   0.000000000
          2  -0.250000000   0.144337567   0.000000000
          3   0.250000000  -0.144337567   0.000000000
          4  -0.250000000  -0.144337567   0.000000000
          5   0.250000000   0.144337567   0.000000000
          6   0.000000000  -0.288675135   0.000000000

     Diagonalizing the dynamical matrix

     q = (    0.000000000   0.288675135   0.000000000 ) 

 **************************************************************************
     freq (    1) =       1.143307 [THz] =      38.136629 [cm-1]
     freq (    2) =       1.382008 [THz] =      46.098834 [cm-1]
     freq (    3) =       2.336916 [THz] =      77.951140 [cm-1]
     freq (    4) =       2.467617 [THz] =      82.310849 [cm-1]
     freq (    5) =       3.004117 [THz] =     100.206573 [cm-1]
     freq (    6) =       3.568891 [THz] =     119.045391 [cm-1]
 **************************************************************************

     Mode symmetry, C_2v (mm2)  point group:

     freq (  1 -  1) =         38.1  [cm-1]   --> B_1  D_3  S_3      
     freq (  2 -  2) =         46.1  [cm-1]   --> B_2  D_4  S_4      
     freq (  3 -  3) =         78.0  [cm-1]   --> B_1  D_3  S_3      
     freq (  4 -  4) =         82.3  [cm-1]   --> A_1  D_1  S_1      
     freq (  5 -  5) =        100.2  [cm-1]   --> A_1  D_1  S_1      
     freq (  6 -  6) =        119.0  [cm-1]   --> B_2  D_4  S_4      

     Calculation of q =    0.0000000   0.2886751   0.1533310
 
     Parallelization info
     --------------------
     sticks:   dense  smooth     PW     G-vecs:    dense   smooth      PW
     Min         138      69     22                 6076     2151     400
     Max         139      70     24                 6081     2170     403
     Sum        1111     559    187                48635    17285    3213
 


     bravais-lattice index     =            4
     lattice parameter (alat)  =       7.0900  a.u.
     unit-cell volume          =     503.2450 (a.u.)^3
     number of atoms/cell      =            2
     number of atomic types    =            1
     number of electrons       =        18.00
     number of Kohn-Sham states=           13
     kinetic-energy cutoff     =      40.0000  Ry
     charge density cutoff     =     320.0000  Ry
     Exchange-correlation      = SLA  PW   PBE  PBE ( 1  4  3  4 0 0)

     celldm(1)=   7.090000  celldm(2)=   0.000000  celldm(3)=   1.630460
     celldm(4)=   0.000000  celldm(5)=   0.000000  celldm(6)=   0.000000

     crystal axes: (cart. coord. in units of alat)
               a(1) = (   1.000000   0.000000   0.000000 )  
               a(2) = (  -0.500000   0.866025   0.000000 )  
               a(3) = (   0.000000   0.000000   1.630460 )  

     reciprocal axes: (cart. coord. in units 2 pi/alat)
               b(1) = (  1.000000  0.577350  0.000000 )  
               b(2) = (  0.000000  1.154701  0.000000 )  
               b(3) = (  0.000000  0.000000  0.613324 )  


     PseudoPot. # 1 for Na read from file:
     ./Na_pbe_v1.uspp.F.UPF
     MD5 check sum: 76a99c7e9422403d3e93cbc85ab7bccb
     Pseudo is Ultrasoft, Zval =  9.0
     Generated by new atomic code, or converted to UPF format
     Using radial grid of  819 points,  5 beta functions with: 
                l(1) =   0
                l(2) =   0
                l(3) =   1
                l(4) =   1
                l(5) =   2
     Q(r) pseudized with  8 coefficients,  rinner =    1.250   1.250   1.250
                                                       1.250   1.250

     atomic species   valence    mass     pseudopotential
        Na             9.00    22.99000     Na( 1.00)

     24 Sym. Ops., with inversion, found



   Cartesian axes

     site n.     atom                  positions (alat units)
         1           Na  tau(   1) = (   0.0000000   0.0000000   0.0000000  )
         2           Na  tau(   2) = (   0.4999999   0.2886751   0.8152300  )

     number of k points=  7200  Marzari-Vanderbilt smearing, width (Ry)=  0.0200

     Number of k-points >= 100: set verbosity='high' to print them.

     Dense  grid:    48635 G-vectors     FFT dimensions: (  45,  45,  72)

     Smooth grid:    17285 G-vectors     FFT dimensions: (  30,  30,  48)

     Largest allocated arrays     est. size (Mb)     dimensions
        Kohn-Sham Wavefunctions         0.06 Mb     (     284,   13)
        NL pseudopotentials             0.11 Mb     (     284,   26)
        Each V/rho on FFT grid          0.28 Mb     (   18225)
        Each G-vector array             0.05 Mb     (    6081)
        G-vector shells                 0.01 Mb     (    1631)
     Largest temporary arrays     est. size (Mb)     dimensions
        Auxiliary wavefunctions         0.23 Mb     (     284,   52)
        Each subspace H/S matrix        0.01 Mb     (      26,   26)
        Each <psi_i|beta_j> matrix      0.01 Mb     (      26,   13)

     The potential is recalculated from file :
     ./na_hcp_7.09/_ph0/na_hcp_7.09.save/charge-density.dat

     Starting wfc are   10 atomic +    3 random wfc

     Band Structure Calculation
     Davidson diagonalization with overlap

     ethr =  5.56E-11,  avg # of iterations = 23.0

     total cpu time spent up to now is       57.8 secs

     End of band structure calculation

     Number of k-points >= 100: set verbosity='high' to print the bands.

     the Fermi energy is     1.5799 ev

     Writing output data file na_hcp_7.09.save

                                                                                

     bravais-lattice index     =            4
     lattice parameter (alat)  =       7.0900  a.u.
     unit-cell volume          =     503.2450 (a.u.)^3
     number of atoms/cell      =            2
     number of atomic types    =            1
     kinetic-energy cut-off    =      40.0000  Ry
     charge density cut-off    =     320.0000  Ry
     convergence threshold     =      1.0E-15
     beta                      =       0.7000
     number of iterations used =            4
     Exchange-correlation      = SLA  PW   PBE  PBE ( 1  4  3  4 0 0)


     celldm(1)=    7.09000  celldm(2)=    0.00000  celldm(3)=    1.63046
     celldm(4)=    0.00000  celldm(5)=    0.00000  celldm(6)=    0.00000

     crystal axes: (cart. coord. in units of alat)
               a(1) = (  1.0000  0.0000  0.0000 )  
               a(2) = ( -0.5000  0.8660  0.0000 )  
               a(3) = (  0.0000  0.0000  1.6305 )  

     reciprocal axes: (cart. coord. in units 2 pi/alat)
               b(1) = (  1.0000  0.5774  0.0000 )  
               b(2) = (  0.0000  1.1547  0.0000 )  
               b(3) = (  0.0000  0.0000  0.6133 )  


     Atoms inside the unit cell: 

     Cartesian axes

     site n.  atom      mass           positions (alat units)
        1     Na  22.9900   tau(    1) = (    0.00000    0.00000    0.00000  )
        2     Na  22.9900   tau(    2) = (    0.50000    0.28868    0.81523  )

     Computing dynamical matrix for 
                    q = (   0.0000000   0.2886751   0.1533310 )
 
      2 Sym.Ops. (no q -> -q+G )


     G cutoff =  407.4579  (   6081 G-vectors)     FFT grid: ( 45, 45, 72)
     G cutoff =  203.7289  (   2168 G-vectors)  smooth grid: ( 30, 30, 48)

     number of k points=  7200  Marzari-Vanderbilt smearing, width (Ry)=  0.0200

     PseudoPot. # 1 for Na read from file:
     ./Na_pbe_v1.uspp.F.UPF
     MD5 check sum: 76a99c7e9422403d3e93cbc85ab7bccb
     Pseudo is Ultrasoft, Zval =  9.0
     Generated by new atomic code, or converted to UPF format
     Using radial grid of  819 points,  5 beta functions with: 
                l(1) =   0
                l(2) =   0
                l(3) =   1
                l(4) =   1
                l(5) =   2
     Q(r) pseudized with  8 coefficients,  rinner =    1.250   1.250   1.250
                                                       1.250   1.250

     Mode symmetry, C_s (m)     point group:


     Atomic displacements:
     There are   6 irreducible representations

     Representation     1      1 modes -A'  To be done

     Representation     2      1 modes -A'  To be done

     Representation     3      1 modes -A'  To be done

     Representation     4      1 modes -A'  To be done

     Representation     5      1 modes -A''  To be done

     Representation     6      1 modes -A''  To be done



     Alpha used in Ewald sum =   2.8000
     PHONON       :  9m21.04s CPU    10m23.84s WALL



     Representation #  1 mode #   1

     Self-consistent Calculation

      iter #   1 total cpu time :   630.1 secs   av.it.:   5.7
      thresh= 1.000E-02 alpha_mix =  0.700 |ddv_scf|^2 =  2.098E-04

      iter #   2 total cpu time :   656.4 secs   av.it.:   7.6
      thresh= 1.449E-03 alpha_mix =  0.700 |ddv_scf|^2 =  4.195E-03

      iter #   3 total cpu time :   661.9 secs   av.it.:   5.6
      thresh= 6.477E-03 alpha_mix =  0.700 |ddv_scf|^2 =  1.923E-06

      iter #   4 total cpu time :   672.8 secs   av.it.:   7.8
      thresh= 1.387E-04 alpha_mix =  0.700 |ddv_scf|^2 =  2.751E-07

      iter #   5 total cpu time :   683.1 secs   av.it.:   7.8
      thresh= 5.245E-05 alpha_mix =  0.700 |ddv_scf|^2 =  1.229E-09

      iter #   6 total cpu time :   698.3 secs   av.it.:   8.7
      thresh= 3.505E-06 alpha_mix =  0.700 |ddv_scf|^2 =  5.889E-11

      iter #   7 total cpu time :   725.1 secs   av.it.:   8.7
      thresh= 7.674E-07 alpha_mix =  0.700 |ddv_scf|^2 =  2.100E-11

      iter #   8 total cpu time :   735.7 secs   av.it.:   7.8
      thresh= 4.583E-07 alpha_mix =  0.700 |ddv_scf|^2 =  5.190E-11

      iter #   9 total cpu time :   746.6 secs   av.it.:   7.4
      thresh= 7.204E-07 alpha_mix =  0.700 |ddv_scf|^2 =  2.328E-13

      iter #  10 total cpu time :   756.9 secs   av.it.:   8.8
      thresh= 4.825E-08 alpha_mix =  0.700 |ddv_scf|^2 =  2.764E-13

      iter #  11 total cpu time :   765.1 secs   av.it.:   7.5
      thresh= 5.257E-08 alpha_mix =  0.700 |ddv_scf|^2 =  3.619E-14

      iter #  12 total cpu time :   773.5 secs   av.it.:   8.0
      thresh= 1.902E-08 alpha_mix =  0.700 |ddv_scf|^2 =  1.303E-14

      iter #  13 total cpu time :   791.6 secs   av.it.:   7.7
      thresh= 1.141E-08 alpha_mix =  0.700 |ddv_scf|^2 =  7.142E-16

     End of self-consistent calculation

     Convergence has been achieved 


     Representation #  2 mode #   2

     Self-consistent Calculation

      iter #   1 total cpu time :   800.2 secs   av.it.:   5.7
      thresh= 1.000E-02 alpha_mix =  0.700 |ddv_scf|^2 =  3.593E-05

      iter #   2 total cpu time :   807.5 secs   av.it.:   8.0
      thresh= 5.994E-04 alpha_mix =  0.700 |ddv_scf|^2 =  4.383E-04

      iter #   3 total cpu time :   816.0 secs   av.it.:   5.9
      thresh= 2.094E-03 alpha_mix =  0.700 |ddv_scf|^2 =  1.412E-05

      iter #   4 total cpu time :   823.5 secs   av.it.:   7.2
      thresh= 3.758E-04 alpha_mix =  0.700 |ddv_scf|^2 =  6.804E-08

      iter #   5 total cpu time :   832.2 secs   av.it.:   8.6
      thresh= 2.609E-05 alpha_mix =  0.700 |ddv_scf|^2 =  7.815E-10

      iter #   6 total cpu time :   840.1 secs   av.it.:   8.9
      thresh= 2.795E-06 alpha_mix =  0.700 |ddv_scf|^2 =  6.388E-11

      iter #   7 total cpu time :   848.3 secs   av.it.:   8.8
      thresh= 7.993E-07 alpha_mix =  0.700 |ddv_scf|^2 =  4.440E-11

      iter #   8 total cpu time :   858.2 secs   av.it.:   7.7
      thresh= 6.663E-07 alpha_mix =  0.700 |ddv_scf|^2 =  1.444E-10

      iter #   9 total cpu time :   868.1 secs   av.it.:   6.9
      thresh= 1.201E-06 alpha_mix =  0.700 |ddv_scf|^2 =  3.798E-12

      iter #  10 total cpu time :   875.5 secs   av.it.:   7.6
      thresh= 1.949E-07 alpha_mix =  0.700 |ddv_scf|^2 =  2.866E-12

      iter #  11 total cpu time :   884.1 secs   av.it.:   7.6
      thresh= 1.693E-07 alpha_mix =  0.700 |ddv_scf|^2 =  1.614E-14

      iter #  12 total cpu time :   901.3 secs   av.it.:   8.1
      thresh= 1.271E-08 alpha_mix =  0.700 |ddv_scf|^2 =  2.886E-15

      iter #  13 total cpu time :   923.5 secs   av.it.:   8.7
      thresh= 5.372E-09 alpha_mix =  0.700 |ddv_scf|^2 =  6.342E-17

     End of self-consistent calculation

     Convergence has been achieved 


     Representation #  3 mode #   3

     Self-consistent Calculation

      iter #   1 total cpu time :   938.4 secs   av.it.:   5.8
      thresh= 1.000E-02 alpha_mix =  0.700 |ddv_scf|^2 =  2.403E-04

      iter #   2 total cpu time :   945.7 secs   av.it.:   7.6
      thresh= 1.550E-03 alpha_mix =  0.700 |ddv_scf|^2 =  4.870E-03

      iter #   3 total cpu time :   953.8 secs   av.it.:   5.5
      thresh= 6.979E-03 alpha_mix =  0.700 |ddv_scf|^2 =  6.232E-07

      iter #   4 total cpu time :   964.7 secs   av.it.:   8.0
      thresh= 7.894E-05 alpha_mix =  0.700 |ddv_scf|^2 =  2.878E-07

      iter #   5 total cpu time :   973.2 secs   av.it.:   7.7
      thresh= 5.365E-05 alpha_mix =  0.700 |ddv_scf|^2 =  1.524E-09

      iter #   6 total cpu time :   985.3 secs   av.it.:   8.7
      thresh= 3.904E-06 alpha_mix =  0.700 |ddv_scf|^2 =  7.400E-11

      iter #   7 total cpu time :  1013.5 secs   av.it.:   8.6
      thresh= 8.602E-07 alpha_mix =  0.700 |ddv_scf|^2 =  1.826E-12

      iter #   8 total cpu time :  1027.9 secs   av.it.:   9.2
      thresh= 1.351E-07 alpha_mix =  0.700 |ddv_scf|^2 =  1.405E-12

      iter #   9 total cpu time :  1039.7 secs   av.it.:   7.6
      thresh= 1.185E-07 alpha_mix =  0.700 |ddv_scf|^2 =  5.545E-12

      iter #  10 total cpu time :  1050.2 secs   av.it.:   7.2
      thresh= 2.355E-07 alpha_mix =  0.700 |ddv_scf|^2 =  1.974E-14

      iter #  11 total cpu time :  1059.7 secs   av.it.:   8.2
      thresh= 1.405E-08 alpha_mix =  0.700 |ddv_scf|^2 =  7.022E-14

      iter #  12 total cpu time :  1073.2 secs   av.it.:   7.1
      thresh= 2.650E-08 alpha_mix =  0.700 |ddv_scf|^2 =  1.009E-15

      iter #  13 total cpu time :  1083.4 secs   av.it.:   8.1
      thresh= 3.177E-09 alpha_mix =  0.700 |ddv_scf|^2 =  1.482E-16

     End of self-consistent calculation

     Convergence has been achieved 


     Representation #  4 mode #   4

     Self-consistent Calculation

      iter #   1 total cpu time :  1093.1 secs   av.it.:   5.7
      thresh= 1.000E-02 alpha_mix =  0.700 |ddv_scf|^2 =  6.640E-05

      iter #   2 total cpu time :  1115.3 secs   av.it.:   7.8
      thresh= 8.148E-04 alpha_mix =  0.700 |ddv_scf|^2 =  1.113E-03

      iter #   3 total cpu time :  1124.5 secs   av.it.:   5.7
      thresh= 3.336E-03 alpha_mix =  0.700 |ddv_scf|^2 =  7.033E-06

      iter #   4 total cpu time :  1135.6 secs   av.it.:   7.5
      thresh= 2.652E-04 alpha_mix =  0.700 |ddv_scf|^2 =  1.073E-07

      iter #   5 total cpu time :  1156.6 secs   av.it.:   8.2
      thresh= 3.276E-05 alpha_mix =  0.700 |ddv_scf|^2 =  8.860E-10

      iter #   6 total cpu time :  1166.8 secs   av.it.:   8.9
      thresh= 2.977E-06 alpha_mix =  0.700 |ddv_scf|^2 =  7.468E-11

      iter #   7 total cpu time :  1175.3 secs   av.it.:   8.7
      thresh= 8.642E-07 alpha_mix =  0.700 |ddv_scf|^2 =  1.326E-11

      iter #   8 total cpu time :  1190.1 secs   av.it.:   8.6
      thresh= 3.642E-07 alpha_mix =  0.700 |ddv_scf|^2 =  1.511E-10

      iter #   9 total cpu time :  1198.3 secs   av.it.:   6.5
      thresh= 1.229E-06 alpha_mix =  0.700 |ddv_scf|^2 =  5.704E-13

      iter #  10 total cpu time :  1206.2 secs   av.it.:   8.2
      thresh= 7.552E-08 alpha_mix =  0.700 |ddv_scf|^2 =  1.837E-12

      iter #  11 total cpu time :  1214.2 secs   av.it.:   7.2
      thresh= 1.355E-07 alpha_mix =  0.700 |ddv_scf|^2 =  4.880E-14

      iter #  12 total cpu time :  1223.0 secs   av.it.:   7.8
      thresh= 2.209E-08 alpha_mix =  0.700 |ddv_scf|^2 =  8.026E-15

      iter #  13 total cpu time :  1230.7 secs   av.it.:   8.3
      thresh= 8.959E-09 alpha_mix =  0.700 |ddv_scf|^2 =  1.380E-16

     End of self-consistent calculation

     Convergence has been achieved 


     Representation #  5 mode #   5

     Self-consistent Calculation

      iter #   1 total cpu time :  1253.8 secs   av.it.:   5.3
      thresh= 1.000E-02 alpha_mix =  0.700 |ddv_scf|^2 =  3.115E-06

      iter #   2 total cpu time :  1263.9 secs   av.it.:   8.4
      thresh= 1.765E-04 alpha_mix =  0.700 |ddv_scf|^2 =  4.992E-08

      iter #   3 total cpu time :  1273.7 secs   av.it.:   8.7
      thresh= 2.234E-05 alpha_mix =  0.700 |ddv_scf|^2 =  2.329E-09

      iter #   4 total cpu time :  1281.3 secs   av.it.:   8.1
      thresh= 4.826E-06 alpha_mix =  0.700 |ddv_scf|^2 =  1.068E-11

      iter #   5 total cpu time :  1289.9 secs   av.it.:   8.4
      thresh= 3.267E-07 alpha_mix =  0.700 |ddv_scf|^2 =  7.583E-14

      iter #   6 total cpu time :  1298.4 secs   av.it.:   8.7
      thresh= 2.754E-08 alpha_mix =  0.700 |ddv_scf|^2 =  3.471E-16

     End of self-consistent calculation

     Convergence has been achieved 


     Representation #  6 mode #   6

     Self-consistent Calculation

      iter #   1 total cpu time :  1308.2 secs   av.it.:   5.3
      thresh= 1.000E-02 alpha_mix =  0.700 |ddv_scf|^2 =  3.115E-06

      iter #   2 total cpu time :  1318.8 secs   av.it.:   8.4
      thresh= 1.765E-04 alpha_mix =  0.700 |ddv_scf|^2 =  4.992E-08

      iter #   3 total cpu time :  1327.3 secs   av.it.:   8.7
      thresh= 2.234E-05 alpha_mix =  0.700 |ddv_scf|^2 =  2.329E-09

      iter #   4 total cpu time :  1335.1 secs   av.it.:   8.1
      thresh= 4.826E-06 alpha_mix =  0.700 |ddv_scf|^2 =  1.068E-11

      iter #   5 total cpu time :  1344.9 secs   av.it.:   8.4
      thresh= 3.267E-07 alpha_mix =  0.700 |ddv_scf|^2 =  7.583E-14

      iter #   6 total cpu time :  1367.6 secs   av.it.:   8.7
      thresh= 2.754E-08 alpha_mix =  0.700 |ddv_scf|^2 =  3.471E-16

     End of self-consistent calculation

     Convergence has been achieved 
 
     Number of q in the star =   12
     List of q in the star:
          1   0.000000000   0.288675135   0.153330962
          2   0.000000000   0.288675135  -0.153330962
          3  -0.250000000   0.144337567   0.153330962
          4   0.250000000  -0.144337567   0.153330962
          5  -0.250000000  -0.144337567   0.153330962
          6   0.250000000   0.144337567   0.153330962
          7   0.000000000  -0.288675135   0.153330962
          8   0.000000000  -0.288675135  -0.153330962
          9   0.250000000   0.144337567  -0.153330962
         10   0.250000000  -0.144337567  -0.153330962
         11  -0.250000000  -0.144337567  -0.153330962
         12  -0.250000000   0.144337567  -0.153330962

     Diagonalizing the dynamical matrix

     q = (    0.000000000   0.288675135   0.153330962 ) 

 **************************************************************************
     freq (    1) =       1.379657 [THz] =      46.020395 [cm-1]
     freq (    2) =       1.592727 [THz] =      53.127659 [cm-1]
     freq (    3) =       2.211763 [THz] =      73.776456 [cm-1]
     freq (    4) =       2.697770 [THz] =      89.987932 [cm-1]
     freq (    5) =       2.816850 [THz] =      93.959999 [cm-1]
     freq (    6) =       3.483133 [THz] =     116.184799 [cm-1]
 **************************************************************************

     Mode symmetry, C_s (m)     point group:

     freq (  1 -  1) =         46.0  [cm-1]   --> A''                
     freq (  2 -  2) =         53.1  [cm-1]   --> A'                 
     freq (  3 -  3) =         73.8  [cm-1]   --> A''                
     freq (  4 -  4) =         90.0  [cm-1]   --> A'                 
     freq (  5 -  5) =         94.0  [cm-1]   --> A'                 
     freq (  6 -  6) =        116.2  [cm-1]   --> A'                 

     Calculation of q =    0.0000000   0.2886751  -0.3066619
 
     Parallelization info
     --------------------
     sticks:   dense  smooth     PW     G-vecs:    dense   smooth      PW
     Min         138      69     23                 6076     2151     395
     Max         139      70     24                 6081     2170     398
     Sum        1111     559    187                48635    17285    3177
 


     bravais-lattice index     =            4
     lattice parameter (alat)  =       7.0900  a.u.
     unit-cell volume          =     503.2450 (a.u.)^3
     number of atoms/cell      =            2
     number of atomic types    =            1
     number of electrons       =        18.00
     number of Kohn-Sham states=           13
     kinetic-energy cutoff     =      40.0000  Ry
     charge density cutoff     =     320.0000  Ry
     Exchange-correlation      = SLA  PW   PBE  PBE ( 1  4  3  4 0 0)

     celldm(1)=   7.090000  celldm(2)=   0.000000  celldm(3)=   1.630460
     celldm(4)=   0.000000  celldm(5)=   0.000000  celldm(6)=   0.000000

     crystal axes: (cart. coord. in units of alat)
               a(1) = (   1.000000   0.000000   0.000000 )  
               a(2) = (  -0.500000   0.866025   0.000000 )  
               a(3) = (   0.000000   0.000000   1.630460 )  

     reciprocal axes: (cart. coord. in units 2 pi/alat)
               b(1) = (  1.000000  0.577350  0.000000 )  
               b(2) = (  0.000000  1.154701  0.000000 )  
               b(3) = (  0.000000  0.000000  0.613324 )  


     PseudoPot. # 1 for Na read from file:
     ./Na_pbe_v1.uspp.F.UPF
     MD5 check sum: 76a99c7e9422403d3e93cbc85ab7bccb
     Pseudo is Ultrasoft, Zval =  9.0
     Generated by new atomic code, or converted to UPF format
     Using radial grid of  819 points,  5 beta functions with: 
                l(1) =   0
                l(2) =   0
                l(3) =   1
                l(4) =   1
                l(5) =   2
     Q(r) pseudized with  8 coefficients,  rinner =    1.250   1.250   1.250
                                                       1.250   1.250

     atomic species   valence    mass     pseudopotential
        Na             9.00    22.99000     Na( 1.00)

     24 Sym. Ops., with inversion, found



   Cartesian axes

     site n.     atom                  positions (alat units)
         1           Na  tau(   1) = (   0.0000000   0.0000000   0.0000000  )
         2           Na  tau(   2) = (   0.4999999   0.2886751   0.8152300  )

     number of k points=  3600  Marzari-Vanderbilt smearing, width (Ry)=  0.0200

     Number of k-points >= 100: set verbosity='high' to print them.

     Dense  grid:    48635 G-vectors     FFT dimensions: (  45,  45,  72)

     Smooth grid:    17285 G-vectors     FFT dimensions: (  30,  30,  48)

     Largest allocated arrays     est. size (Mb)     dimensions
        Kohn-Sham Wavefunctions         0.06 Mb     (     282,   13)
        NL pseudopotentials             0.11 Mb     (     282,   26)
        Each V/rho on FFT grid          0.28 Mb     (   18225)
        Each G-vector array             0.05 Mb     (    6081)
        G-vector shells                 0.01 Mb     (    1790)
     Largest temporary arrays     est. size (Mb)     dimensions
        Auxiliary wavefunctions         0.22 Mb     (     282,   52)
        Each subspace H/S matrix        0.01 Mb     (      26,   26)
        Each <psi_i|beta_j> matrix      0.01 Mb     (      26,   13)

     The potential is recalculated from file :
     ./na_hcp_7.09/_ph0/na_hcp_7.09.save/charge-density.dat

     Starting wfc are   10 atomic +    3 random wfc

     Band Structure Calculation
     Davidson diagonalization with overlap

     ethr =  5.56E-11,  avg # of iterations = 23.1

     total cpu time spent up to now is       81.6 secs

     End of band structure calculation

     Number of k-points >= 100: set verbosity='high' to print the bands.

     the Fermi energy is     1.5799 ev

     Writing output data file na_hcp_7.09.save

                                                                                

     bravais-lattice index     =            4
     lattice parameter (alat)  =       7.0900  a.u.
     unit-cell volume          =     503.2450 (a.u.)^3
     number of atoms/cell      =            2
     number of atomic types    =            1
     kinetic-energy cut-off    =      40.0000  Ry
     charge density cut-off    =     320.0000  Ry
     convergence threshold     =      1.0E-15
     beta                      =       0.7000
     number of iterations used =            4
     Exchange-correlation      = SLA  PW   PBE  PBE ( 1  4  3  4 0 0)


     celldm(1)=    7.09000  celldm(2)=    0.00000  celldm(3)=    1.63046
     celldm(4)=    0.00000  celldm(5)=    0.00000  celldm(6)=    0.00000

     crystal axes: (cart. coord. in units of alat)
               a(1) = (  1.0000  0.0000  0.0000 )  
               a(2) = ( -0.5000  0.8660  0.0000 )  
               a(3) = (  0.0000  0.0000  1.6305 )  

     reciprocal axes: (cart. coord. in units 2 pi/alat)
               b(1) = (  1.0000  0.5774  0.0000 )  
               b(2) = (  0.0000  1.1547  0.0000 )  
               b(3) = (  0.0000  0.0000  0.6133 )  


     Atoms inside the unit cell: 

     Cartesian axes

     site n.  atom      mass           positions (alat units)
        1     Na  22.9900   tau(    1) = (    0.00000    0.00000    0.00000  )
        2     Na  22.9900   tau(    2) = (    0.50000    0.28868    0.81523  )

     Computing dynamical matrix for 
                    q = (   0.0000000   0.2886751  -0.3066619 )
 
      4 Sym.Ops. (no q -> -q+G )


     G cutoff =  407.4579  (   6081 G-vectors)     FFT grid: ( 45, 45, 72)
     G cutoff =  203.7289  (   2170 G-vectors)  smooth grid: ( 30, 30, 48)

     number of k points=  3600  Marzari-Vanderbilt smearing, width (Ry)=  0.0200

     PseudoPot. # 1 for Na read from file:
     ./Na_pbe_v1.uspp.F.UPF
     MD5 check sum: 76a99c7e9422403d3e93cbc85ab7bccb
     Pseudo is Ultrasoft, Zval =  9.0
     Generated by new atomic code, or converted to UPF format
     Using radial grid of  819 points,  5 beta functions with: 
                l(1) =   0
                l(2) =   0
                l(3) =   1
                l(4) =   1
                l(5) =   2
     Q(r) pseudized with  8 coefficients,  rinner =    1.250   1.250   1.250
                                                       1.250   1.250

     Mode symmetry, C_2v (mm2)  point group:


     Atomic displacements:
     There are   6 irreducible representations

     Representation     1      1 modes -A_1  D_1  S_1  To be done

     Representation     2      1 modes -A_1  D_1  S_1  To be done

     Representation     3      1 modes -A_2  D_2  S_2  To be done

     Representation     4      1 modes -B_1  D_3  S_3  To be done

     Representation     5      1 modes -B_2  D_4  S_4  To be done

     Representation     6      1 modes -B_2  D_4  S_4  To be done



     Alpha used in Ewald sum =   2.8000
     PHONON       : 21m14.71s CPU    23m 8.04s WALL



     Representation #  1 mode #   1

     Self-consistent Calculation

      iter #   1 total cpu time :  1390.6 secs   av.it.:   5.6
      thresh= 1.000E-02 alpha_mix =  0.700 |ddv_scf|^2 =  5.745E-05

      iter #   2 total cpu time :  1394.5 secs   av.it.:   7.9
      thresh= 7.579E-04 alpha_mix =  0.700 |ddv_scf|^2 =  3.186E-04

      iter #   3 total cpu time :  1398.8 secs   av.it.:   6.7
      thresh= 1.785E-03 alpha_mix =  0.700 |ddv_scf|^2 =  3.890E-08

      iter #   4 total cpu time :  1403.7 secs   av.it.:   8.8
      thresh= 1.972E-05 alpha_mix =  0.700 |ddv_scf|^2 =  1.978E-09

      iter #   5 total cpu time :  1408.7 secs   av.it.:   8.9
      thresh= 4.448E-06 alpha_mix =  0.700 |ddv_scf|^2 =  7.364E-11

      iter #   6 total cpu time :  1418.6 secs   av.it.:   9.1
      thresh= 8.581E-07 alpha_mix =  0.700 |ddv_scf|^2 =  3.471E-12

      iter #   7 total cpu time :  1423.1 secs   av.it.:   8.8
      thresh= 1.863E-07 alpha_mix =  0.700 |ddv_scf|^2 =  2.146E-12

      iter #   8 total cpu time :  1430.5 secs   av.it.:   7.7
      thresh= 1.465E-07 alpha_mix =  0.700 |ddv_scf|^2 =  2.115E-12

      iter #   9 total cpu time :  1437.2 secs   av.it.:   7.6
      thresh= 1.454E-07 alpha_mix =  0.700 |ddv_scf|^2 =  3.902E-13

      iter #  10 total cpu time :  1441.7 secs   av.it.:   7.5
      thresh= 6.247E-08 alpha_mix =  0.700 |ddv_scf|^2 =  4.402E-16

     End of self-consistent calculation

     Convergence has been achieved 


     Representation #  2 mode #   2

     Self-consistent Calculation

      iter #   1 total cpu time :  1454.3 secs   av.it.:   5.7
      thresh= 1.000E-02 alpha_mix =  0.700 |ddv_scf|^2 =  6.444E-05

      iter #   2 total cpu time :  1457.6 secs   av.it.:   7.9
      thresh= 8.027E-04 alpha_mix =  0.700 |ddv_scf|^2 =  3.617E-04

      iter #   3 total cpu time :  1462.4 secs   av.it.:   6.7
      thresh= 1.902E-03 alpha_mix =  0.700 |ddv_scf|^2 =  5.075E-08

      iter #   4 total cpu time :  1466.8 secs   av.it.:   8.8
      thresh= 2.253E-05 alpha_mix =  0.700 |ddv_scf|^2 =  1.819E-09

      iter #   5 total cpu time :  1470.6 secs   av.it.:   8.9
      thresh= 4.265E-06 alpha_mix =  0.700 |ddv_scf|^2 =  9.543E-11

      iter #   6 total cpu time :  1476.6 secs   av.it.:   9.2
      thresh= 9.769E-07 alpha_mix =  0.700 |ddv_scf|^2 =  3.468E-12

      iter #   7 total cpu time :  1481.3 secs   av.it.:   8.8
      thresh= 1.862E-07 alpha_mix =  0.700 |ddv_scf|^2 =  2.856E-12

      iter #   8 total cpu time :  1485.7 secs   av.it.:   7.7
      thresh= 1.690E-07 alpha_mix =  0.700 |ddv_scf|^2 =  1.176E-12

      iter #   9 total cpu time :  1490.1 secs   av.it.:   7.6
      thresh= 1.084E-07 alpha_mix =  0.700 |ddv_scf|^2 =  3.086E-13

      iter #  10 total cpu time :  1493.7 secs   av.it.:   7.5
      thresh= 5.555E-08 alpha_mix =  0.700 |ddv_scf|^2 =  7.851E-16

     End of self-consistent calculation

     Convergence has been achieved 


     Representation #  3 mode #   3

     Self-consistent Calculation

      iter #   1 total cpu time :  1498.0 secs   av.it.:   5.3
      thresh= 1.000E-02 alpha_mix =  0.700 |ddv_scf|^2 =  3.110E-06

      iter #   2 total cpu time :  1502.4 secs   av.it.:   8.4
      thresh= 1.763E-04 alpha_mix =  0.700 |ddv_scf|^2 =  4.966E-08

[...]
      iter #   4 total cpu time :  3632.3 secs   av.it.:   8.5
      thresh= 1.186E-05 alpha_mix =  0.700 |ddv_scf|^2 =  1.169E-09

      iter #   5 total cpu time :  3640.3 secs   av.it.:   8.6
      thresh= 3.419E-06 alpha_mix =  0.700 |ddv_scf|^2 =  1.440E-11

      iter #   6 total cpu time :  3648.5 secs   av.it.:   8.5
      thresh= 3.795E-07 alpha_mix =  0.700 |ddv_scf|^2 =  8.058E-13

      iter #   7 total cpu time :  3661.0 secs   av.it.:   8.8
      thresh= 8.976E-08 alpha_mix =  0.700 |ddv_scf|^2 =  1.924E-14

      iter #   8 total cpu time :  3673.3 secs   av.it.:   8.9
      thresh= 1.387E-08 alpha_mix =  0.700 |ddv_scf|^2 =  4.111E-16

     End of self-consistent calculation

     Convergence has been achieved 
 
     Number of q in the star =   12
     List of q in the star:
          1   0.250000000   0.433012702   0.153330962
          2   0.250000000   0.433012702  -0.153330962
          3  -0.250000000   0.433012702   0.153330962
          4   0.250000000  -0.433012702  -0.153330962
          5  -0.250000000   0.433012702  -0.153330962
          6  -0.250000000  -0.433012702  -0.153330962
          7   0.500000000   0.000000000   0.153330962
          8   0.250000000  -0.433012702   0.153330962
          9  -0.500000000   0.000000000   0.153330962
         10  -0.250000000  -0.433012702   0.153330962
         11  -0.500000000   0.000000000  -0.153330962
         12   0.500000000   0.000000000  -0.153330962

     Diagonalizing the dynamical matrix

     q = (    0.250000000   0.433012702   0.153330962 ) 

 **************************************************************************
     freq (    1) =       1.908796 [THz] =      63.670580 [cm-1]
     freq (    2) =       2.377612 [THz] =      79.308605 [cm-1]
     freq (    3) =       2.937600 [THz] =      97.987801 [cm-1]
     freq (    4) =       2.956517 [THz] =      98.618781 [cm-1]
     freq (    5) =       3.468047 [THz] =     115.681593 [cm-1]
     freq (    6) =       3.618818 [THz] =     120.710782 [cm-1]
 **************************************************************************

     Mode symmetry, C_s (m)     point group:

     freq (  1 -  1) =         63.7  [cm-1]   --> A'                 
     freq (  2 -  2) =         79.3  [cm-1]   --> A''                
     freq (  3 -  3) =         98.0  [cm-1]   --> A''                
     freq (  4 -  4) =         98.6  [cm-1]   --> A'                 
     freq (  5 -  5) =        115.7  [cm-1]   --> A'                 
     freq (  6 -  6) =        120.7  [cm-1]   --> A''                

     Calculation of q =    0.2500000   0.4330127  -0.3066619
 
     Parallelization info
     --------------------
     sticks:   dense  smooth     PW     G-vecs:    dense   smooth      PW
     Min         138      69     24                 6076     2153     426
     Max         139      70     26                 6081     2168     428
     Sum        1111     559    199                48635    17285    3417
 


     bravais-lattice index     =            4
     lattice parameter (alat)  =       7.0900  a.u.
     unit-cell volume          =     503.2450 (a.u.)^3
     number of atoms/cell      =            2
     number of atomic types    =            1
     number of electrons       =        18.00
     number of Kohn-Sham states=           13
     kinetic-energy cutoff     =      40.0000  Ry
     charge density cutoff     =     320.0000  Ry
     Exchange-correlation      = SLA  PW   PBE  PBE ( 1  4  3  4 0 0)

     celldm(1)=   7.090000  celldm(2)=   0.000000  celldm(3)=   1.630460
     celldm(4)=   0.000000  celldm(5)=   0.000000  celldm(6)=   0.000000

     crystal axes: (cart. coord. in units of alat)
               a(1) = (   1.000000   0.000000   0.000000 )  
               a(2) = (  -0.500000   0.866025   0.000000 )  
               a(3) = (   0.000000   0.000000   1.630460 )  

     reciprocal axes: (cart. coord. in units 2 pi/alat)
               b(1) = (  1.000000  0.577350  0.000000 )  
               b(2) = (  0.000000  1.154701  0.000000 )  
               b(3) = (  0.000000  0.000000  0.613324 )  


     PseudoPot. # 1 for Na read from file:
     ./Na_pbe_v1.uspp.F.UPF
     MD5 check sum: 76a99c7e9422403d3e93cbc85ab7bccb
     Pseudo is Ultrasoft, Zval =  9.0
     Generated by new atomic code, or converted to UPF format
     Using radial grid of  819 points,  5 beta functions with: 
                l(1) =   0
                l(2) =   0
                l(3) =   1
                l(4) =   1
                l(5) =   2
     Q(r) pseudized with  8 coefficients,  rinner =    1.250   1.250   1.250
                                                       1.250   1.250

     atomic species   valence    mass     pseudopotential
        Na             9.00    22.99000     Na( 1.00)

     24 Sym. Ops., with inversion, found



   Cartesian axes

     site n.     atom                  positions (alat units)
         1           Na  tau(   1) = (   0.0000000   0.0000000   0.0000000  )
         2           Na  tau(   2) = (   0.4999999   0.2886751   0.8152300  )

     number of k points=  3600  Marzari-Vanderbilt smearing, width (Ry)=  0.0200

     Number of k-points >= 100: set verbosity='high' to print them.

     Dense  grid:    48635 G-vectors     FFT dimensions: (  45,  45,  72)

     Smooth grid:    17285 G-vectors     FFT dimensions: (  30,  30,  48)

     Largest allocated arrays     est. size (Mb)     dimensions
        Kohn-Sham Wavefunctions         0.06 Mb     (     282,   13)
        NL pseudopotentials             0.11 Mb     (     282,   26)
        Each V/rho on FFT grid          0.28 Mb     (   18225)
        Each G-vector array             0.05 Mb     (    6081)
        G-vector shells                 0.01 Mb     (    1761)
     Largest temporary arrays     est. size (Mb)     dimensions
        Auxiliary wavefunctions         0.22 Mb     (     282,   52)
        Each subspace H/S matrix        0.01 Mb     (      26,   26)
        Each <psi_i|beta_j> matrix      0.01 Mb     (      26,   13)

     The potential is recalculated from file :
     ./na_hcp_7.09/_ph0/na_hcp_7.09.save/charge-density.dat

     Starting wfc are   10 atomic +    3 random wfc

     Band Structure Calculation
     Davidson diagonalization with overlap

     ethr =  5.56E-11,  avg # of iterations = 22.7

     total cpu time spent up to now is      206.3 secs

     End of band structure calculation

     Number of k-points >= 100: set verbosity='high' to print the bands.

     the Fermi energy is     1.5799 ev

     Writing output data file na_hcp_7.09.save

                                                                                

     bravais-lattice index     =            4
     lattice parameter (alat)  =       7.0900  a.u.
     unit-cell volume          =     503.2450 (a.u.)^3
     number of atoms/cell      =            2
     number of atomic types    =            1
     kinetic-energy cut-off    =      40.0000  Ry
     charge density cut-off    =     320.0000  Ry
     convergence threshold     =      1.0E-15
     beta                      =       0.7000
     number of iterations used =            4
     Exchange-correlation      = SLA  PW   PBE  PBE ( 1  4  3  4 0 0)


     celldm(1)=    7.09000  celldm(2)=    0.00000  celldm(3)=    1.63046
     celldm(4)=    0.00000  celldm(5)=    0.00000  celldm(6)=    0.00000

     crystal axes: (cart. coord. in units of alat)
               a(1) = (  1.0000  0.0000  0.0000 )  
               a(2) = ( -0.5000  0.8660  0.0000 )  
               a(3) = (  0.0000  0.0000  1.6305 )  

     reciprocal axes: (cart. coord. in units 2 pi/alat)
               b(1) = (  1.0000  0.5774  0.0000 )  
               b(2) = (  0.0000  1.1547  0.0000 )  
               b(3) = (  0.0000  0.0000  0.6133 )  


     Atoms inside the unit cell: 

     Cartesian axes

     site n.  atom      mass           positions (alat units)
        1     Na  22.9900   tau(    1) = (    0.00000    0.00000    0.00000  )
        2     Na  22.9900   tau(    2) = (    0.50000    0.28868    0.81523  )

     Computing dynamical matrix for 
                    q = (   0.2500000   0.4330127  -0.3066619 )
 
      4 Sym.Ops. (no q -> -q+G )


     G cutoff =  407.4579  (   6081 G-vectors)     FFT grid: ( 45, 45, 72)
     G cutoff =  203.7289  (   2168 G-vectors)  smooth grid: ( 30, 30, 48)

     number of k points=  3600  Marzari-Vanderbilt smearing, width (Ry)=  0.0200

     PseudoPot. # 1 for Na read from file:
     ./Na_pbe_v1.uspp.F.UPF
     MD5 check sum: 76a99c7e9422403d3e93cbc85ab7bccb
     Pseudo is Ultrasoft, Zval =  9.0
     Generated by new atomic code, or converted to UPF format
     Using radial grid of  819 points,  5 beta functions with: 
                l(1) =   0
                l(2) =   0
                l(3) =   1
                l(4) =   1
                l(5) =   2
     Q(r) pseudized with  8 coefficients,  rinner =    1.250   1.250   1.250
                                                       1.250   1.250


     Atomic displacements:
     There are   3 irreducible representations

     Representation     1      2 modes -  To be done

     Representation     2      2 modes -  To be done

     Representation     3      2 modes -  To be done



     Alpha used in Ewald sum =   2.8000
     PHONON       :     0h56m CPU        1h 1m WALL



     Representation #  1 modes #   1  2

     Self-consistent Calculation

      iter #   1 total cpu time :  3714.4 secs   av.it.:   5.7
      thresh= 1.000E-02 alpha_mix =  0.700 |ddv_scf|^2 =  2.921E-06

      iter #   2 total cpu time :  3734.9 secs   av.it.:   9.0
      thresh= 1.709E-04 alpha_mix =  0.700 |ddv_scf|^2 =  1.646E-06

      iter #   3 total cpu time :  3745.0 secs   av.it.:   8.1
      thresh= 1.283E-04 alpha_mix =  0.700 |ddv_scf|^2 =  1.098E-08

      iter #   4 total cpu time :  3758.6 secs   av.it.:   9.3
      thresh= 1.048E-05 alpha_mix =  0.700 |ddv_scf|^2 =  3.005E-10

      iter #   5 total cpu time :  3772.1 secs   av.it.:   9.6
      thresh= 1.734E-06 alpha_mix =  0.700 |ddv_scf|^2 =  1.645E-11

      iter #   6 total cpu time :  3786.2 secs   av.it.:   9.8
      thresh= 4.056E-07 alpha_mix =  0.700 |ddv_scf|^2 =  1.111E-12

      iter #   7 total cpu time :  3805.1 secs   av.it.:   9.8
      thresh= 1.054E-07 alpha_mix =  0.700 |ddv_scf|^2 =  1.221E-14

      iter #   8 total cpu time :  3818.1 secs   av.it.:   9.5
      thresh= 1.105E-08 alpha_mix =  0.700 |ddv_scf|^2 =  3.113E-16

     End of self-consistent calculation

     Convergence has been achieved 


     Representation #  2 modes #   3  4

     Self-consistent Calculation

      iter #   1 total cpu time :  3832.5 secs   av.it.:   5.7
      thresh= 1.000E-02 alpha_mix =  0.700 |ddv_scf|^2 =  2.261E-06

      iter #   2 total cpu time :  3846.6 secs   av.it.:   9.0
      thresh= 1.504E-04 alpha_mix =  0.700 |ddv_scf|^2 =  1.140E-06

      iter #   3 total cpu time :  3863.4 secs   av.it.:   8.2
      thresh= 1.068E-04 alpha_mix =  0.700 |ddv_scf|^2 =  1.324E-08

      iter #   4 total cpu time :  3879.1 secs   av.it.:   9.2
      thresh= 1.151E-05 alpha_mix =  0.700 |ddv_scf|^2 =  2.873E-10

      iter #   5 total cpu time :  3891.5 secs   av.it.:   9.4
      thresh= 1.695E-06 alpha_mix =  0.700 |ddv_scf|^2 =  2.120E-11

      iter #   6 total cpu time :  3907.5 secs   av.it.:   9.5
      thresh= 4.604E-07 alpha_mix =  0.700 |ddv_scf|^2 =  7.808E-13

      iter #   7 total cpu time :  3917.5 secs   av.it.:  10.0
      thresh= 8.836E-08 alpha_mix =  0.700 |ddv_scf|^2 =  1.471E-14

      iter #   8 total cpu time :  3930.6 secs   av.it.:   9.8
      thresh= 1.213E-08 alpha_mix =  0.700 |ddv_scf|^2 =  8.855E-16

     End of self-consistent calculation

     Convergence has been achieved 


     Representation #  3 modes #   5  6

     Self-consistent Calculation

      iter #   1 total cpu time :  3947.4 secs   av.it.:   5.7
      thresh= 1.000E-02 alpha_mix =  0.700 |ddv_scf|^2 =  2.154E-06

      iter #   2 total cpu time :  3961.8 secs   av.it.:   9.0
      thresh= 1.467E-04 alpha_mix =  0.700 |ddv_scf|^2 =  8.680E-07

      iter #   3 total cpu time :  3986.0 secs   av.it.:   8.3
      thresh= 9.317E-05 alpha_mix =  0.700 |ddv_scf|^2 =  2.401E-08

      iter #   4 total cpu time :  3996.5 secs   av.it.:   8.9
      thresh= 1.550E-05 alpha_mix =  0.700 |ddv_scf|^2 =  3.966E-10

      iter #   5 total cpu time :  4008.3 secs   av.it.:   9.5
      thresh= 1.991E-06 alpha_mix =  0.700 |ddv_scf|^2 =  1.050E-11

      iter #   6 total cpu time :  4020.5 secs   av.it.:   9.7
      thresh= 3.241E-07 alpha_mix =  0.700 |ddv_scf|^2 =  8.152E-13

      iter #   7 total cpu time :  4029.2 secs   av.it.:   9.9
      thresh= 9.029E-08 alpha_mix =  0.700 |ddv_scf|^2 =  1.948E-14

      iter #   8 total cpu time :  4051.3 secs   av.it.:   9.9
      thresh= 1.396E-08 alpha_mix =  0.700 |ddv_scf|^2 =  2.121E-16

     End of self-consistent calculation

     Convergence has been achieved 
 
     Number of q in the star =    6
     List of q in the star:
          1   0.250000000   0.433012702  -0.306661924
          2  -0.250000000   0.433012702  -0.306661924
          3   0.250000000  -0.433012702   0.306661924
          4  -0.250000000  -0.433012702   0.306661924
          5   0.500000000   0.000000000  -0.306661924
          6  -0.500000000   0.000000000  -0.306661924

     Diagonalizing the dynamical matrix

     q = (    0.250000000   0.433012702  -0.306661924 ) 

 **************************************************************************
     freq (    1) =       2.002973 [THz] =      66.811998 [cm-1]
     freq (    2) =       2.002973 [THz] =      66.811998 [cm-1]
     freq (    3) =       2.976288 [THz] =      99.278271 [cm-1]
     freq (    4) =       2.976288 [THz] =      99.278271 [cm-1]
     freq (    5) =       3.675658 [THz] =     122.606739 [cm-1]
     freq (    6) =       3.675658 [THz] =     122.606739 [cm-1]
 **************************************************************************
 
     init_run     :      1.52s CPU      1.71s WALL (      11 calls)
     electrons    :    153.59s CPU    156.26s WALL (      11 calls)

     Called by init_run:
     wfcinit      :      0.00s CPU      0.11s WALL (      11 calls)
     potinit      :      0.24s CPU      0.31s WALL (      11 calls)

     Called by electrons:
     c_bands      :    153.53s CPU    156.20s WALL (      11 calls)
     v_of_rho     :      0.11s CPU      0.12s WALL (      12 calls)
     newd         :      0.13s CPU      0.14s WALL (      12 calls)

     Called by c_bands:
     init_us_2    :      3.20s CPU      3.49s WALL (   48220 calls)
     cegterg      :     74.42s CPU     75.91s WALL (    3039 calls)

     Called by sum_band:

     Called by *egterg:
     h_psi        :     44.06s CPU     44.44s WALL (   49277 calls)
     s_psi        :     44.68s CPU     46.97s WALL ( 1184010 calls)
     g_psi        :      0.45s CPU      0.45s WALL (   44626 calls)
     cdiaghg      :     20.99s CPU     21.54s WALL (   46238 calls)

     Called by h_psi:
     add_vuspsi   :     27.83s CPU     28.77s WALL (  595416 calls)

     General routines
     calbec       :     67.88s CPU     70.73s WALL ( 1262633 calls)
     fft          :      2.94s CPU      2.98s WALL (    8976 calls)
     ffts         :      1.35s CPU      1.38s WALL (    7229 calls)
     fftw         :   1649.41s CPU   1675.71s WALL ( 9224194 calls)
     interpolate  :      0.66s CPU      0.71s WALL (    1237 calls)
     davcio       :      9.59s CPU    196.62s WALL (  216212 calls)
 
     Parallel routines
     fft_scatter  :   1271.32s CPU   1283.66s WALL ( 9240399 calls)
 
     PHONON       :     1h 2m CPU        1h 7m WALL

     INITIALIZATION: 
     phq_setup    :      0.38s CPU      1.59s WALL (      12 calls)
     phq_init     :     18.77s CPU     19.42s WALL (      12 calls)
 
     phq_init     :     18.77s CPU     19.42s WALL (      12 calls)
     init_vloc    :      0.14s CPU      0.12s WALL (      12 calls)
     init_us_1    :      0.45s CPU      0.45s WALL (      12 calls)
     newd         :      0.13s CPU      0.14s WALL (      12 calls)
     dvanqq       :      1.45s CPU      1.46s WALL (      12 calls)
     drho         :     12.11s CPU     12.42s WALL (      12 calls)
 
     DYNAMICAL MATRIX:
     dynmat0      :      3.62s CPU      3.85s WALL (      12 calls)
     phqscf       :   3531.12s CPU   3805.25s WALL (      12 calls)
     dynmatrix    :      4.54s CPU      4.75s WALL (      12 calls)
 
     phqscf       :   3531.12s CPU   3805.25s WALL (      12 calls)
     solve_linter :   3528.46s CPU   3799.50s WALL (      58 calls)
     drhodv       :      2.52s CPU      2.87s WALL (      58 calls)
 
     dynmat0      :      3.62s CPU      3.85s WALL (      12 calls)
     dynmat_us    :      3.58s CPU      3.65s WALL (      12 calls)
     d2ionq       :      0.03s CPU      0.03s WALL (      12 calls)
 
     dynmat_us    :      3.58s CPU      3.65s WALL (      12 calls)
     addusdynmat  :      0.00s CPU      0.00s WALL (      12 calls)
 
     phqscf       :   3531.12s CPU   3805.25s WALL (      12 calls)
     solve_linter :   3528.46s CPU   3799.50s WALL (      58 calls)
 
     solve_linter :   3528.46s CPU   3799.50s WALL (      58 calls)
     dvqpsi_us    :     12.89s CPU     13.63s WALL (    4932 calls)
     ortho        :     52.94s CPU     54.02s WALL (   42455 calls)
     cgsolve      :    685.45s CPU    711.56s WALL (   42455 calls)
     incdrhoscf   :   1171.38s CPU   1179.55s WALL (   42455 calls)
     addusddens   :      7.89s CPU      7.88s WALL (     534 calls)
     vpsifft      :     46.38s CPU     49.41s WALL (   37523 calls)
     dv_of_drho   :      3.64s CPU      3.67s WALL (     569 calls)
     mix_pot      :      5.40s CPU     15.02s WALL (     476 calls)
     ef_shift     :      0.04s CPU      0.46s WALL (      29 calls)
     localdos     :      0.16s CPU      0.17s WALL (       4 calls)
     psymdvscf    :     28.36s CPU     28.54s WALL (     476 calls)
     newdq        :      7.50s CPU      7.50s WALL (     476 calls)
     adddvscf     :      3.14s CPU      3.54s WALL (   37523 calls)
     drhodvus     :      0.05s CPU      0.07s WALL (      58 calls)
 
     dvqpsi_us    :     12.89s CPU     13.63s WALL (    4932 calls)
     dvqpsi_us_on :      3.69s CPU      3.81s WALL (    4932 calls)
 
     cgsolve      :    685.45s CPU    711.56s WALL (   42455 calls)
     ch_psi       :    660.64s CPU    685.52s WALL (  546139 calls)
 
     ch_psi       :    660.64s CPU    685.52s WALL (  546139 calls)
     h_psiq       :    573.67s CPU    595.84s WALL (  546139 calls)
     last         :     83.31s CPU     86.07s WALL (  546139 calls)
 
     h_psiq       :    573.67s CPU    595.84s WALL (  546139 calls)
     firstfft     :    269.26s CPU    280.69s WALL ( 3471623 calls)
     secondfft    :    201.28s CPU    207.68s WALL ( 3471623 calls)
     add_vuspsi   :     27.83s CPU     28.77s WALL (  595416 calls)
 
     incdrhoscf   :   1171.38s CPU   1179.55s WALL (   42455 calls)
     addusdbec    :      4.08s CPU      4.51s WALL (   47387 calls)
 
     drhodvus     :      0.05s CPU      0.07s WALL (      58 calls)
 
      General routines
     calbec       :     67.88s CPU     70.73s WALL ( 1262633 calls)
     fft          :      2.94s CPU      2.98s WALL (    8976 calls)
     ffts         :      1.35s CPU      1.38s WALL (    7229 calls)
     fftw         :   1649.41s CPU   1675.71s WALL ( 9224194 calls)
     davcio       :      9.59s CPU    196.62s WALL (  216212 calls)
     write_rec    :      1.00s CPU     35.12s WALL (     534 calls)
 
 
     PHONON       :     1h 2m CPU        1h 7m WALL

 
   This run was terminated on:  21: 8:49  28Mar2018            

=------------------------------------------------------------------------------=
   JOB DONE.
=------------------------------------------------------------------------------=
Application 30383699 resources: utime ~725383s, stime ~8254s, Rss ~59072, inblocks ~4040276973, outblocks ~1394545898
