
     Program PHONON v.5.4.0 starts on 28Mar2018 at 18:52:57 

     This program is part of the open-source Quantum ESPRESSO suite
     for quantum simulation of materials; please cite
         "P. Giannozzi et al., J. Phys.:Condens. Matter 21 395502 (2009);
          URL http://www.quantum-espresso.org", 
     in publications or presentations arising from this work. More details at
     http://www.quantum-espresso.org/quote

     Parallel version (MPI & OpenMP), running on     192 processor cores
     Number of MPI processes:               192
     Threads/MPI process:                     1
     K-points division:     npool     =      24
     R & G space division:  proc/nbgrp/npool/nimage =       8

     Reading data from directory:
     ./na_hcp_7.07/na_hcp_7.07.save

   Info: using nr1, nr2, nr3 values from input

   Info: using nr1, nr2, nr3 values from input

     IMPORTANT: XC functional enforced from input :
     Exchange-correlation      = SLA  PW   PBE  PBE ( 1  4  3  4 0 0)
     Any further DFT definition will be discarded
     Please, verify this is what you really want

 
     Parallelization info
     --------------------
     sticks:   dense  smooth     PW     G-vecs:    dense   smooth      PW
     Min         137      69     20                 6025     2131     354
     Max         138      70     21                 6028     2140     361
     Sum        1099     559    163                48215    17093    2851
 


     Dynamical matrices for ( 4, 4, 4)  uniform grid of q-points
     (  12q-points):
       N         xq(1)         xq(2)         xq(3) 
       1   0.000000000   0.000000000   0.000000000
       2   0.000000000   0.000000000   0.153330962
       3   0.000000000   0.000000000  -0.306661924
       4   0.000000000   0.288675135   0.000000000
       5   0.000000000   0.288675135   0.153330962
       6   0.000000000   0.288675135  -0.306661924
       7   0.000000000  -0.577350269   0.000000000
       8   0.000000000  -0.577350269   0.153330962
       9   0.000000000  -0.577350269  -0.306661924
      10   0.250000000   0.433012702   0.000000000
      11   0.250000000   0.433012702   0.153330962
      12   0.250000000   0.433012702  -0.306661924

     Calculation of q =    0.0000000   0.0000000   0.0000000

                                                                                

     bravais-lattice index     =            4
     lattice parameter (alat)  =       7.0700  a.u.
     unit-cell volume          =     498.9982 (a.u.)^3
     number of atoms/cell      =            2
     number of atomic types    =            1
     kinetic-energy cut-off    =      40.0000  Ry
     charge density cut-off    =     320.0000  Ry
     convergence threshold     =      1.0E-15
     beta                      =       0.7000
     number of iterations used =            4
     Exchange-correlation      = SLA  PW   PBE  PBE ( 1  4  3  4 0 0)


     celldm(1)=    7.07000  celldm(2)=    0.00000  celldm(3)=    1.63046
     celldm(4)=    0.00000  celldm(5)=    0.00000  celldm(6)=    0.00000

     crystal axes: (cart. coord. in units of alat)
               a(1) = (  1.0000  0.0000  0.0000 )  
               a(2) = ( -0.5000  0.8660  0.0000 )  
               a(3) = (  0.0000  0.0000  1.6305 )  

     reciprocal axes: (cart. coord. in units 2 pi/alat)
               b(1) = (  1.0000  0.5774  0.0000 )  
               b(2) = (  0.0000  1.1547  0.0000 )  
               b(3) = (  0.0000  0.0000  0.6133 )  


     Atoms inside the unit cell: 

     Cartesian axes

     site n.  atom      mass           positions (alat units)
        1     Na  22.9900   tau(    1) = (    0.00000    0.00000    0.00000  )
        2     Na  22.9900   tau(    2) = (    0.50000    0.28868    0.81523  )

     Computing dynamical matrix for 
                    q = (   0.0000000   0.0000000   0.0000000 )
 
     25 Sym.Ops. (with q -> -q+G )


     G cutoff =  405.1623  (   6027 G-vectors)     FFT grid: ( 45, 45, 72)
     G cutoff =  202.5812  (   2140 G-vectors)  smooth grid: ( 30, 30, 48)

     number of k points=   366  Marzari-Vanderbilt smearing, width (Ry)=  0.0200

     PseudoPot. # 1 for Na read from file:
     ./Na_pbe_v1.uspp.F.UPF
     MD5 check sum: 76a99c7e9422403d3e93cbc85ab7bccb
     Pseudo is Ultrasoft, Zval =  9.0
     Generated by new atomic code, or converted to UPF format
     Using radial grid of  819 points,  5 beta functions with: 
                l(1) =   0
                l(2) =   0
                l(3) =   1
                l(4) =   1
                l(5) =   2
     Q(r) pseudized with  8 coefficients,  rinner =    1.250   1.250   1.250
                                                       1.250   1.250

     Mode symmetry, D_6h(6/mmm) point group:


     Atomic displacements:
     There are   4 irreducible representations

     Representation     1      1 modes -B_1g  To be done

     Representation     2      2 modes -E_2g  To be done

     Representation     3      1 modes -A_2u  To be done

     Representation     4      2 modes -E_1u  To be done



     Alpha used in Ewald sum =   2.8000
     PHONON       :    10.02s CPU        13.41s WALL



     Representation #  1 mode #   1

     Self-consistent Calculation
 
     Pert. #  1: Fermi energy shift (Ry) =    -4.5175E-21     0.0000E+00

      iter #   1 total cpu time :    14.2 secs   av.it.:   5.4
      thresh= 1.000E-02 alpha_mix =  0.700 |ddv_scf|^2 =  2.829E-05
 
     Pert. #  1: Fermi energy shift (Ry) =     5.6469E-22     0.0000E+00

      iter #   2 total cpu time :    15.7 secs   av.it.:   7.2
      thresh= 5.318E-04 alpha_mix =  0.700 |ddv_scf|^2 =  1.746E-05
 
     Pert. #  1: Fermi energy shift (Ry) =     0.0000E+00     0.0000E+00

      iter #   3 total cpu time :    16.5 secs   av.it.:   7.0
      thresh= 4.179E-04 alpha_mix =  0.700 |ddv_scf|^2 =  2.216E-08
 
     Pert. #  1: Fermi energy shift (Ry) =    -1.4117E-22     0.0000E+00

      iter #   4 total cpu time :    17.3 secs   av.it.:   8.3
      thresh= 1.489E-05 alpha_mix =  0.700 |ddv_scf|^2 =  8.794E-11
 
     Pert. #  1: Fermi energy shift (Ry) =     1.4117E-22     0.0000E+00

      iter #   5 total cpu time :    17.9 secs   av.it.:   7.3
      thresh= 9.377E-07 alpha_mix =  0.700 |ddv_scf|^2 =  1.811E-12
 
     Pert. #  1: Fermi energy shift (Ry) =     1.4117E-22     0.0000E+00

      iter #   6 total cpu time :    18.7 secs   av.it.:   7.2
      thresh= 1.346E-07 alpha_mix =  0.700 |ddv_scf|^2 =  4.737E-15
 
     Pert. #  1: Fermi energy shift (Ry) =     1.4117E-22     0.0000E+00

      iter #   7 total cpu time :    19.3 secs   av.it.:   8.1
      thresh= 6.882E-09 alpha_mix =  0.700 |ddv_scf|^2 =  1.307E-17

     End of self-consistent calculation

     Convergence has been achieved 


     Representation #  2 modes #   2  3

     Self-consistent Calculation
 
     Pert. #  1: Fermi energy shift (Ry) =    -1.0267E-19     1.8369E-40
     Pert. #  2: Fermi energy shift (Ry) =     2.8912E-19     2.4107E-40

      iter #   1 total cpu time :    22.2 secs   av.it.:   5.1
      thresh= 1.000E-02 alpha_mix =  0.700 |ddv_scf|^2 =  7.483E-07
 
     Pert. #  1: Fermi energy shift (Ry) =    -4.9395E-20     5.3601E-41
     Pert. #  2: Fermi energy shift (Ry) =    -9.0350E-21    -7.6530E-42

      iter #   2 total cpu time :    25.3 secs   av.it.:   8.6
      thresh= 8.650E-05 alpha_mix =  0.700 |ddv_scf|^2 =  1.289E-08
 
     Pert. #  1: Fermi energy shift (Ry) =    -8.4673E-21    -9.5643E-42
     Pert. #  2: Fermi energy shift (Ry) =    -9.0350E-21    -2.1524E-41

      iter #   3 total cpu time :    28.4 secs   av.it.:   8.8
      thresh= 1.135E-05 alpha_mix =  0.700 |ddv_scf|^2 =  4.288E-10
 
     Pert. #  1: Fermi energy shift (Ry) =    -7.3384E-21    -9.1367E-43
     Pert. #  2: Fermi energy shift (Ry) =     1.1294E-21     3.3482E-42

      iter #   4 total cpu time :    31.0 secs   av.it.:   8.4
      thresh= 2.071E-06 alpha_mix =  0.700 |ddv_scf|^2 =  1.398E-12
 
     Pert. #  1: Fermi energy shift (Ry) =    -1.0727E-20     2.3907E-43
     Pert. #  2: Fermi energy shift (Ry) =     1.1294E-21     2.9894E-43

      iter #   5 total cpu time :    33.6 secs   av.it.:   8.8
      thresh= 1.182E-07 alpha_mix =  0.700 |ddv_scf|^2 =  2.093E-15
 
     Pert. #  1: Fermi energy shift (Ry) =    -5.6231E-22     5.9671E-44
     Pert. #  2: Fermi energy shift (Ry) =    -4.5175E-21     2.6905E-43

      iter #   6 total cpu time :    37.3 secs   av.it.:   7.9
      thresh= 4.575E-09 alpha_mix =  0.700 |ddv_scf|^2 =  8.982E-17

     End of self-consistent calculation

     Convergence has been achieved 


     Representation #  3 mode #   4

     Self-consistent Calculation
 
     Pert. #  1: Fermi energy shift (Ry) =     4.1359E-25     0.0000E+00

      iter #   1 total cpu time :    43.4 secs   av.it.:   5.1
      thresh= 1.000E-02 alpha_mix =  0.700 |ddv_scf|^2 =  2.805E-06
 
     Pert. #  1: Fermi energy shift (Ry) =    -6.8932E-26     0.0000E+00

      iter #   2 total cpu time :    44.7 secs   av.it.:   8.0
      thresh= 1.675E-04 alpha_mix =  0.700 |ddv_scf|^2 =  5.263E-08
 
     Pert. #  1: Fermi energy shift (Ry) =    -2.6926E-28     0.0000E+00

      iter #   3 total cpu time :    45.7 secs   av.it.:   8.2
      thresh= 2.294E-05 alpha_mix =  0.700 |ddv_scf|^2 =  1.104E-09
 
     Pert. #  1: Fermi energy shift (Ry) =    -5.1699E-26     0.0000E+00

      iter #   4 total cpu time :    46.6 secs   av.it.:   7.7
      thresh= 3.322E-06 alpha_mix =  0.700 |ddv_scf|^2 =  3.692E-12
 
     Pert. #  1: Fermi energy shift (Ry) =     0.0000E+00     0.0000E+00

      iter #   5 total cpu time :    47.6 secs   av.it.:   8.2
      thresh= 1.921E-07 alpha_mix =  0.700 |ddv_scf|^2 =  8.355E-15
 
     Pert. #  1: Fermi energy shift (Ry) =     0.0000E+00     0.0000E+00

      iter #   6 total cpu time :    48.3 secs   av.it.:   7.7
      thresh= 9.140E-09 alpha_mix =  0.700 |ddv_scf|^2 =  1.931E-16

     End of self-consistent calculation

     Convergence has been achieved 


     Representation #  4 modes #   5  6

     Self-consistent Calculation
 
     Pert. #  1: Fermi energy shift (Ry) =     1.0102E-23     2.2726E-36
     Pert. #  2: Fermi energy shift (Ry) =     3.5844E-24    -2.5077E-37

      iter #   1 total cpu time :    50.6 secs   av.it.:   5.2
      thresh= 1.000E-02 alpha_mix =  0.700 |ddv_scf|^2 =  7.038E-07
 
     Pert. #  1: Fermi energy shift (Ry) =     1.1375E-24    -8.6938E-39
     Pert. #  2: Fermi energy shift (Ry) =     0.0000E+00    -2.9387E-39

      iter #   2 total cpu time :    53.2 secs   av.it.:   8.7
      thresh= 8.389E-05 alpha_mix =  0.700 |ddv_scf|^2 =  1.310E-08
 
     Pert. #  1: Fermi energy shift (Ry) =     2.7781E-25    -1.5995E-39
     Pert. #  2: Fermi energy shift (Ry) =    -2.0680E-25     6.1224E-40

      iter #   3 total cpu time :    64.7 secs   av.it.:   9.0
      thresh= 1.145E-05 alpha_mix =  0.700 |ddv_scf|^2 =  2.867E-10
 
     Pert. #  1: Fermi energy shift (Ry) =    -7.7412E-25    -1.8176E-41
     Pert. #  2: Fermi energy shift (Ry) =     4.1359E-25    -5.7397E-41

      iter #   4 total cpu time :    71.6 secs   av.it.:   8.7
      thresh= 1.693E-06 alpha_mix =  0.700 |ddv_scf|^2 =  9.638E-13
 
     Pert. #  1: Fermi energy shift (Ry) =    -8.4450E-25    -2.6307E-42
     Pert. #  2: Fermi energy shift (Ry) =     4.1359E-25     9.5662E-43

      iter #   5 total cpu time :    78.5 secs   av.it.:   9.1
      thresh= 9.817E-08 alpha_mix =  0.700 |ddv_scf|^2 =  2.030E-15
 
     Pert. #  1: Fermi energy shift (Ry) =    -8.4439E-25    -4.5439E-42
     Pert. #  2: Fermi energy shift (Ry) =     5.5145E-25    -8.6096E-42

      iter #   6 total cpu time :    89.3 secs   av.it.:   8.6
      thresh= 4.505E-09 alpha_mix =  0.700 |ddv_scf|^2 =  4.800E-17

     End of self-consistent calculation

     Convergence has been achieved 
 
     Number of q in the star =    1
     List of q in the star:
          1   0.000000000   0.000000000   0.000000000

     Diagonalizing the dynamical matrix

     q = (    0.000000000   0.000000000   0.000000000 ) 

 **************************************************************************
     freq (    1) =      -0.522917 [THz] =     -17.442619 [cm-1]
     freq (    2) =      -0.486293 [THz] =     -16.220984 [cm-1]
     freq (    3) =      -0.486293 [THz] =     -16.220984 [cm-1]
     freq (    4) =       1.559796 [THz] =      52.029184 [cm-1]
     freq (    5) =       1.559796 [THz] =      52.029184 [cm-1]
     freq (    6) =       3.871833 [THz] =     129.150454 [cm-1]
 **************************************************************************

     Mode symmetry, D_6h(6/mmm) point group:

     freq (  1 -  1) =        -17.4  [cm-1]   --> A_2u            I  
     freq (  2 -  3) =        -16.2  [cm-1]   --> E_1u            I  
     freq (  4 -  5) =         52.0  [cm-1]   --> E_2g            R  
     freq (  6 -  6) =        129.2  [cm-1]   --> B_1g               

     Calculation of q =    0.0000000   0.0000000   0.1533310
 
     Parallelization info
     --------------------
     sticks:   dense  smooth     PW     G-vecs:    dense   smooth      PW
     Min         137      69     20                 6025     2131     356
     Max         138      70     21                 6028     2142     363
     Sum        1099     559    163                48215    17093    2875
 


     bravais-lattice index     =            4
     lattice parameter (alat)  =       7.0700  a.u.
     unit-cell volume          =     498.9982 (a.u.)^3
     number of atoms/cell      =            2
     number of atomic types    =            1
     number of electrons       =        18.00
     number of Kohn-Sham states=           13
     kinetic-energy cutoff     =      40.0000  Ry
     charge density cutoff     =     320.0000  Ry
     Exchange-correlation      = SLA  PW   PBE  PBE ( 1  4  3  4 0 0)

     celldm(1)=   7.070000  celldm(2)=   0.000000  celldm(3)=   1.630460
     celldm(4)=   0.000000  celldm(5)=   0.000000  celldm(6)=   0.000000

     crystal axes: (cart. coord. in units of alat)
               a(1) = (   1.000000   0.000000   0.000000 )  
               a(2) = (  -0.500000   0.866025   0.000000 )  
               a(3) = (   0.000000   0.000000   1.630460 )  

     reciprocal axes: (cart. coord. in units 2 pi/alat)
               b(1) = (  1.000000  0.577350  0.000000 )  
               b(2) = (  0.000000  1.154701  0.000000 )  
               b(3) = (  0.000000  0.000000  0.613324 )  


     PseudoPot. # 1 for Na read from file:
     ./Na_pbe_v1.uspp.F.UPF
     MD5 check sum: 76a99c7e9422403d3e93cbc85ab7bccb
     Pseudo is Ultrasoft, Zval =  9.0
     Generated by new atomic code, or converted to UPF format
     Using radial grid of  819 points,  5 beta functions with: 
                l(1) =   0
                l(2) =   0
                l(3) =   1
                l(4) =   1
                l(5) =   2
     Q(r) pseudized with  8 coefficients,  rinner =    1.250   1.250   1.250
                                                       1.250   1.250

     atomic species   valence    mass     pseudopotential
        Na             9.00    22.99000     Na( 1.00)

     24 Sym. Ops., with inversion, found



   Cartesian axes

     site n.     atom                  positions (alat units)
         1           Na  tau(   1) = (   0.0000000   0.0000000   0.0000000  )
         2           Na  tau(   2) = (   0.5000000   0.2886751   0.8152300  )

     number of k points=  1464  Marzari-Vanderbilt smearing, width (Ry)=  0.0200

     Number of k-points >= 100: set verbosity='high' to print them.

     Dense  grid:    48215 G-vectors     FFT dimensions: (  45,  45,  72)

     Smooth grid:    17093 G-vectors     FFT dimensions: (  30,  30,  48)

     Largest allocated arrays     est. size (Mb)     dimensions
        Kohn-Sham Wavefunctions         0.05 Mb     (     276,   13)
        NL pseudopotentials             0.11 Mb     (     276,   26)
        Each V/rho on FFT grid          0.28 Mb     (   18225)
        Each G-vector array             0.05 Mb     (    6027)
        G-vector shells                 0.01 Mb     (    1800)
     Largest temporary arrays     est. size (Mb)     dimensions
        Auxiliary wavefunctions         0.22 Mb     (     276,   52)
        Each subspace H/S matrix        0.01 Mb     (      26,   26)
        Each <psi_i|beta_j> matrix      0.01 Mb     (      26,   13)

     The potential is recalculated from file :
     ./na_hcp_7.07/_ph0/na_hcp_7.07.save/charge-density.dat

     Starting wfc are   10 atomic +    3 random wfc

     Band Structure Calculation
     Davidson diagonalization with overlap

     ethr =  5.56E-11,  avg # of iterations = 23.7

     total cpu time spent up to now is        8.4 secs

     End of band structure calculation

     Number of k-points >= 100: set verbosity='high' to print the bands.

     the Fermi energy is     1.6151 ev

     Writing output data file na_hcp_7.07.save

                                                                                

     bravais-lattice index     =            4
     lattice parameter (alat)  =       7.0700  a.u.
     unit-cell volume          =     498.9982 (a.u.)^3
     number of atoms/cell      =            2
     number of atomic types    =            1
     kinetic-energy cut-off    =      40.0000  Ry
     charge density cut-off    =     320.0000  Ry
     convergence threshold     =      1.0E-15
     beta                      =       0.7000
     number of iterations used =            4
     Exchange-correlation      = SLA  PW   PBE  PBE ( 1  4  3  4 0 0)


     celldm(1)=    7.07000  celldm(2)=    0.00000  celldm(3)=    1.63046
     celldm(4)=    0.00000  celldm(5)=    0.00000  celldm(6)=    0.00000

     crystal axes: (cart. coord. in units of alat)
               a(1) = (  1.0000  0.0000  0.0000 )  
               a(2) = ( -0.5000  0.8660  0.0000 )  
               a(3) = (  0.0000  0.0000  1.6305 )  

     reciprocal axes: (cart. coord. in units 2 pi/alat)
               b(1) = (  1.0000  0.5774  0.0000 )  
               b(2) = (  0.0000  1.1547  0.0000 )  
               b(3) = (  0.0000  0.0000  0.6133 )  


     Atoms inside the unit cell: 

     Cartesian axes

     site n.  atom      mass           positions (alat units)
        1     Na  22.9900   tau(    1) = (    0.00000    0.00000    0.00000  )
        2     Na  22.9900   tau(    2) = (    0.50000    0.28868    0.81523  )

     Computing dynamical matrix for 
                    q = (   0.0000000   0.0000000   0.1533310 )
 
     12 Sym.Ops. (no q -> -q+G )


     G cutoff =  405.1623  (   6027 G-vectors)     FFT grid: ( 45, 45, 72)
     G cutoff =  202.5812  (   2142 G-vectors)  smooth grid: ( 30, 30, 48)

     number of k points=  1464  Marzari-Vanderbilt smearing, width (Ry)=  0.0200

     PseudoPot. # 1 for Na read from file:
     ./Na_pbe_v1.uspp.F.UPF
     MD5 check sum: 76a99c7e9422403d3e93cbc85ab7bccb
     Pseudo is Ultrasoft, Zval =  9.0
     Generated by new atomic code, or converted to UPF format
     Using radial grid of  819 points,  5 beta functions with: 
                l(1) =   0
                l(2) =   0
                l(3) =   1
                l(4) =   1
                l(5) =   2
     Q(r) pseudized with  8 coefficients,  rinner =    1.250   1.250   1.250
                                                       1.250   1.250

     Mode symmetry, C_6v (6mm)  point group:


     Atomic displacements:
     There are   4 irreducible representations

     Representation     1      1 modes -A_1  To be done

     Representation     2      1 modes -B_2  To be done

     Representation     3      2 modes -E_1  To be done

     Representation     4      2 modes -E_2  To be done



     Alpha used in Ewald sum =   2.8000
     PHONON       :  1m34.05s CPU     1m43.10s WALL



     Representation #  1 mode #   1

     Self-consistent Calculation

      iter #   1 total cpu time :   104.2 secs   av.it.:   5.4
      thresh= 1.000E-02 alpha_mix =  0.700 |ddv_scf|^2 =  4.696E-02

      iter #   2 total cpu time :   107.9 secs   av.it.:   6.8
      thresh= 1.000E-02 alpha_mix =  0.700 |ddv_scf|^2 =  2.616E+01

      iter #   3 total cpu time :   111.1 secs   av.it.:   6.8
      thresh= 1.000E-02 alpha_mix =  0.700 |ddv_scf|^2 =  9.861E-05

      iter #   4 total cpu time :   114.5 secs   av.it.:   5.5
      thresh= 9.930E-04 alpha_mix =  0.700 |ddv_scf|^2 =  3.744E-08

      iter #   5 total cpu time :   116.3 secs   av.it.:   7.7
      thresh= 1.935E-05 alpha_mix =  0.700 |ddv_scf|^2 =  1.140E-08

      iter #   6 total cpu time :   118.9 secs   av.it.:   5.0
      thresh= 1.068E-05 alpha_mix =  0.700 |ddv_scf|^2 =  7.063E-08

      iter #   7 total cpu time :   121.4 secs   av.it.:   6.0
      thresh= 2.658E-05 alpha_mix =  0.700 |ddv_scf|^2 =  8.229E-12

      iter #   8 total cpu time :   123.6 secs   av.it.:   8.6
      thresh= 2.869E-07 alpha_mix =  0.700 |ddv_scf|^2 =  3.255E-13

      iter #   9 total cpu time :   126.7 secs   av.it.:   8.7
      thresh= 5.705E-08 alpha_mix =  0.700 |ddv_scf|^2 =  1.253E-14

      iter #  10 total cpu time :   140.9 secs   av.it.:   8.7
      thresh= 1.119E-08 alpha_mix =  0.700 |ddv_scf|^2 =  6.530E-14

      iter #  11 total cpu time :   144.1 secs   av.it.:   6.2
      thresh= 2.555E-08 alpha_mix =  0.700 |ddv_scf|^2 =  1.550E-13

      iter #  12 total cpu time :   146.3 secs   av.it.:   5.7
      thresh= 3.938E-08 alpha_mix =  0.700 |ddv_scf|^2 =  1.241E-13

      iter #  13 total cpu time :   149.3 secs   av.it.:   4.4
      thresh= 3.523E-08 alpha_mix =  0.700 |ddv_scf|^2 =  8.464E-17

     End of self-consistent calculation

     Convergence has been achieved 


     Representation #  2 mode #   2

     Self-consistent Calculation

      iter #   1 total cpu time :   151.0 secs   av.it.:   5.4
      thresh= 1.000E-02 alpha_mix =  0.700 |ddv_scf|^2 =  7.442E-05

      iter #   2 total cpu time :   153.3 secs   av.it.:   7.2
      thresh= 8.627E-04 alpha_mix =  0.700 |ddv_scf|^2 =  2.524E-04

      iter #   3 total cpu time :   161.4 secs   av.it.:   6.4
      thresh= 1.589E-03 alpha_mix =  0.700 |ddv_scf|^2 =  1.231E-07

      iter #   4 total cpu time :   164.2 secs   av.it.:   8.2
      thresh= 3.509E-05 alpha_mix =  0.700 |ddv_scf|^2 =  3.299E-09

      iter #   5 total cpu time :   167.2 secs   av.it.:   8.7
      thresh= 5.744E-06 alpha_mix =  0.700 |ddv_scf|^2 =  7.841E-11

      iter #   6 total cpu time :   169.6 secs   av.it.:   8.7
      thresh= 8.855E-07 alpha_mix =  0.700 |ddv_scf|^2 =  5.514E-12

      iter #   7 total cpu time :   174.8 secs   av.it.:   8.3
      thresh= 2.348E-07 alpha_mix =  0.700 |ddv_scf|^2 =  3.274E-13

      iter #   8 total cpu time :   177.9 secs   av.it.:   8.5
      thresh= 5.722E-08 alpha_mix =  0.700 |ddv_scf|^2 =  1.559E-14

      iter #   9 total cpu time :   179.6 secs   av.it.:   7.8
      thresh= 1.249E-08 alpha_mix =  0.700 |ddv_scf|^2 =  6.083E-16

     End of self-consistent calculation

     Convergence has been achieved 


     Representation #  3 modes #   3  4

     Self-consistent Calculation

      iter #   1 total cpu time :   186.5 secs   av.it.:   5.1
      thresh= 1.000E-02 alpha_mix =  0.700 |ddv_scf|^2 =  7.096E-07

      iter #   2 total cpu time :   192.3 secs   av.it.:   8.6
      thresh= 8.423E-05 alpha_mix =  0.700 |ddv_scf|^2 =  1.308E-08

      iter #   3 total cpu time :   197.9 secs   av.it.:   8.8
      thresh= 1.144E-05 alpha_mix =  0.700 |ddv_scf|^2 =  3.022E-10

      iter #   4 total cpu time :   203.1 secs   av.it.:   8.5
      thresh= 1.738E-06 alpha_mix =  0.700 |ddv_scf|^2 =  1.004E-12

      iter #   5 total cpu time :   207.6 secs   av.it.:   8.9
      thresh= 1.002E-07 alpha_mix =  0.700 |ddv_scf|^2 =  2.074E-15

      iter #   6 total cpu time :   212.7 secs   av.it.:   8.3
      thresh= 4.554E-09 alpha_mix =  0.700 |ddv_scf|^2 =  5.657E-17

     End of self-consistent calculation

     Convergence has been achieved 


     Representation #  4 modes #   5  6

     Self-consistent Calculation

      iter #   1 total cpu time :   219.3 secs   av.it.:   5.1
      thresh= 1.000E-02 alpha_mix =  0.700 |ddv_scf|^2 =  7.410E-07

      iter #   2 total cpu time :   229.3 secs   av.it.:   8.6
      thresh= 8.608E-05 alpha_mix =  0.700 |ddv_scf|^2 =  1.293E-08

      iter #   3 total cpu time :   237.3 secs   av.it.:   8.8
      thresh= 1.137E-05 alpha_mix =  0.700 |ddv_scf|^2 =  4.022E-10

      iter #   4 total cpu time :   242.9 secs   av.it.:   8.5
      thresh= 2.005E-06 alpha_mix =  0.700 |ddv_scf|^2 =  1.312E-12

      iter #   5 total cpu time :   251.5 secs   av.it.:   8.9
      thresh= 1.145E-07 alpha_mix =  0.700 |ddv_scf|^2 =  2.116E-15

      iter #   6 total cpu time :   259.5 secs   av.it.:   8.1
      thresh= 4.600E-09 alpha_mix =  0.700 |ddv_scf|^2 =  8.582E-17

     End of self-consistent calculation

     Convergence has been achieved 
 
     Number of q in the star =    2
     List of q in the star:
          1   0.000000000   0.000000000   0.153330962
          2   0.000000000   0.000000000  -0.153330962

     Diagonalizing the dynamical matrix

     q = (    0.000000000   0.000000000   0.153330962 ) 

 **************************************************************************
     freq (    1) =       0.499372 [THz] =      16.657254 [cm-1]
     freq (    2) =       0.499372 [THz] =      16.657254 [cm-1]
     freq (    3) =       1.459460 [THz] =      48.682335 [cm-1]
     freq (    4) =       1.459460 [THz] =      48.682335 [cm-1]
     freq (    5) =       1.556703 [THz] =      51.926038 [cm-1]
     freq (    6) =       3.614901 [THz] =     120.580109 [cm-1]
 **************************************************************************

     Mode symmetry, C_6v (6mm)  point group:

     freq (  1 -  2) =         16.7  [cm-1]   --> E_1                
     freq (  3 -  4) =         48.7  [cm-1]   --> E_2                
     freq (  5 -  5) =         51.9  [cm-1]   --> A_1                
     freq (  6 -  6) =        120.6  [cm-1]   --> B_2                

     Calculation of q =    0.0000000   0.0000000  -0.3066619
 
     Parallelization info
     --------------------
     sticks:   dense  smooth     PW     G-vecs:    dense   smooth      PW
     Min         137      69     20                 6025     2131     354
     Max         138      70     21                 6028     2140     361
     Sum        1099     559    163                48215    17093    2851
 


     bravais-lattice index     =            4
     lattice parameter (alat)  =       7.0700  a.u.
     unit-cell volume          =     498.9982 (a.u.)^3
     number of atoms/cell      =            2
     number of atomic types    =            1
     number of electrons       =        18.00
     number of Kohn-Sham states=           13
     kinetic-energy cutoff     =      40.0000  Ry
     charge density cutoff     =     320.0000  Ry
     Exchange-correlation      = SLA  PW   PBE  PBE ( 1  4  3  4 0 0)

     celldm(1)=   7.070000  celldm(2)=   0.000000  celldm(3)=   1.630460
     celldm(4)=   0.000000  celldm(5)=   0.000000  celldm(6)=   0.000000

     crystal axes: (cart. coord. in units of alat)
               a(1) = (   1.000000   0.000000   0.000000 )  
               a(2) = (  -0.500000   0.866025   0.000000 )  
               a(3) = (   0.000000   0.000000   1.630460 )  

     reciprocal axes: (cart. coord. in units 2 pi/alat)
               b(1) = (  1.000000  0.577350  0.000000 )  
               b(2) = (  0.000000  1.154701  0.000000 )  
               b(3) = (  0.000000  0.000000  0.613324 )  


     PseudoPot. # 1 for Na read from file:
     ./Na_pbe_v1.uspp.F.UPF
     MD5 check sum: 76a99c7e9422403d3e93cbc85ab7bccb
     Pseudo is Ultrasoft, Zval =  9.0
     Generated by new atomic code, or converted to UPF format
     Using radial grid of  819 points,  5 beta functions with: 
                l(1) =   0
                l(2) =   0
                l(3) =   1
                l(4) =   1
                l(5) =   2
     Q(r) pseudized with  8 coefficients,  rinner =    1.250   1.250   1.250
                                                       1.250   1.250

     atomic species   valence    mass     pseudopotential
        Na             9.00    22.99000     Na( 1.00)

     24 Sym. Ops., with inversion, found



   Cartesian axes

     site n.     atom                  positions (alat units)
         1           Na  tau(   1) = (   0.0000000   0.0000000   0.0000000  )
         2           Na  tau(   2) = (   0.5000000   0.2886751   0.8152300  )

     number of k points=   732  Marzari-Vanderbilt smearing, width (Ry)=  0.0200

     Number of k-points >= 100: set verbosity='high' to print them.

     Dense  grid:    48215 G-vectors     FFT dimensions: (  45,  45,  72)

     Smooth grid:    17093 G-vectors     FFT dimensions: (  30,  30,  48)

     Largest allocated arrays     est. size (Mb)     dimensions
        Kohn-Sham Wavefunctions         0.06 Mb     (     280,   13)
        NL pseudopotentials             0.11 Mb     (     280,   26)
        Each V/rho on FFT grid          0.28 Mb     (   18225)
        Each G-vector array             0.05 Mb     (    6027)
        G-vector shells                 0.01 Mb     (    1833)
     Largest temporary arrays     est. size (Mb)     dimensions
        Auxiliary wavefunctions         0.22 Mb     (     280,   52)
        Each subspace H/S matrix        0.01 Mb     (      26,   26)
        Each <psi_i|beta_j> matrix      0.01 Mb     (      26,   13)

     The potential is recalculated from file :
     ./na_hcp_7.07/_ph0/na_hcp_7.07.save/charge-density.dat

     Starting wfc are   10 atomic +    3 random wfc

     Band Structure Calculation
     Davidson diagonalization with overlap

     ethr =  5.56E-11,  avg # of iterations = 23.7

     total cpu time spent up to now is       13.0 secs

     End of band structure calculation

     Number of k-points >= 100: set verbosity='high' to print the bands.

     the Fermi energy is     1.6151 ev

     Writing output data file na_hcp_7.07.save

                                                                                

     bravais-lattice index     =            4
     lattice parameter (alat)  =       7.0700  a.u.
     unit-cell volume          =     498.9982 (a.u.)^3
     number of atoms/cell      =            2
     number of atomic types    =            1
     kinetic-energy cut-off    =      40.0000  Ry
     charge density cut-off    =     320.0000  Ry
     convergence threshold     =      1.0E-15
     beta                      =       0.7000
     number of iterations used =            4
     Exchange-correlation      = SLA  PW   PBE  PBE ( 1  4  3  4 0 0)


     celldm(1)=    7.07000  celldm(2)=    0.00000  celldm(3)=    1.63046
     celldm(4)=    0.00000  celldm(5)=    0.00000  celldm(6)=    0.00000

     crystal axes: (cart. coord. in units of alat)
               a(1) = (  1.0000  0.0000  0.0000 )  
               a(2) = ( -0.5000  0.8660  0.0000 )  
               a(3) = (  0.0000  0.0000  1.6305 )  

     reciprocal axes: (cart. coord. in units 2 pi/alat)
               b(1) = (  1.0000  0.5774  0.0000 )  
               b(2) = (  0.0000  1.1547  0.0000 )  
               b(3) = (  0.0000  0.0000  0.6133 )  


     Atoms inside the unit cell: 

     Cartesian axes

     site n.  atom      mass           positions (alat units)
        1     Na  22.9900   tau(    1) = (    0.00000    0.00000    0.00000  )
        2     Na  22.9900   tau(    2) = (    0.50000    0.28868    0.81523  )

     Computing dynamical matrix for 
                    q = (   0.0000000   0.0000000  -0.3066619 )
 
     25 Sym.Ops. (with q -> -q+G )


     G cutoff =  405.1623  (   6027 G-vectors)     FFT grid: ( 45, 45, 72)
     G cutoff =  202.5812  (   2140 G-vectors)  smooth grid: ( 30, 30, 48)

     number of k points=   732  Marzari-Vanderbilt smearing, width (Ry)=  0.0200

     PseudoPot. # 1 for Na read from file:
     ./Na_pbe_v1.uspp.F.UPF
     MD5 check sum: 76a99c7e9422403d3e93cbc85ab7bccb
     Pseudo is Ultrasoft, Zval =  9.0
     Generated by new atomic code, or converted to UPF format
     Using radial grid of  819 points,  5 beta functions with: 
                l(1) =   0
                l(2) =   0
                l(3) =   1
                l(4) =   1
                l(5) =   2
     Q(r) pseudized with  8 coefficients,  rinner =    1.250   1.250   1.250
                                                       1.250   1.250


     Atomic displacements:
     There are   2 irreducible representations

     Representation     1      4 modes -  To be done

     Representation     2      2 modes -  To be done



     Alpha used in Ewald sum =   2.8000
     PHONON       :  4m 5.70s CPU     4m25.70s WALL



     Representation #  1 modes #   1  2  3  4

     Self-consistent Calculation

      iter #   1 total cpu time :   271.5 secs   av.it.:   5.2
      thresh= 1.000E-02 alpha_mix =  0.700 |ddv_scf|^2 =  1.811E-07

      iter #   2 total cpu time :   279.4 secs   av.it.:   9.4
      thresh= 4.256E-05 alpha_mix =  0.700 |ddv_scf|^2 =  3.252E-09

      iter #   3 total cpu time :   287.4 secs   av.it.:   9.7
      thresh= 5.703E-06 alpha_mix =  0.700 |ddv_scf|^2 =  8.640E-11

      iter #   4 total cpu time :   294.6 secs   av.it.:   9.2
      thresh= 9.295E-07 alpha_mix =  0.700 |ddv_scf|^2 =  2.849E-13

      iter #   5 total cpu time :   301.8 secs   av.it.:   9.5
      thresh= 5.338E-08 alpha_mix =  0.700 |ddv_scf|^2 =  5.337E-16

     End of self-consistent calculation

     Convergence has been achieved 


     Representation #  2 modes #   5  6

     Self-consistent Calculation

      iter #   1 total cpu time :   305.7 secs   av.it.:   5.7
      thresh= 1.000E-02 alpha_mix =  0.700 |ddv_scf|^2 =  1.870E-04

      iter #   2 total cpu time :   308.5 secs   av.it.:   7.7
      thresh= 1.367E-03 alpha_mix =  0.700 |ddv_scf|^2 =  5.100E-03

      iter #   3 total cpu time :   311.3 secs   av.it.:   6.1
      thresh= 7.142E-03 alpha_mix =  0.700 |ddv_scf|^2 =  1.322E-07

      iter #   4 total cpu time :   315.0 secs   av.it.:   8.6
      thresh= 3.636E-05 alpha_mix =  0.700 |ddv_scf|^2 =  6.817E-10

      iter #   5 total cpu time :   325.8 secs   av.it.:   9.5
      thresh= 2.611E-06 alpha_mix =  0.700 |ddv_scf|^2 =  5.409E-11

      iter #   6 total cpu time :   341.4 secs   av.it.:   9.4
      thresh= 7.354E-07 alpha_mix =  0.700 |ddv_scf|^2 =  1.313E-12

      iter #   7 total cpu time :   343.4 secs   av.it.:   9.7
      thresh= 1.146E-07 alpha_mix =  0.700 |ddv_scf|^2 =  1.979E-13

      iter #   8 total cpu time :   346.2 secs   av.it.:   8.3
      thresh= 4.449E-08 alpha_mix =  0.700 |ddv_scf|^2 =  2.688E-16

     End of self-consistent calculation

     Convergence has been achieved 
 
     Number of q in the star =    1
     List of q in the star:
          1   0.000000000   0.000000000  -0.306661924

     Diagonalizing the dynamical matrix

     q = (    0.000000000   0.000000000  -0.306661924 ) 

 **************************************************************************
     freq (    1) =       0.998241 [THz] =      33.297742 [cm-1]
     freq (    2) =       0.998241 [THz] =      33.297742 [cm-1]
     freq (    3) =       0.998241 [THz] =      33.297742 [cm-1]
     freq (    4) =       0.998241 [THz] =      33.297742 [cm-1]
     freq (    5) =       2.834142 [THz] =      94.536804 [cm-1]
     freq (    6) =       2.834142 [THz] =      94.536804 [cm-1]
 **************************************************************************

     Calculation of q =    0.0000000   0.2886751   0.0000000
 
     Parallelization info
     --------------------
     sticks:   dense  smooth     PW     G-vecs:    dense   smooth      PW
     Min         137      69     21                 6025     2128     381
     Max         138      70     26                 6028     2148     383
     Sum        1099     559    187                48215    17093    3057
 


     bravais-lattice index     =            4
     lattice parameter (alat)  =       7.0700  a.u.
     unit-cell volume          =     498.9982 (a.u.)^3
     number of atoms/cell      =            2
     number of atomic types    =            1
     number of electrons       =        18.00
     number of Kohn-Sham states=           13
     kinetic-energy cutoff     =      40.0000  Ry
     charge density cutoff     =     320.0000  Ry
     Exchange-correlation      = SLA  PW   PBE  PBE ( 1  4  3  4 0 0)

     celldm(1)=   7.070000  celldm(2)=   0.000000  celldm(3)=   1.630460
     celldm(4)=   0.000000  celldm(5)=   0.000000  celldm(6)=   0.000000

     crystal axes: (cart. coord. in units of alat)
               a(1) = (   1.000000   0.000000   0.000000 )  
               a(2) = (  -0.500000   0.866025   0.000000 )  
               a(3) = (   0.000000   0.000000   1.630460 )  

     reciprocal axes: (cart. coord. in units 2 pi/alat)
               b(1) = (  1.000000  0.577350  0.000000 )  
               b(2) = (  0.000000  1.154701  0.000000 )  
               b(3) = (  0.000000  0.000000  0.613324 )  


     PseudoPot. # 1 for Na read from file:
     ./Na_pbe_v1.uspp.F.UPF
     MD5 check sum: 76a99c7e9422403d3e93cbc85ab7bccb
     Pseudo is Ultrasoft, Zval =  9.0
     Generated by new atomic code, or converted to UPF format
     Using radial grid of  819 points,  5 beta functions with: 
                l(1) =   0
                l(2) =   0
                l(3) =   1
                l(4) =   1
                l(5) =   2
     Q(r) pseudized with  8 coefficients,  rinner =    1.250   1.250   1.250
                                                       1.250   1.250

     atomic species   valence    mass     pseudopotential
        Na             9.00    22.99000     Na( 1.00)

     24 Sym. Ops., with inversion, found



   Cartesian axes

     site n.     atom                  positions (alat units)
         1           Na  tau(   1) = (   0.0000000   0.0000000   0.0000000  )
         2           Na  tau(   2) = (   0.5000000   0.2886751   0.8152300  )

     number of k points=  3600  Marzari-Vanderbilt smearing, width (Ry)=  0.0200

     Number of k-points >= 100: set verbosity='high' to print them.

     Dense  grid:    48215 G-vectors     FFT dimensions: (  45,  45,  72)

     Smooth grid:    17093 G-vectors     FFT dimensions: (  30,  30,  48)

     Largest allocated arrays     est. size (Mb)     dimensions
        Kohn-Sham Wavefunctions         0.06 Mb     (     285,   13)
        NL pseudopotentials             0.11 Mb     (     285,   26)
        Each V/rho on FFT grid          0.28 Mb     (   18225)
        Each G-vector array             0.05 Mb     (    6027)
        G-vector shells                 0.01 Mb     (    1783)
     Largest temporary arrays     est. size (Mb)     dimensions
        Auxiliary wavefunctions         0.23 Mb     (     285,   52)
        Each subspace H/S matrix        0.01 Mb     (      26,   26)
        Each <psi_i|beta_j> matrix      0.01 Mb     (      26,   13)

     The potential is recalculated from file :
     ./na_hcp_7.07/_ph0/na_hcp_7.07.save/charge-density.dat

     Starting wfc are   10 atomic +    3 random wfc

     Band Structure Calculation
     Davidson diagonalization with overlap

     ethr =  5.56E-11,  avg # of iterations = 22.9

     total cpu time spent up to now is       36.0 secs

     End of band structure calculation

     Number of k-points >= 100: set verbosity='high' to print the bands.

     the Fermi energy is     1.6151 ev

     Writing output data file na_hcp_7.07.save

                                                                                

     bravais-lattice index     =            4
     lattice parameter (alat)  =       7.0700  a.u.
     unit-cell volume          =     498.9982 (a.u.)^3
     number of atoms/cell      =            2
     number of atomic types    =            1
     kinetic-energy cut-off    =      40.0000  Ry
     charge density cut-off    =     320.0000  Ry
     convergence threshold     =      1.0E-15
     beta                      =       0.7000
     number of iterations used =            4
     Exchange-correlation      = SLA  PW   PBE  PBE ( 1  4  3  4 0 0)


     celldm(1)=    7.07000  celldm(2)=    0.00000  celldm(3)=    1.63046
     celldm(4)=    0.00000  celldm(5)=    0.00000  celldm(6)=    0.00000

     crystal axes: (cart. coord. in units of alat)
               a(1) = (  1.0000  0.0000  0.0000 )  
               a(2) = ( -0.5000  0.8660  0.0000 )  
               a(3) = (  0.0000  0.0000  1.6305 )  

     reciprocal axes: (cart. coord. in units 2 pi/alat)
               b(1) = (  1.0000  0.5774  0.0000 )  
               b(2) = (  0.0000  1.1547  0.0000 )  
               b(3) = (  0.0000  0.0000  0.6133 )  


     Atoms inside the unit cell: 

     Cartesian axes

     site n.  atom      mass           positions (alat units)
        1     Na  22.9900   tau(    1) = (    0.00000    0.00000    0.00000  )
        2     Na  22.9900   tau(    2) = (    0.50000    0.28868    0.81523  )

     Computing dynamical matrix for 
                    q = (   0.0000000   0.2886751   0.0000000 )
 
      4 Sym.Ops. (no q -> -q+G )


     G cutoff =  405.1623  (   6027 G-vectors)     FFT grid: ( 45, 45, 72)
     G cutoff =  202.5812  (   2129 G-vectors)  smooth grid: ( 30, 30, 48)

     number of k points=  3600  Marzari-Vanderbilt smearing, width (Ry)=  0.0200

     PseudoPot. # 1 for Na read from file:
     ./Na_pbe_v1.uspp.F.UPF
     MD5 check sum: 76a99c7e9422403d3e93cbc85ab7bccb
     Pseudo is Ultrasoft, Zval =  9.0
     Generated by new atomic code, or converted to UPF format
     Using radial grid of  819 points,  5 beta functions with: 
                l(1) =   0
                l(2) =   0
                l(3) =   1
                l(4) =   1
                l(5) =   2
     Q(r) pseudized with  8 coefficients,  rinner =    1.250   1.250   1.250
                                                       1.250   1.250

     Mode symmetry, C_2v (mm2)  point group:


     Atomic displacements:
     There are   6 irreducible representations

     Representation     1      1 modes -A_1  D_1  S_1  To be done

     Representation     2      1 modes -A_1  D_1  S_1  To be done

     Representation     3      1 modes -B_1  D_3  S_3  To be done

     Representation     4      1 modes -B_1  D_3  S_3  To be done

     Representation     5      1 modes -B_2  D_4  S_4  To be done

     Representation     6      1 modes -B_2  D_4  S_4  To be done



     Alpha used in Ewald sum =   2.8000
     PHONON       :  5m43.42s CPU     6m16.20s WALL



     Representation #  1 mode #   1

     Self-consistent Calculation

      iter #   1 total cpu time :   379.1 secs   av.it.:   5.7
      thresh= 1.000E-02 alpha_mix =  0.700 |ddv_scf|^2 =  5.400E-04

      iter #   2 total cpu time :   384.6 secs   av.it.:   7.3
      thresh= 2.324E-03 alpha_mix =  0.700 |ddv_scf|^2 =  1.941E-02

      iter #   3 total cpu time :   390.6 secs   av.it.:   5.3
      thresh= 1.000E-02 alpha_mix =  0.700 |ddv_scf|^2 =  4.625E-07

      iter #   4 total cpu time :   396.0 secs   av.it.:   8.2
      thresh= 6.801E-05 alpha_mix =  0.700 |ddv_scf|^2 =  2.650E-08

      iter #   5 total cpu time :   401.3 secs   av.it.:   8.3
      thresh= 1.628E-05 alpha_mix =  0.700 |ddv_scf|^2 =  6.530E-10

      iter #   6 total cpu time :   406.0 secs   av.it.:   8.7
      thresh= 2.555E-06 alpha_mix =  0.700 |ddv_scf|^2 =  1.276E-10

      iter #   7 total cpu time :   411.8 secs   av.it.:   8.0
      thresh= 1.130E-06 alpha_mix =  0.700 |ddv_scf|^2 =  1.494E-09

      iter #   8 total cpu time :   415.9 secs   av.it.:   6.6
      thresh= 3.866E-06 alpha_mix =  0.700 |ddv_scf|^2 =  2.718E-12

      iter #   9 total cpu time :   421.3 secs   av.it.:   8.7
      thresh= 1.649E-07 alpha_mix =  0.700 |ddv_scf|^2 =  4.974E-13

      iter #  10 total cpu time :   427.2 secs   av.it.:   7.7
      thresh= 7.052E-08 alpha_mix =  0.700 |ddv_scf|^2 =  1.890E-12

      iter #  11 total cpu time :   432.3 secs   av.it.:   7.0
      thresh= 1.375E-07 alpha_mix =  0.700 |ddv_scf|^2 =  1.552E-15

      iter #  12 total cpu time :   437.7 secs   av.it.:   8.9
      thresh= 3.939E-09 alpha_mix =  0.700 |ddv_scf|^2 =  9.269E-17

     End of self-consistent calculation

     Convergence has been achieved 


     Representation #  2 mode #   2

     Self-consistent Calculation

      iter #   1 total cpu time :   449.4 secs   av.it.:   5.7
      thresh= 1.000E-02 alpha_mix =  0.700 |ddv_scf|^2 =  5.400E-04

      iter #   2 total cpu time :   460.6 secs   av.it.:   7.3
      thresh= 2.324E-03 alpha_mix =  0.700 |ddv_scf|^2 =  1.941E-02

      iter #   3 total cpu time :   470.9 secs   av.it.:   5.3
      thresh= 1.000E-02 alpha_mix =  0.700 |ddv_scf|^2 =  4.625E-07

      iter #   4 total cpu time :   478.9 secs   av.it.:   8.2
      thresh= 6.801E-05 alpha_mix =  0.700 |ddv_scf|^2 =  2.650E-08

      iter #   5 total cpu time :   486.9 secs   av.it.:   8.3
      thresh= 1.628E-05 alpha_mix =  0.700 |ddv_scf|^2 =  6.530E-10

      iter #   6 total cpu time :   491.8 secs   av.it.:   8.7
      thresh= 2.555E-06 alpha_mix =  0.700 |ddv_scf|^2 =  1.296E-10

      iter #   7 total cpu time :   496.7 secs   av.it.:   8.0
      thresh= 1.138E-06 alpha_mix =  0.700 |ddv_scf|^2 =  1.497E-09

      iter #   8 total cpu time :   502.3 secs   av.it.:   6.6
      thresh= 3.870E-06 alpha_mix =  0.700 |ddv_scf|^2 =  2.700E-12

      iter #   9 total cpu time :   507.0 secs   av.it.:   8.7
      thresh= 1.643E-07 alpha_mix =  0.700 |ddv_scf|^2 =  4.976E-13

      iter #  10 total cpu time :   511.7 secs   av.it.:   7.7
      thresh= 7.054E-08 alpha_mix =  0.700 |ddv_scf|^2 =  1.889E-12

      iter #  11 total cpu time :   519.6 secs   av.it.:   7.0
      thresh= 1.374E-07 alpha_mix =  0.700 |ddv_scf|^2 =  1.552E-15

      iter #  12 total cpu time :   527.5 secs   av.it.:   8.9
      thresh= 3.939E-09 alpha_mix =  0.700 |ddv_scf|^2 =  9.265E-17

     End of self-consistent calculation

     Convergence has been achieved 


     Representation #  3 mode #   3

     Self-consistent Calculation

      iter #   1 total cpu time :   534.9 secs   av.it.:   5.3
      thresh= 1.000E-02 alpha_mix =  0.700 |ddv_scf|^2 =  3.142E-06

      iter #   2 total cpu time :   540.8 secs   av.it.:   8.3
      thresh= 1.773E-04 alpha_mix =  0.700 |ddv_scf|^2 =  5.039E-08

      iter #   3 total cpu time :   545.0 secs   av.it.:   8.6
      thresh= 2.245E-05 alpha_mix =  0.700 |ddv_scf|^2 =  2.316E-09

      iter #   4 total cpu time :   556.0 secs   av.it.:   8.2
      thresh= 4.813E-06 alpha_mix =  0.700 |ddv_scf|^2 =  1.374E-11

      iter #   5 total cpu time :   560.6 secs   av.it.:   8.3
      thresh= 3.707E-07 alpha_mix =  0.700 |ddv_scf|^2 =  1.024E-13

      iter #   6 total cpu time :   564.4 secs   av.it.:   8.7
      thresh= 3.201E-08 alpha_mix =  0.700 |ddv_scf|^2 =  3.640E-16

     End of self-consistent calculation

     Convergence has been achieved 


     Representation #  4 mode #   4

     Self-consistent Calculation

      iter #   1 total cpu time :   570.3 secs   av.it.:   5.3
      thresh= 1.000E-02 alpha_mix =  0.700 |ddv_scf|^2 =  3.142E-06

      iter #   2 total cpu time :   574.7 secs   av.it.:   8.3
      thresh= 1.773E-04 alpha_mix =  0.700 |ddv_scf|^2 =  5.039E-08

      iter #   3 total cpu time :   579.7 secs   av.it.:   8.6
      thresh= 2.245E-05 alpha_mix =  0.700 |ddv_scf|^2 =  2.316E-09

      iter #   4 total cpu time :   584.1 secs   av.it.:   8.2
      thresh= 4.813E-06 alpha_mix =  0.700 |ddv_scf|^2 =  1.374E-11

      iter #   5 total cpu time :   589.9 secs   av.it.:   8.3
      thresh= 3.707E-07 alpha_mix =  0.700 |ddv_scf|^2 =  1.024E-13

      iter #   6 total cpu time :   594.4 secs   av.it.:   8.7
      thresh= 3.201E-08 alpha_mix =  0.700 |ddv_scf|^2 =  3.640E-16

     End of self-consistent calculation

     Convergence has been achieved 


     Representation #  5 mode #   5

     Self-consistent Calculation

      iter #   1 total cpu time :   601.6 secs   av.it.:   5.5
      thresh= 1.000E-02 alpha_mix =  0.700 |ddv_scf|^2 =  8.624E-06

      iter #   2 total cpu time :   606.6 secs   av.it.:   8.4
      thresh= 2.937E-04 alpha_mix =  0.700 |ddv_scf|^2 =  1.825E-06

      iter #   3 total cpu time :   611.8 secs   av.it.:   7.6
      thresh= 1.351E-04 alpha_mix =  0.700 |ddv_scf|^2 =  1.065E-08

      iter #   4 total cpu time :   616.5 secs   av.it.:   8.8
      thresh= 1.032E-05 alpha_mix =  0.700 |ddv_scf|^2 =  3.684E-10

      iter #   5 total cpu time :   620.5 secs   av.it.:   8.2
      thresh= 1.919E-06 alpha_mix =  0.700 |ddv_scf|^2 =  2.144E-12

      iter #   6 total cpu time :   625.6 secs   av.it.:   8.6
      thresh= 1.464E-07 alpha_mix =  0.700 |ddv_scf|^2 =  1.127E-14

      iter #   7 total cpu time :   630.2 secs   av.it.:   8.3
      thresh= 1.061E-08 alpha_mix =  0.700 |ddv_scf|^2 =  5.248E-16

     End of self-consistent calculation

     Convergence has been achieved 


     Representation #  6 mode #   6

     Self-consistent Calculation

      iter #   1 total cpu time :   635.9 secs   av.it.:   5.5
      thresh= 1.000E-02 alpha_mix =  0.700 |ddv_scf|^2 =  8.624E-06

      iter #   2 total cpu time :   641.1 secs   av.it.:   8.4
      thresh= 2.937E-04 alpha_mix =  0.700 |ddv_scf|^2 =  1.825E-06

      iter #   3 total cpu time :   657.7 secs   av.it.:   7.7
      thresh= 1.351E-04 alpha_mix =  0.700 |ddv_scf|^2 =  1.065E-08

      iter #   4 total cpu time :   662.8 secs   av.it.:   8.8
      thresh= 1.032E-05 alpha_mix =  0.700 |ddv_scf|^2 =  3.684E-10

      iter #   5 total cpu time :   668.0 secs   av.it.:   8.2
      thresh= 1.919E-06 alpha_mix =  0.700 |ddv_scf|^2 =  2.144E-12

      iter #   6 total cpu time :   673.5 secs   av.it.:   8.6
      thresh= 1.464E-07 alpha_mix =  0.700 |ddv_scf|^2 =  1.127E-14

      iter #   7 total cpu time :   678.5 secs   av.it.:   8.3
      thresh= 1.061E-08 alpha_mix =  0.700 |ddv_scf|^2 =  5.248E-16

     End of self-consistent calculation

     Convergence has been achieved 
 
     Number of q in the star =    6
     List of q in the star:
          1   0.000000000   0.288675135   0.000000000
          2  -0.250000000   0.144337567   0.000000000
          3   0.250000000  -0.144337567   0.000000000
          4  -0.250000000  -0.144337567   0.000000000
          5   0.250000000   0.144337567   0.000000000
          6   0.000000000  -0.288675135   0.000000000

     Diagonalizing the dynamical matrix

     q = (    0.000000000   0.288675135   0.000000000 ) 

 **************************************************************************
     freq (    1) =       1.149388 [THz] =      38.339442 [cm-1]
     freq (    2) =       1.398898 [THz] =      46.662218 [cm-1]
     freq (    3) =       2.359021 [THz] =      78.688471 [cm-1]
     freq (    4) =       2.495491 [THz] =      83.240617 [cm-1]
     freq (    5) =       3.040643 [THz] =     101.424948 [cm-1]
     freq (    6) =       3.619561 [THz] =     120.735558 [cm-1]
 **************************************************************************

     Mode symmetry, C_2v (mm2)  point group:

     freq (  1 -  1) =         38.3  [cm-1]   --> B_1  D_3  S_3      
     freq (  2 -  2) =         46.7  [cm-1]   --> B_2  D_4  S_4      
     freq (  3 -  3) =         78.7  [cm-1]   --> B_1  D_3  S_3      
     freq (  4 -  4) =         83.2  [cm-1]   --> A_1  D_1  S_1      
     freq (  5 -  5) =        101.4  [cm-1]   --> A_1  D_1  S_1      
     freq (  6 -  6) =        120.7  [cm-1]   --> B_2  D_4  S_4      

     Calculation of q =    0.0000000   0.2886751   0.1533310
 
     Parallelization info
     --------------------
     sticks:   dense  smooth     PW     G-vecs:    dense   smooth      PW
     Min         137      69     23                 6025     2131     397
     Max         138      70     24                 6028     2140     400
     Sum        1099     559    187                48215    17093    3189
 


     bravais-lattice index     =            4
     lattice parameter (alat)  =       7.0700  a.u.
     unit-cell volume          =     498.9982 (a.u.)^3
     number of atoms/cell      =            2
     number of atomic types    =            1
     number of electrons       =        18.00
     number of Kohn-Sham states=           13
     kinetic-energy cutoff     =      40.0000  Ry
     charge density cutoff     =     320.0000  Ry
     Exchange-correlation      = SLA  PW   PBE  PBE ( 1  4  3  4 0 0)

     celldm(1)=   7.070000  celldm(2)=   0.000000  celldm(3)=   1.630460
     celldm(4)=   0.000000  celldm(5)=   0.000000  celldm(6)=   0.000000

     crystal axes: (cart. coord. in units of alat)
               a(1) = (   1.000000   0.000000   0.000000 )  
               a(2) = (  -0.500000   0.866025   0.000000 )  
               a(3) = (   0.000000   0.000000   1.630460 )  

     reciprocal axes: (cart. coord. in units 2 pi/alat)
               b(1) = (  1.000000  0.577350  0.000000 )  
               b(2) = (  0.000000  1.154701  0.000000 )  
               b(3) = (  0.000000  0.000000  0.613324 )  


     PseudoPot. # 1 for Na read from file:
     ./Na_pbe_v1.uspp.F.UPF
     MD5 check sum: 76a99c7e9422403d3e93cbc85ab7bccb
     Pseudo is Ultrasoft, Zval =  9.0
     Generated by new atomic code, or converted to UPF format
     Using radial grid of  819 points,  5 beta functions with: 
                l(1) =   0
                l(2) =   0
                l(3) =   1
                l(4) =   1
                l(5) =   2
     Q(r) pseudized with  8 coefficients,  rinner =    1.250   1.250   1.250
                                                       1.250   1.250

     atomic species   valence    mass     pseudopotential
        Na             9.00    22.99000     Na( 1.00)

     24 Sym. Ops., with inversion, found



   Cartesian axes

     site n.     atom                  positions (alat units)
         1           Na  tau(   1) = (   0.0000000   0.0000000   0.0000000  )
         2           Na  tau(   2) = (   0.5000000   0.2886751   0.8152300  )

     number of k points=  7200  Marzari-Vanderbilt smearing, width (Ry)=  0.0200

     Number of k-points >= 100: set verbosity='high' to print them.

     Dense  grid:    48215 G-vectors     FFT dimensions: (  45,  45,  72)

     Smooth grid:    17093 G-vectors     FFT dimensions: (  30,  30,  48)

     Largest allocated arrays     est. size (Mb)     dimensions
        Kohn-Sham Wavefunctions         0.05 Mb     (     277,   13)
        NL pseudopotentials             0.11 Mb     (     277,   26)
        Each V/rho on FFT grid          0.28 Mb     (   18225)
        Each G-vector array             0.05 Mb     (    6027)
        G-vector shells                 0.01 Mb     (    1801)
     Largest temporary arrays     est. size (Mb)     dimensions
        Auxiliary wavefunctions         0.22 Mb     (     277,   52)
        Each subspace H/S matrix        0.01 Mb     (      26,   26)
        Each <psi_i|beta_j> matrix      0.01 Mb     (      26,   13)

     The potential is recalculated from file :
     ./na_hcp_7.07/_ph0/na_hcp_7.07.save/charge-density.dat

     Starting wfc are   10 atomic +    3 random wfc

     Band Structure Calculation
     Davidson diagonalization with overlap

     ethr =  5.56E-11,  avg # of iterations = 23.0

     total cpu time spent up to now is       72.7 secs

     End of band structure calculation

     Number of k-points >= 100: set verbosity='high' to print the bands.

     the Fermi energy is     1.6151 ev

     Writing output data file na_hcp_7.07.save

                                                                                

     bravais-lattice index     =            4
     lattice parameter (alat)  =       7.0700  a.u.
     unit-cell volume          =     498.9982 (a.u.)^3
     number of atoms/cell      =            2
     number of atomic types    =            1
     kinetic-energy cut-off    =      40.0000  Ry
     charge density cut-off    =     320.0000  Ry
     convergence threshold     =      1.0E-15
     beta                      =       0.7000
     number of iterations used =            4
     Exchange-correlation      = SLA  PW   PBE  PBE ( 1  4  3  4 0 0)


     celldm(1)=    7.07000  celldm(2)=    0.00000  celldm(3)=    1.63046
     celldm(4)=    0.00000  celldm(5)=    0.00000  celldm(6)=    0.00000

     crystal axes: (cart. coord. in units of alat)
               a(1) = (  1.0000  0.0000  0.0000 )  
               a(2) = ( -0.5000  0.8660  0.0000 )  
               a(3) = (  0.0000  0.0000  1.6305 )  

     reciprocal axes: (cart. coord. in units 2 pi/alat)
               b(1) = (  1.0000  0.5774  0.0000 )  
               b(2) = (  0.0000  1.1547  0.0000 )  
               b(3) = (  0.0000  0.0000  0.6133 )  


     Atoms inside the unit cell: 

     Cartesian axes

     site n.  atom      mass           positions (alat units)
        1     Na  22.9900   tau(    1) = (    0.00000    0.00000    0.00000  )
        2     Na  22.9900   tau(    2) = (    0.50000    0.28868    0.81523  )

     Computing dynamical matrix for 
                    q = (   0.0000000   0.2886751   0.1533310 )
 
      2 Sym.Ops. (no q -> -q+G )


     G cutoff =  405.1623  (   6027 G-vectors)     FFT grid: ( 45, 45, 72)
     G cutoff =  202.5812  (   2140 G-vectors)  smooth grid: ( 30, 30, 48)

     number of k points=  7200  Marzari-Vanderbilt smearing, width (Ry)=  0.0200

     PseudoPot. # 1 for Na read from file:
     ./Na_pbe_v1.uspp.F.UPF
     MD5 check sum: 76a99c7e9422403d3e93cbc85ab7bccb
     Pseudo is Ultrasoft, Zval =  9.0
     Generated by new atomic code, or converted to UPF format
     Using radial grid of  819 points,  5 beta functions with: 
                l(1) =   0
                l(2) =   0
                l(3) =   1
                l(4) =   1
                l(5) =   2
     Q(r) pseudized with  8 coefficients,  rinner =    1.250   1.250   1.250
                                                       1.250   1.250

     Mode symmetry, C_s (m)     point group:


     Atomic displacements:
     There are   6 irreducible representations

     Representation     1      1 modes -A'  To be done

     Representation     2      1 modes -A'  To be done

     Representation     3      1 modes -A'  To be done

     Representation     4      1 modes -A'  To be done

     Representation     5      1 modes -A''  To be done

     Representation     6      1 modes -A''  To be done



     Alpha used in Ewald sum =   2.8000
     PHONON       : 11m 6.30s CPU    12m 5.64s WALL



     Representation #  1 mode #   1

     Self-consistent Calculation

      iter #   1 total cpu time :   732.1 secs   av.it.:   5.7
      thresh= 1.000E-02 alpha_mix =  0.700 |ddv_scf|^2 =  2.114E-04

      iter #   2 total cpu time :   747.6 secs   av.it.:   7.6
      thresh= 1.454E-03 alpha_mix =  0.700 |ddv_scf|^2 =  4.210E-03

      iter #   3 total cpu time :   757.8 secs   av.it.:   5.6
      thresh= 6.489E-03 alpha_mix =  0.700 |ddv_scf|^2 =  1.929E-06

      iter #   4 total cpu time :   774.3 secs   av.it.:   7.8
      thresh= 1.389E-04 alpha_mix =  0.700 |ddv_scf|^2 =  2.752E-07

      iter #   5 total cpu time :   785.3 secs   av.it.:   7.8
      thresh= 5.246E-05 alpha_mix =  0.700 |ddv_scf|^2 =  1.231E-09

      iter #   6 total cpu time :   794.5 secs   av.it.:   8.7
      thresh= 3.509E-06 alpha_mix =  0.700 |ddv_scf|^2 =  5.934E-11

      iter #   7 total cpu time :   820.8 secs   av.it.:   8.7
      thresh= 7.703E-07 alpha_mix =  0.700 |ddv_scf|^2 =  2.363E-11

      iter #   8 total cpu time :   831.1 secs   av.it.:   7.7
      thresh= 4.861E-07 alpha_mix =  0.700 |ddv_scf|^2 =  5.159E-11

      iter #   9 total cpu time :   845.9 secs   av.it.:   7.5
      thresh= 7.183E-07 alpha_mix =  0.700 |ddv_scf|^2 =  2.466E-13

      iter #  10 total cpu time :   858.0 secs   av.it.:   8.8
      thresh= 4.966E-08 alpha_mix =  0.700 |ddv_scf|^2 =  3.293E-13

      iter #  11 total cpu time :   864.5 secs   av.it.:   7.5
      thresh= 5.738E-08 alpha_mix =  0.700 |ddv_scf|^2 =  2.969E-14

      iter #  12 total cpu time :   872.0 secs   av.it.:   8.0
      thresh= 1.723E-08 alpha_mix =  0.700 |ddv_scf|^2 =  1.117E-14

      iter #  13 total cpu time :   880.2 secs   av.it.:   7.7
      thresh= 1.057E-08 alpha_mix =  0.700 |ddv_scf|^2 =  7.533E-16

     End of self-consistent calculation

     Convergence has been achieved 


     Representation #  2 mode #   2

     Self-consistent Calculation

      iter #   1 total cpu time :   889.4 secs   av.it.:   5.7
      thresh= 1.000E-02 alpha_mix =  0.700 |ddv_scf|^2 =  3.621E-05

      iter #   2 total cpu time :   898.1 secs   av.it.:   8.0
      thresh= 6.017E-04 alpha_mix =  0.700 |ddv_scf|^2 =  4.399E-04

      iter #   3 total cpu time :   916.9 secs   av.it.:   5.9
      thresh= 2.097E-03 alpha_mix =  0.700 |ddv_scf|^2 =  1.418E-05

      iter #   4 total cpu time :   934.5 secs   av.it.:   7.2
      thresh= 3.766E-04 alpha_mix =  0.700 |ddv_scf|^2 =  6.804E-08

      iter #   5 total cpu time :   943.4 secs   av.it.:   8.6
      thresh= 2.608E-05 alpha_mix =  0.700 |ddv_scf|^2 =  7.808E-10

      iter #   6 total cpu time :   954.0 secs   av.it.:   8.9
      thresh= 2.794E-06 alpha_mix =  0.700 |ddv_scf|^2 =  6.437E-11

      iter #   7 total cpu time :   970.3 secs   av.it.:   8.8
      thresh= 8.023E-07 alpha_mix =  0.700 |ddv_scf|^2 =  5.334E-11

      iter #   8 total cpu time :   982.5 secs   av.it.:   7.7
      thresh= 7.303E-07 alpha_mix =  0.700 |ddv_scf|^2 =  1.402E-10

      iter #   9 total cpu time :   992.1 secs   av.it.:   7.0
      thresh= 1.184E-06 alpha_mix =  0.700 |ddv_scf|^2 =  4.709E-12

      iter #  10 total cpu time :  1002.0 secs   av.it.:   7.6
      thresh= 2.170E-07 alpha_mix =  0.700 |ddv_scf|^2 =  2.306E-12

      iter #  11 total cpu time :  1012.3 secs   av.it.:   7.6
      thresh= 1.519E-07 alpha_mix =  0.700 |ddv_scf|^2 =  2.527E-14

      iter #  12 total cpu time :  1025.3 secs   av.it.:   7.9
      thresh= 1.589E-08 alpha_mix =  0.700 |ddv_scf|^2 =  2.674E-15

      iter #  13 total cpu time :  1044.5 secs   av.it.:   8.7
      thresh= 5.171E-09 alpha_mix =  0.700 |ddv_scf|^2 =  7.300E-17

     End of self-consistent calculation

     Convergence has been achieved 


     Representation #  3 mode #   3

     Self-consistent Calculation

      iter #   1 total cpu time :  1053.5 secs   av.it.:   5.8
      thresh= 1.000E-02 alpha_mix =  0.700 |ddv_scf|^2 =  2.422E-04

      iter #   2 total cpu time :  1061.9 secs   av.it.:   7.6
      thresh= 1.556E-03 alpha_mix =  0.700 |ddv_scf|^2 =  4.888E-03

      iter #   3 total cpu time :  1074.9 secs   av.it.:   5.5
      thresh= 6.991E-03 alpha_mix =  0.700 |ddv_scf|^2 =  6.263E-07

      iter #   4 total cpu time :  1085.0 secs   av.it.:   8.0
      thresh= 7.914E-05 alpha_mix =  0.700 |ddv_scf|^2 =  2.878E-07

      iter #   5 total cpu time :  1100.2 secs   av.it.:   7.7
      thresh= 5.365E-05 alpha_mix =  0.700 |ddv_scf|^2 =  1.526E-09

      iter #   6 total cpu time :  1116.5 secs   av.it.:   8.7
      thresh= 3.907E-06 alpha_mix =  0.700 |ddv_scf|^2 =  7.432E-11

      iter #   7 total cpu time :  1136.3 secs   av.it.:   8.6
      thresh= 8.621E-07 alpha_mix =  0.700 |ddv_scf|^2 =  1.769E-12

      iter #   8 total cpu time :  1162.4 secs   av.it.:   9.2
      thresh= 1.330E-07 alpha_mix =  0.700 |ddv_scf|^2 =  2.498E-13

      iter #   9 total cpu time :  1176.8 secs   av.it.:   8.6
      thresh= 4.998E-08 alpha_mix =  0.700 |ddv_scf|^2 =  2.034E-12

      iter #  10 total cpu time :  1198.7 secs   av.it.:   6.6
      thresh= 1.426E-07 alpha_mix =  0.700 |ddv_scf|^2 =  3.089E-14

      iter #  11 total cpu time :  1212.9 secs   av.it.:   7.7
      thresh= 1.758E-08 alpha_mix =  0.700 |ddv_scf|^2 =  1.470E-14

      iter #  12 total cpu time :  1225.5 secs   av.it.:   7.8
      thresh= 1.212E-08 alpha_mix =  0.700 |ddv_scf|^2 =  1.638E-16

     End of self-consistent calculation

     Convergence has been achieved 


     Representation #  4 mode #   4

     Self-consistent Calculation

      iter #   1 total cpu time :  1241.3 secs   av.it.:   5.7
      thresh= 1.000E-02 alpha_mix =  0.700 |ddv_scf|^2 =  6.691E-05

      iter #   2 total cpu time :  1262.1 secs   av.it.:   7.8
      thresh= 8.180E-04 alpha_mix =  0.700 |ddv_scf|^2 =  1.117E-03

      iter #   3 total cpu time :  1276.4 secs   av.it.:   5.7
      thresh= 3.342E-03 alpha_mix =  0.700 |ddv_scf|^2 =  7.061E-06

      iter #   4 total cpu time :  1298.5 secs   av.it.:   7.5
      thresh= 2.657E-04 alpha_mix =  0.700 |ddv_scf|^2 =  1.074E-07

      iter #   5 total cpu time :  1308.4 secs   av.it.:   8.2
      thresh= 3.277E-05 alpha_mix =  0.700 |ddv_scf|^2 =  8.861E-10

      iter #   6 total cpu time :  1334.0 secs   av.it.:   8.9
      thresh= 2.977E-06 alpha_mix =  0.700 |ddv_scf|^2 =  7.470E-11

      iter #   7 total cpu time :  1343.1 secs   av.it.:   8.7
      thresh= 8.643E-07 alpha_mix =  0.700 |ddv_scf|^2 =  1.184E-11

      iter #   8 total cpu time :  1351.5 secs   av.it.:   8.6
      thresh= 3.441E-07 alpha_mix =  0.700 |ddv_scf|^2 =  1.364E-10

      iter #   9 total cpu time :  1359.1 secs   av.it.:   6.5
      thresh= 1.168E-06 alpha_mix =  0.700 |ddv_scf|^2 =  4.756E-13

      iter #  10 total cpu time :  1373.0 secs   av.it.:   8.4
      thresh= 6.896E-08 alpha_mix =  0.700 |ddv_scf|^2 =  8.214E-13

      iter #  11 total cpu time :  1389.3 secs   av.it.:   7.3
      thresh= 9.063E-08 alpha_mix =  0.700 |ddv_scf|^2 =  9.774E-14

      iter #  12 total cpu time :  1399.2 secs   av.it.:   7.7
      thresh= 3.126E-08 alpha_mix =  0.700 |ddv_scf|^2 =  1.079E-14

      iter #  13 total cpu time :  1409.7 secs   av.it.:   8.3
      thresh= 1.039E-08 alpha_mix =  0.700 |ddv_scf|^2 =  1.243E-16

     End of self-consistent calculation

     Convergence has been achieved 


     Representation #  5 mode #   5

     Self-consistent Calculation

      iter #   1 total cpu time :  1424.5 secs   av.it.:   5.3
      thresh= 1.000E-02 alpha_mix =  0.700 |ddv_scf|^2 =  3.135E-06

      iter #   2 total cpu time :  1438.8 secs   av.it.:   8.4
      thresh= 1.771E-04 alpha_mix =  0.700 |ddv_scf|^2 =  5.022E-08

      iter #   3 total cpu time :  1454.2 secs   av.it.:   8.7
      thresh= 2.241E-05 alpha_mix =  0.700 |ddv_scf|^2 =  2.328E-09

      iter #   4 total cpu time :  1471.8 secs   av.it.:   8.1
      thresh= 4.825E-06 alpha_mix =  0.700 |ddv_scf|^2 =  1.068E-11

      iter #   5 total cpu time :  1482.0 secs   av.it.:   8.4
      thresh= 3.268E-07 alpha_mix =  0.700 |ddv_scf|^2 =  7.592E-14

      iter #   6 total cpu time :  1492.6 secs   av.it.:   8.7
      thresh= 2.755E-08 alpha_mix =  0.700 |ddv_scf|^2 =  3.463E-16

     End of self-consistent calculation

     Convergence has been achieved 


     Representation #  6 mode #   6

     Self-consistent Calculation

      iter #   1 total cpu time :  1509.5 secs   av.it.:   5.3
      thresh= 1.000E-02 alpha_mix =  0.700 |ddv_scf|^2 =  3.135E-06

      iter #   2 total cpu time :  1529.2 secs   av.it.:   8.4
      thresh= 1.771E-04 alpha_mix =  0.700 |ddv_scf|^2 =  5.022E-08

      iter #   3 total cpu time :  1550.2 secs   av.it.:   8.7
      thresh= 2.241E-05 alpha_mix =  0.700 |ddv_scf|^2 =  2.328E-09

      iter #   4 total cpu time :  1561.8 secs   av.it.:   8.1
      thresh= 4.825E-06 alpha_mix =  0.700 |ddv_scf|^2 =  1.068E-11

      iter #   5 total cpu time :  1570.7 secs   av.it.:   8.4
      thresh= 3.268E-07 alpha_mix =  0.700 |ddv_scf|^2 =  7.592E-14

      iter #   6 total cpu time :  1580.1 secs   av.it.:   8.7
      thresh= 2.755E-08 alpha_mix =  0.700 |ddv_scf|^2 =  3.463E-16

     End of self-consistent calculation

     Convergence has been achieved 
 
     Number of q in the star =   12
     List of q in the star:
          1   0.000000000   0.288675135   0.153330962
          2   0.000000000   0.288675135  -0.153330962
          3  -0.250000000   0.144337567   0.153330962
          4   0.250000000  -0.144337567   0.153330962
          5  -0.250000000  -0.144337567   0.153330962
          6   0.250000000   0.144337567   0.153330962
          7   0.000000000  -0.288675135   0.153330962
          8   0.000000000  -0.288675135  -0.153330962
          9   0.250000000   0.144337567  -0.153330962
         10   0.250000000  -0.144337567  -0.153330962
         11  -0.250000000  -0.144337567  -0.153330962
         12  -0.250000000   0.144337567  -0.153330962

     Diagonalizing the dynamical matrix

     q = (    0.000000000   0.288675135   0.153330962 ) 

 **************************************************************************
     freq (    1) =       1.388618 [THz] =      46.319299 [cm-1]
     freq (    2) =       1.608583 [THz] =      53.656552 [cm-1]
     freq (    3) =       2.232519 [THz] =      74.468819 [cm-1]
     freq (    4) =       2.728675 [THz] =      91.018811 [cm-1]
     freq (    5) =       2.846897 [THz] =      94.962260 [cm-1]
     freq (    6) =       3.530614 [THz] =     117.768593 [cm-1]
 **************************************************************************

     Mode symmetry, C_s (m)     point group:

     freq (  1 -  1) =         46.3  [cm-1]   --> A''                
     freq (  2 -  2) =         53.7  [cm-1]   --> A'                 
     freq (  3 -  3) =         74.5  [cm-1]   --> A''                
     freq (  4 -  4) =         91.0  [cm-1]   --> A'                 
     freq (  5 -  5) =         95.0  [cm-1]   --> A'                 
     freq (  6 -  6) =        117.8  [cm-1]   --> A'                 

     Calculation of q =    0.0000000   0.2886751  -0.3066619
 
     Parallelization info
     --------------------
     sticks:   dense  smooth     PW     G-vecs:    dense   smooth      PW
     Min         137      69     21                 6025     2128     381
     Max         138      70     26                 6028     2148     383
     Sum        1099     559    187                48215    17093    3057
 


     bravais-lattice index     =            4
     lattice parameter (alat)  =       7.0700  a.u.
     unit-cell volume          =     498.9982 (a.u.)^3
     number of atoms/cell      =            2
     number of atomic types    =            1
     number of electrons       =        18.00
     number of Kohn-Sham states=           13
     kinetic-energy cutoff     =      40.0000  Ry
     charge density cutoff     =     320.0000  Ry
     Exchange-correlation      = SLA  PW   PBE  PBE ( 1  4  3  4 0 0)

     celldm(1)=   7.070000  celldm(2)=   0.000000  celldm(3)=   1.630460
     celldm(4)=   0.000000  celldm(5)=   0.000000  celldm(6)=   0.000000

     crystal axes: (cart. coord. in units of alat)
               a(1) = (   1.000000   0.000000   0.000000 )  
               a(2) = (  -0.500000   0.866025   0.000000 )  
               a(3) = (   0.000000   0.000000   1.630460 )  

     reciprocal axes: (cart. coord. in units 2 pi/alat)
               b(1) = (  1.000000  0.577350  0.000000 )  
               b(2) = (  0.000000  1.154701  0.000000 )  
               b(3) = (  0.000000  0.000000  0.613324 )  


     PseudoPot. # 1 for Na read from file:
     ./Na_pbe_v1.uspp.F.UPF
     MD5 check sum: 76a99c7e9422403d3e93cbc85ab7bccb
     Pseudo is Ultrasoft, Zval =  9.0
     Generated by new atomic code, or converted to UPF format
     Using radial grid of  819 points,  5 beta functions with: 
                l(1) =   0
                l(2) =   0
                l(3) =   1
                l(4) =   1
                l(5) =   2
     Q(r) pseudized with  8 coefficients,  rinner =    1.250   1.250   1.250
                                                       1.250   1.250

     atomic species   valence    mass     pseudopotential
        Na             9.00    22.99000     Na( 1.00)

     24 Sym. Ops., with inversion, found



   Cartesian axes

     site n.     atom                  positions (alat units)
         1           Na  tau(   1) = (   0.0000000   0.0000000   0.0000000  )
         2           Na  tau(   2) = (   0.5000000   0.2886751   0.8152300  )

     number of k points=  3600  Marzari-Vanderbilt smearing, width (Ry)=  0.0200

     Number of k-points >= 100: set verbosity='high' to print them.

     Dense  grid:    48215 G-vectors     FFT dimensions: (  45,  45,  72)

     Smooth grid:    17093 G-vectors     FFT dimensions: (  30,  30,  48)

     Largest allocated arrays     est. size (Mb)     dimensions
        Kohn-Sham Wavefunctions         0.06 Mb     (     285,   13)
        NL pseudopotentials             0.11 Mb     (     285,   26)
        Each V/rho on FFT grid          0.28 Mb     (   18225)
        Each G-vector array             0.05 Mb     (    6027)
        G-vector shells                 0.01 Mb     (    1783)
     Largest temporary arrays     est. size (Mb)     dimensions
        Auxiliary wavefunctions         0.23 Mb     (     285,   52)
        Each subspace H/S matrix        0.01 Mb     (      26,   26)
        Each <psi_i|beta_j> matrix      0.01 Mb     (      26,   13)

     The potential is recalculated from file :
     ./na_hcp_7.07/_ph0/na_hcp_7.07.save/charge-density.dat

     Starting wfc are   10 atomic +    3 random wfc

     Band Structure Calculation
     Davidson diagonalization with overlap

     ethr =  5.56E-11,  avg # of iterations = 22.9

     total cpu time spent up to now is      100.9 secs

     End of band structure calculation

     Number of k-points >= 100: set verbosity='high' to print the bands.

     the Fermi energy is     1.6151 ev

     Writing output data file na_hcp_7.07.save

                                                                                

     bravais-lattice index     =            4
     lattice parameter (alat)  =       7.0700  a.u.
     unit-cell volume          =     498.9982 (a.u.)^3
     number of atoms/cell      =            2
     number of atomic types    =            1
     kinetic-energy cut-off    =      40.0000  Ry
     charge density cut-off    =     320.0000  Ry
     convergence threshold     =      1.0E-15
     beta                      =       0.7000
     number of iterations used =            4
     Exchange-correlation      = SLA  PW   PBE  PBE ( 1  4  3  4 0 0)


     celldm(1)=    7.07000  celldm(2)=    0.00000  celldm(3)=    1.63046
     celldm(4)=    0.00000  celldm(5)=    0.00000  celldm(6)=    0.00000

     crystal axes: (cart. coord. in units of alat)
               a(1) = (  1.0000  0.0000  0.0000 )  
               a(2) = ( -0.5000  0.8660  0.0000 )  
               a(3) = (  0.0000  0.0000  1.6305 )  

     reciprocal axes: (cart. coord. in units 2 pi/alat)
               b(1) = (  1.0000  0.5774  0.0000 )  
               b(2) = (  0.0000  1.1547  0.0000 )  
               b(3) = (  0.0000  0.0000  0.6133 )  


     Atoms inside the unit cell: 

     Cartesian axes

     site n.  atom      mass           positions (alat units)
        1     Na  22.9900   tau(    1) = (    0.00000    0.00000    0.00000  )
        2     Na  22.9900   tau(    2) = (    0.50000    0.28868    0.81523  )

     Computing dynamical matrix for 
                    q = (   0.0000000   0.2886751  -0.3066619 )
 
      4 Sym.Ops. (no q -> -q+G )


     G cutoff =  405.1623  (   6027 G-vectors)     FFT grid: ( 45, 45, 72)
     G cutoff =  202.5812  (   2129 G-vectors)  smooth grid: ( 30, 30, 48)

     number of k points=  3600  Marzari-Vanderbilt smearing, width (Ry)=  0.0200

     PseudoPot. # 1 for Na read from file:
     ./Na_pbe_v1.uspp.F.UPF
     MD5 check sum: 76a99c7e9422403d3e93cbc85ab7bccb
     Pseudo is Ultrasoft, Zval =  9.0
     Generated by new atomic code, or converted to UPF format
     Using radial grid of  819 points,  5 beta functions with: 
                l(1) =   0
                l(2) =   0
                l(3) =   1
                l(4) =   1
                l(5) =   2
     Q(r) pseudized with  8 coefficients,  rinner =    1.250   1.250   1.250
                                                       1.250   1.250

     Mode symmetry, C_2v (mm2)  point group:


     Atomic displacements:
     There are   6 irreducible representations

     Representation     1      1 modes -A_1  D_1  S_1  To be done

     Representation     2      1 modes -A_1  D_1  S_1  To be done

     Representation     3      1 modes -A_2  D_2  S_2  To be done

     Representation     4      1 modes -B_1  D_3  S_3  To be done

     Representation     5      1 modes -B_2  D_4  S_4  To be done

     Representation     6      1 modes -B_2  D_4  S_4  To be done



     Alpha used in Ewald sum =   2.8000
     PHONON       : 24m58.48s CPU    26m51.72s WALL



     Representation #  1 mode #   1

     Self-consistent Calculation

      iter #   1 total cpu time :  1614.7 secs   av.it.:   5.6
      thresh= 1.000E-02 alpha_mix =  0.700 |ddv_scf|^2 =  5.790E-05

      iter #   2 total cpu time :  1619.4 secs   av.it.:   7.9
      thresh= 7.609E-04 alpha_mix =  0.700 |ddv_scf|^2 =  3.199E-04

      iter #   3 total cpu time :  1628.3 secs   av.it.:   6.7
      thresh= 1.788E-03 alpha_mix =  0.700 |ddv_scf|^2 =  3.920E-08

      iter #   4 total cpu time :  1637.0 secs   av.it.:   8.8
      thresh= 1.980E-05 alpha_mix =  0.700 |ddv_scf|^2 =  1.981E-09

      iter #   5 total cpu time :  1647.7 secs   av.it.:   8.9
      thresh= 4.451E-06 alpha_mix =  0.700 |ddv_scf|^2 =  7.446E-11

      iter #   6 total cpu time :  1672.6 secs   av.it.:   9.1
      thresh= 8.629E-07 alpha_mix =  0.700 |ddv_scf|^2 =  3.487E-12

      iter #   7 total cpu time :  1690.3 secs   av.it.:   8.8
      thresh= 1.867E-07 alpha_mix =  0.700 |ddv_scf|^2 =  2.239E-12

      iter #   8 total cpu time :  1694.6 secs   av.it.:   7.7
      thresh= 1.496E-07 alpha_mix =  0.700 |ddv_scf|^2 =  2.058E-12

      iter #   9 total cpu time :  1698.6 secs   av.it.:   7.6
      thresh= 1.435E-07 alpha_mix =  0.700 |ddv_scf|^2 =  4.071E-13

      iter #  10 total cpu time :  1702.9 secs   av.it.:   7.5
      thresh= 6.381E-08 alpha_mix =  0.700 |ddv_scf|^2 =  4.447E-16

     End of self-consistent calculation

     Convergence has been achieved 


     Representation #  2 mode #   2

     Self-consistent Calculation

      iter #   1 total cpu time :  1708.6 secs   av.it.:   5.7
      thresh= 1.000E-02 alpha_mix =  0.700 |ddv_scf|^2 =  6.495E-05

      iter #   2 total cpu time :  1712.5 secs   av.it.:   7.9
      thresh= 8.059E-04 alpha_mix =  0.700 |ddv_scf|^2 =  3.632E-04

      iter #   3 total cpu time :  1716.8 secs   av.it.:   6.7
      thresh= 1.906E-03 alpha_mix =  0.700 |ddv_scf|^2 =  5.124E-08

      iter #   4 total cpu time :  1721.9 secs   av.it.:   8.8
      thresh= 2.264E-05 alpha_mix =  0.700 |ddv_scf|^2 =  1.819E-09

      iter #   5 total cpu time :  1726.8 secs   av.it.:   8.9
      thresh= 4.265E-06 alpha_mix =  0.700 |ddv_scf|^2 =  9.669E-11

      iter #   6 total cpu time :  1730.5 secs   av.it.:   9.1
      thresh= 9.833E-07 alpha_mix =  0.700 |ddv_scf|^2 =  3.360E-12

      iter #   7 total cpu time :  1734.6 secs   av.it.:   8.8
      thresh= 1.833E-07 alpha_mix =  0.700 |ddv_scf|^2 =  2.432E-12

      iter #   8 total cpu time :  1738.9 secs   av.it.:   7.7
      thresh= 1.559E-07 alpha_mix =  0.700 |ddv_scf|^2 =  1.270E-12

      iter #   9 total cpu time :  1749.4 secs   av.it.:   7.6
      thresh= 1.127E-07 alpha_mix =  0.700 |ddv_scf|^2 =  2.429E-13

      iter #  10 total cpu time :  1757.9 secs   av.it.:   7.5
      thresh= 4.929E-08 alpha_mix =  0.700 |ddv_scf|^2 =  7.529E-16

     End of self-consistent calculation

     Convergence has been achieved 


     Representation #  3 mode #   3

     Self-consistent Calculation

      iter #   1 total cpu time :  1763.0 secs   av.it.:   5.3
      thresh= 1.000E-02 alpha_mix =  0.700 |ddv_scf|^2 =  3.130E-06

      iter #   2 total cpu time :  1766.6 secs   av.it.:   8.4
      thresh= 1.769E-04 alpha_mix =  0.700 |ddv_scf|^2 =  4.996E-08

[...]
      iter #   4 total cpu time :  3592.3 secs   av.it.:   8.5
      thresh= 1.187E-05 alpha_mix =  0.700 |ddv_scf|^2 =  1.172E-09

      iter #   5 total cpu time :  3606.8 secs   av.it.:   8.6
      thresh= 3.423E-06 alpha_mix =  0.700 |ddv_scf|^2 =  1.441E-11

      iter #   6 total cpu time :  3615.6 secs   av.it.:   8.5
      thresh= 3.796E-07 alpha_mix =  0.700 |ddv_scf|^2 =  8.037E-13

      iter #   7 total cpu time :  3627.0 secs   av.it.:   8.8
      thresh= 8.965E-08 alpha_mix =  0.700 |ddv_scf|^2 =  1.930E-14

      iter #   8 total cpu time :  3635.4 secs   av.it.:   8.9
      thresh= 1.389E-08 alpha_mix =  0.700 |ddv_scf|^2 =  4.104E-16

     End of self-consistent calculation

     Convergence has been achieved 
 
     Number of q in the star =   12
     List of q in the star:
          1   0.250000000   0.433012702   0.153330962
          2   0.250000000   0.433012702  -0.153330962
          3  -0.250000000   0.433012702   0.153330962
          4   0.250000000  -0.433012702  -0.153330962
          5  -0.250000000   0.433012702  -0.153330962
          6  -0.250000000  -0.433012702  -0.153330962
          7   0.500000000   0.000000000   0.153330962
          8   0.250000000  -0.433012702   0.153330962
          9  -0.500000000   0.000000000   0.153330962
         10  -0.250000000  -0.433012702   0.153330962
         11  -0.500000000   0.000000000  -0.153330962
         12   0.500000000   0.000000000  -0.153330962

     Diagonalizing the dynamical matrix

     q = (    0.250000000   0.433012702   0.153330962 ) 

 **************************************************************************
     freq (    1) =       1.927564 [THz] =      64.296626 [cm-1]
     freq (    2) =       2.402010 [THz] =      80.122424 [cm-1]
     freq (    3) =       2.970494 [THz] =      99.085000 [cm-1]
     freq (    4) =       2.992295 [THz] =      99.812216 [cm-1]
     freq (    5) =       3.510864 [THz] =     117.109801 [cm-1]
     freq (    6) =       3.666013 [THz] =     122.285027 [cm-1]
 **************************************************************************

     Mode symmetry, C_s (m)     point group:

     freq (  1 -  1) =         64.3  [cm-1]   --> A'                 
     freq (  2 -  2) =         80.1  [cm-1]   --> A''                
     freq (  3 -  3) =         99.1  [cm-1]   --> A''                
     freq (  4 -  4) =         99.8  [cm-1]   --> A'                 
     freq (  5 -  5) =        117.1  [cm-1]   --> A'                 
     freq (  6 -  6) =        122.3  [cm-1]   --> A''                

     Calculation of q =    0.2500000   0.4330127  -0.3066619
 
     Parallelization info
     --------------------
     sticks:   dense  smooth     PW     G-vecs:    dense   smooth      PW
     Min         137      69     23                 6025     2129     423
     Max         138      70     24                 6028     2140     428
     Sum        1099     559    187                48215    17093    3405
 


     bravais-lattice index     =            4
     lattice parameter (alat)  =       7.0700  a.u.
     unit-cell volume          =     498.9982 (a.u.)^3
     number of atoms/cell      =            2
     number of atomic types    =            1
     number of electrons       =        18.00
     number of Kohn-Sham states=           13
     kinetic-energy cutoff     =      40.0000  Ry
     charge density cutoff     =     320.0000  Ry
     Exchange-correlation      = SLA  PW   PBE  PBE ( 1  4  3  4 0 0)

     celldm(1)=   7.070000  celldm(2)=   0.000000  celldm(3)=   1.630460
     celldm(4)=   0.000000  celldm(5)=   0.000000  celldm(6)=   0.000000

     crystal axes: (cart. coord. in units of alat)
               a(1) = (   1.000000   0.000000   0.000000 )  
               a(2) = (  -0.500000   0.866025   0.000000 )  
               a(3) = (   0.000000   0.000000   1.630460 )  

     reciprocal axes: (cart. coord. in units 2 pi/alat)
               b(1) = (  1.000000  0.577350  0.000000 )  
               b(2) = (  0.000000  1.154701  0.000000 )  
               b(3) = (  0.000000  0.000000  0.613324 )  


     PseudoPot. # 1 for Na read from file:
     ./Na_pbe_v1.uspp.F.UPF
     MD5 check sum: 76a99c7e9422403d3e93cbc85ab7bccb
     Pseudo is Ultrasoft, Zval =  9.0
     Generated by new atomic code, or converted to UPF format
     Using radial grid of  819 points,  5 beta functions with: 
                l(1) =   0
                l(2) =   0
                l(3) =   1
                l(4) =   1
                l(5) =   2
     Q(r) pseudized with  8 coefficients,  rinner =    1.250   1.250   1.250
                                                       1.250   1.250

     atomic species   valence    mass     pseudopotential
        Na             9.00    22.99000     Na( 1.00)

     24 Sym. Ops., with inversion, found



   Cartesian axes

     site n.     atom                  positions (alat units)
         1           Na  tau(   1) = (   0.0000000   0.0000000   0.0000000  )
         2           Na  tau(   2) = (   0.5000000   0.2886751   0.8152300  )

     number of k points=  3600  Marzari-Vanderbilt smearing, width (Ry)=  0.0200

     Number of k-points >= 100: set verbosity='high' to print them.

     Dense  grid:    48215 G-vectors     FFT dimensions: (  45,  45,  72)

     Smooth grid:    17093 G-vectors     FFT dimensions: (  30,  30,  48)

     Largest allocated arrays     est. size (Mb)     dimensions
        Kohn-Sham Wavefunctions         0.05 Mb     (     277,   13)
        NL pseudopotentials             0.11 Mb     (     277,   26)
        Each V/rho on FFT grid          0.28 Mb     (   18225)
        Each G-vector array             0.05 Mb     (    6027)
        G-vector shells                 0.01 Mb     (    1832)
     Largest temporary arrays     est. size (Mb)     dimensions
        Auxiliary wavefunctions         0.22 Mb     (     277,   52)
        Each subspace H/S matrix        0.01 Mb     (      26,   26)
        Each <psi_i|beta_j> matrix      0.01 Mb     (      26,   13)

     The potential is recalculated from file :
     ./na_hcp_7.07/_ph0/na_hcp_7.07.save/charge-density.dat

     Starting wfc are   10 atomic +    3 random wfc

     Band Structure Calculation
     Davidson diagonalization with overlap

     ethr =  5.56E-11,  avg # of iterations = 22.7

     total cpu time spent up to now is      243.6 secs

     End of band structure calculation

     Number of k-points >= 100: set verbosity='high' to print the bands.

     the Fermi energy is     1.6151 ev

     Writing output data file na_hcp_7.07.save

                                                                                

     bravais-lattice index     =            4
     lattice parameter (alat)  =       7.0700  a.u.
     unit-cell volume          =     498.9982 (a.u.)^3
     number of atoms/cell      =            2
     number of atomic types    =            1
     kinetic-energy cut-off    =      40.0000  Ry
     charge density cut-off    =     320.0000  Ry
     convergence threshold     =      1.0E-15
     beta                      =       0.7000
     number of iterations used =            4
     Exchange-correlation      = SLA  PW   PBE  PBE ( 1  4  3  4 0 0)


     celldm(1)=    7.07000  celldm(2)=    0.00000  celldm(3)=    1.63046
     celldm(4)=    0.00000  celldm(5)=    0.00000  celldm(6)=    0.00000

     crystal axes: (cart. coord. in units of alat)
               a(1) = (  1.0000  0.0000  0.0000 )  
               a(2) = ( -0.5000  0.8660  0.0000 )  
               a(3) = (  0.0000  0.0000  1.6305 )  

     reciprocal axes: (cart. coord. in units 2 pi/alat)
               b(1) = (  1.0000  0.5774  0.0000 )  
               b(2) = (  0.0000  1.1547  0.0000 )  
               b(3) = (  0.0000  0.0000  0.6133 )  


     Atoms inside the unit cell: 

     Cartesian axes

     site n.  atom      mass           positions (alat units)
        1     Na  22.9900   tau(    1) = (    0.00000    0.00000    0.00000  )
        2     Na  22.9900   tau(    2) = (    0.50000    0.28868    0.81523  )

     Computing dynamical matrix for 
                    q = (   0.2500000   0.4330127  -0.3066619 )
 
      4 Sym.Ops. (no q -> -q+G )


     G cutoff =  405.1623  (   6027 G-vectors)     FFT grid: ( 45, 45, 72)
     G cutoff =  202.5812  (   2140 G-vectors)  smooth grid: ( 30, 30, 48)

     number of k points=  3600  Marzari-Vanderbilt smearing, width (Ry)=  0.0200

     PseudoPot. # 1 for Na read from file:
     ./Na_pbe_v1.uspp.F.UPF
     MD5 check sum: 76a99c7e9422403d3e93cbc85ab7bccb
     Pseudo is Ultrasoft, Zval =  9.0
     Generated by new atomic code, or converted to UPF format
     Using radial grid of  819 points,  5 beta functions with: 
                l(1) =   0
                l(2) =   0
                l(3) =   1
                l(4) =   1
                l(5) =   2
     Q(r) pseudized with  8 coefficients,  rinner =    1.250   1.250   1.250
                                                       1.250   1.250


     Atomic displacements:
     There are   3 irreducible representations

     Representation     1      2 modes -  To be done

     Representation     2      2 modes -  To be done

     Representation     3      2 modes -  To be done



     Alpha used in Ewald sum =   2.8000
     PHONON       :     0h56m CPU        1h 0m WALL



     Representation #  1 modes #   1  2

     Self-consistent Calculation

      iter #   1 total cpu time :  3687.6 secs   av.it.:   5.7
      thresh= 1.000E-02 alpha_mix =  0.700 |ddv_scf|^2 =  2.944E-06

      iter #   2 total cpu time :  3697.8 secs   av.it.:   9.0
      thresh= 1.716E-04 alpha_mix =  0.700 |ddv_scf|^2 =  1.653E-06

      iter #   3 total cpu time :  3708.4 secs   av.it.:   8.1
      thresh= 1.286E-04 alpha_mix =  0.700 |ddv_scf|^2 =  1.097E-08

      iter #   4 total cpu time :  3727.0 secs   av.it.:   9.3
      thresh= 1.047E-05 alpha_mix =  0.700 |ddv_scf|^2 =  3.012E-10

      iter #   5 total cpu time :  3742.8 secs   av.it.:   9.6
      thresh= 1.736E-06 alpha_mix =  0.700 |ddv_scf|^2 =  1.649E-11

      iter #   6 total cpu time :  3771.0 secs   av.it.:   9.8
      thresh= 4.061E-07 alpha_mix =  0.700 |ddv_scf|^2 =  1.115E-12

      iter #   7 total cpu time :  3787.4 secs   av.it.:   9.8
      thresh= 1.056E-07 alpha_mix =  0.700 |ddv_scf|^2 =  1.215E-14

      iter #   8 total cpu time :  3799.0 secs   av.it.:   9.5
      thresh= 1.102E-08 alpha_mix =  0.700 |ddv_scf|^2 =  3.106E-16

     End of self-consistent calculation

     Convergence has been achieved 


     Representation #  2 modes #   3  4

     Self-consistent Calculation

      iter #   1 total cpu time :  3833.6 secs   av.it.:   5.7
      thresh= 1.000E-02 alpha_mix =  0.700 |ddv_scf|^2 =  2.278E-06

      iter #   2 total cpu time :  3845.6 secs   av.it.:   8.9
      thresh= 1.509E-04 alpha_mix =  0.700 |ddv_scf|^2 =  1.145E-06

      iter #   3 total cpu time :  3856.4 secs   av.it.:   8.2
      thresh= 1.070E-04 alpha_mix =  0.700 |ddv_scf|^2 =  1.323E-08

      iter #   4 total cpu time :  3866.8 secs   av.it.:   9.2
      thresh= 1.150E-05 alpha_mix =  0.700 |ddv_scf|^2 =  2.879E-10

      iter #   5 total cpu time :  3877.6 secs   av.it.:   9.4
      thresh= 1.697E-06 alpha_mix =  0.700 |ddv_scf|^2 =  2.124E-11

      iter #   6 total cpu time :  3899.4 secs   av.it.:   9.5
      thresh= 4.608E-07 alpha_mix =  0.700 |ddv_scf|^2 =  7.852E-13

      iter #   7 total cpu time :  3914.7 secs   av.it.:  10.0
      thresh= 8.861E-08 alpha_mix =  0.700 |ddv_scf|^2 =  1.471E-14

      iter #   8 total cpu time :  3927.7 secs   av.it.:   9.8
      thresh= 1.213E-08 alpha_mix =  0.700 |ddv_scf|^2 =  8.875E-16

     End of self-consistent calculation

     Convergence has been achieved 


     Representation #  3 modes #   5  6

     Self-consistent Calculation

      iter #   1 total cpu time :  3942.6 secs   av.it.:   5.7
      thresh= 1.000E-02 alpha_mix =  0.700 |ddv_scf|^2 =  2.171E-06

      iter #   2 total cpu time :  3954.1 secs   av.it.:   9.0
      thresh= 1.473E-04 alpha_mix =  0.700 |ddv_scf|^2 =  8.728E-07

      iter #   3 total cpu time :  3964.1 secs   av.it.:   8.3
      thresh= 9.342E-05 alpha_mix =  0.700 |ddv_scf|^2 =  2.400E-08

      iter #   4 total cpu time :  3974.2 secs   av.it.:   8.9
      thresh= 1.549E-05 alpha_mix =  0.700 |ddv_scf|^2 =  3.973E-10

      iter #   5 total cpu time :  3984.1 secs   av.it.:   9.5
      thresh= 1.993E-06 alpha_mix =  0.700 |ddv_scf|^2 =  1.054E-11

      iter #   6 total cpu time :  3993.8 secs   av.it.:   9.7
      thresh= 3.247E-07 alpha_mix =  0.700 |ddv_scf|^2 =  8.213E-13

      iter #   7 total cpu time :  4004.1 secs   av.it.:   9.9
      thresh= 9.063E-08 alpha_mix =  0.700 |ddv_scf|^2 =  1.964E-14

      iter #   8 total cpu time :  4031.4 secs   av.it.:   9.9
      thresh= 1.401E-08 alpha_mix =  0.700 |ddv_scf|^2 =  2.123E-16

     End of self-consistent calculation

     Convergence has been achieved 
 
     Number of q in the star =    6
     List of q in the star:
          1   0.250000000   0.433012702  -0.306661924
          2  -0.250000000   0.433012702  -0.306661924
          3   0.250000000  -0.433012702   0.306661924
          4  -0.250000000  -0.433012702   0.306661924
          5   0.500000000   0.000000000  -0.306661924
          6  -0.500000000   0.000000000  -0.306661924

     Diagonalizing the dynamical matrix

     q = (    0.250000000   0.433012702  -0.306661924 ) 

 **************************************************************************
     freq (    1) =       2.021031 [THz] =      67.414328 [cm-1]
     freq (    2) =       2.021031 [THz] =      67.414328 [cm-1]
     freq (    3) =       3.007947 [THz] =     100.334311 [cm-1]
     freq (    4) =       3.007947 [THz] =     100.334311 [cm-1]
     freq (    5) =       3.722455 [THz] =     124.167747 [cm-1]
     freq (    6) =       3.722455 [THz] =     124.167747 [cm-1]
 **************************************************************************
 
     init_run     :      1.52s CPU      1.68s WALL (      11 calls)
     electrons    :    191.46s CPU    194.42s WALL (      11 calls)

     Called by init_run:
     wfcinit      :      0.00s CPU      0.10s WALL (      11 calls)
     potinit      :      0.25s CPU      0.30s WALL (      11 calls)

     Called by electrons:
     c_bands      :    191.42s CPU    194.37s WALL (      11 calls)
     v_of_rho     :      0.11s CPU      0.12s WALL (      12 calls)
     newd         :      0.14s CPU      0.14s WALL (      12 calls)

     Called by c_bands:
     init_us_2    :      3.22s CPU      3.45s WALL (   48101 calls)
     cegterg      :     74.09s CPU     75.55s WALL (    3013 calls)

     Called by sum_band:

     Called by *egterg:
     h_psi        :     43.75s CPU     44.33s WALL (   49108 calls)
     s_psi        :     44.29s CPU     46.45s WALL ( 1179292 calls)
     g_psi        :      0.40s CPU      0.45s WALL (   44483 calls)
     cdiaghg      :     20.84s CPU     21.52s WALL (   46095 calls)

     Called by h_psi:
     add_vuspsi   :     27.08s CPU     28.27s WALL (  593032 calls)

     General routines
     calbec       :     66.69s CPU     69.88s WALL ( 1257796 calls)
     fft          :      3.09s CPU      2.99s WALL (    8976 calls)
     ffts         :      1.05s CPU      1.08s WALL (    7229 calls)
     fftw         :   1679.14s CPU   1707.72s WALL ( 9193752 calls)
     interpolate  :      0.74s CPU      0.67s WALL (    1237 calls)
     davcio       :     10.17s CPU    180.61s WALL (  215617 calls)
 
     Parallel routines
     fft_scatter  :   1304.15s CPU   1316.78s WALL ( 9209957 calls)
 
     PHONON       :     1h 2m CPU        1h 7m WALL

     INITIALIZATION: 
     phq_setup    :      0.36s CPU     10.64s WALL (      12 calls)
     phq_init     :     25.61s CPU     26.30s WALL (      12 calls)
 
     phq_init     :     25.61s CPU     26.30s WALL (      12 calls)
     init_vloc    :      0.14s CPU      0.13s WALL (      12 calls)
     init_us_1    :      0.44s CPU      0.44s WALL (      12 calls)
     newd         :      0.14s CPU      0.14s WALL (      12 calls)
     dvanqq       :      1.44s CPU      1.44s WALL (      12 calls)
     drho         :     18.95s CPU     19.32s WALL (      12 calls)
 
     DYNAMICAL MATRIX:
     dynmat0      :      3.31s CPU      3.49s WALL (      12 calls)
     phqscf       :   3489.87s CPU   3732.96s WALL (      12 calls)
     dynmatrix    :      3.23s CPU      3.40s WALL (      12 calls)
 
     phqscf       :   3489.87s CPU   3732.96s WALL (      12 calls)
     solve_linter :   3487.23s CPU   3727.86s WALL (      58 calls)
     drhodv       :      2.50s CPU      2.83s WALL (      58 calls)
 
     dynmat0      :      3.31s CPU      3.49s WALL (      12 calls)
     dynmat_us    :      3.27s CPU      3.33s WALL (      12 calls)
     d2ionq       :      0.03s CPU      0.03s WALL (      12 calls)
 
     dynmat_us    :      3.27s CPU      3.33s WALL (      12 calls)
     addusdynmat  :      0.00s CPU      0.00s WALL (      12 calls)
 
     phqscf       :   3489.87s CPU   3732.96s WALL (      12 calls)
     solve_linter :   3487.23s CPU   3727.86s WALL (      58 calls)
 
     solve_linter :   3487.23s CPU   3727.86s WALL (      58 calls)
     dvqpsi_us    :     12.44s CPU     13.33s WALL (    4932 calls)
     ortho        :     80.43s CPU     81.33s WALL (   42336 calls)
     cgsolve      :    678.55s CPU    706.85s WALL (   42336 calls)
     incdrhoscf   :   1206.75s CPU   1215.83s WALL (   42336 calls)
     addusddens   :      7.74s CPU      7.82s WALL (     534 calls)
     vpsifft      :     45.69s CPU     49.00s WALL (   37404 calls)
     dv_of_drho   :      3.63s CPU      3.68s WALL (     569 calls)
     mix_pot      :      3.45s CPU     12.72s WALL (     476 calls)
     ef_shift     :      0.10s CPU      0.67s WALL (      29 calls)
     localdos     :      0.28s CPU      0.29s WALL (       4 calls)
     psymdvscf    :     29.01s CPU     29.14s WALL (     476 calls)
     newdq        :      7.38s CPU      7.41s WALL (     476 calls)
     adddvscf     :      3.54s CPU      3.65s WALL (   37404 calls)
     drhodvus     :      0.06s CPU      0.07s WALL (      58 calls)
 
     dvqpsi_us    :     12.44s CPU     13.33s WALL (    4932 calls)
     dvqpsi_us_on :      3.60s CPU      3.81s WALL (    4932 calls)
 
     cgsolve      :    678.55s CPU    706.85s WALL (   42336 calls)
     ch_psi       :    654.31s CPU    681.85s WALL (  543924 calls)
 
     ch_psi       :    654.31s CPU    681.85s WALL (  543924 calls)
     h_psiq       :    569.38s CPU    593.74s WALL (  543924 calls)
     last         :     81.42s CPU     84.47s WALL (  543924 calls)
 
     h_psiq       :    569.38s CPU    593.74s WALL (  543924 calls)
     firstfft     :    270.66s CPU    280.29s WALL ( 3459620 calls)
     secondfft    :    196.63s CPU    205.78s WALL ( 3459620 calls)
     add_vuspsi   :     27.08s CPU     28.27s WALL (  593032 calls)
 
     incdrhoscf   :   1206.75s CPU   1215.83s WALL (   42336 calls)
     addusdbec    :      4.20s CPU      4.44s WALL (   47268 calls)
 
     drhodvus     :      0.06s CPU      0.07s WALL (      58 calls)
 
      General routines
     calbec       :     66.69s CPU     69.88s WALL ( 1257796 calls)
     fft          :      3.09s CPU      2.99s WALL (    8976 calls)
     ffts         :      1.05s CPU      1.08s WALL (    7229 calls)
     fftw         :   1679.14s CPU   1707.72s WALL ( 9193752 calls)
     davcio       :     10.17s CPU    180.61s WALL (  215617 calls)
     write_rec    :      1.02s CPU     17.50s WALL (     534 calls)
 
 
     PHONON       :     1h 2m CPU        1h 7m WALL

 
   This run was terminated on:  20: 0:11  28Mar2018            

=------------------------------------------------------------------------------=
   JOB DONE.
=------------------------------------------------------------------------------=
Application 30383411 resources: utime ~725382s, stime ~8190s, Rss ~59156, inblocks ~3954863545, outblocks ~1370133530
