
     Program Q2R v.6.1 (svn rev. 13369) starts on 27Mar2018 at 10:18: 1 

     This program is part of the open-source Quantum ESPRESSO suite
     for quantum simulation of materials; please cite
         "P. Giannozzi et al., J. Phys.:Condens. Matter 21 395502 (2009);
          URL http://www.quantum-espresso.org", 
     in publications or presentations arising from this work. More details at
     http://www.quantum-espresso.org/quote

     Parallel version (MPI), running on     4 processors
     R & G space division:  proc/nbgrp/npool/nimage =       4

     reading grid info from file na_hcp_6.976382950545051.dyn0    
  reading force constants from file na_hcp_6.976382950545051.dyn1
  Dielectric Tensor not found
  nqs=            1
 q=   0.00000000  0.00000000  0.00000000
  reading force constants from file na_hcp_6.976382950545051.dyn2
  nqs=            2
 q=   0.00000000  0.00000000  0.15320310
 q=   0.00000000  0.00000000 -0.15320310
  reading force constants from file na_hcp_6.976382950545051.dyn3
  nqs=            1
 q=   0.00000000  0.00000000 -0.30640619
  reading force constants from file na_hcp_6.976382950545051.dyn4
  nqs=            6
 q=   0.00000000  0.28867514  0.00000000
 q=   0.00000000 -0.28867514  0.00000000
 q=   0.25000000 -0.14433757  0.00000000
 q=  -0.25000000  0.14433757  0.00000000
 q=  -0.25000000 -0.14433757  0.00000000
 q=   0.25000000  0.14433757  0.00000000
  reading force constants from file na_hcp_6.976382950545051.dyn5
  nqs=           12
 q=   0.00000000  0.28867514  0.15320310
 q=   0.00000000 -0.28867514 -0.15320310
 q=   0.00000000  0.28867514 -0.15320310
 q=   0.00000000 -0.28867514  0.15320310
 q=   0.25000000 -0.14433757  0.15320310
 q=  -0.25000000  0.14433757 -0.15320310
 q=  -0.25000000 -0.14433757  0.15320310
 q=   0.25000000  0.14433757 -0.15320310
 q=   0.25000000 -0.14433757 -0.15320310
 q=  -0.25000000  0.14433757  0.15320310
 q=  -0.25000000 -0.14433757 -0.15320310
 q=   0.25000000  0.14433757  0.15320310
  reading force constants from file na_hcp_6.976382950545051.dyn6
  nqs=            6
 q=   0.00000000  0.28867514 -0.30640619
 q=   0.00000000 -0.28867514  0.30640619
 q=   0.25000000 -0.14433757 -0.30640619
 q=  -0.25000000  0.14433757  0.30640619
 q=  -0.25000000 -0.14433757 -0.30640619
 q=   0.25000000  0.14433757  0.30640619
  reading force constants from file na_hcp_6.976382950545051.dyn7
  nqs=            3
 q=   0.00000000 -0.57735027  0.00000000
 q=  -0.50000000  0.28867514  0.00000000
 q=   0.50000000  0.28867514  0.00000000
  reading force constants from file na_hcp_6.976382950545051.dyn8
  nqs=            6
 q=   0.00000000 -0.57735027  0.15320310
 q=   0.00000000 -0.57735027 -0.15320310
 q=  -0.50000000  0.28867514  0.15320310
 q=   0.50000000  0.28867514  0.15320310
 q=  -0.50000000  0.28867514 -0.15320310
 q=   0.50000000  0.28867514 -0.15320310
  reading force constants from file na_hcp_6.976382950545051.dyn9
  nqs=            3
 q=   0.00000000 -0.57735027 -0.30640619
 q=  -0.50000000  0.28867514 -0.30640619
 q=   0.50000000  0.28867514 -0.30640619
  reading force constants from file na_hcp_6.976382950545051.dyn10
  nqs=            6
 q=   0.25000000  0.43301270  0.00000000
 q=  -0.25000000  0.43301270  0.00000000
 q=   0.25000000 -0.43301270  0.00000000
 q=  -0.50000000  0.00000000  0.00000000
 q=   0.50000000  0.00000000  0.00000000
 q=  -0.25000000 -0.43301270  0.00000000
  reading force constants from file na_hcp_6.976382950545051.dyn11
  nqs=           12
 q=   0.25000000  0.43301270  0.15320310
 q=   0.25000000  0.43301270 -0.15320310
 q=  -0.25000000  0.43301270  0.15320310
 q=  -0.25000000  0.43301270 -0.15320310
 q=   0.25000000 -0.43301270  0.15320310
 q=  -0.50000000  0.00000000  0.15320310
 q=   0.50000000  0.00000000  0.15320310
 q=  -0.25000000 -0.43301270  0.15320310
 q=   0.25000000 -0.43301270 -0.15320310
 q=  -0.50000000  0.00000000 -0.15320310
 q=  -0.25000000 -0.43301270 -0.15320310
 q=   0.50000000  0.00000000 -0.15320310
  reading force constants from file na_hcp_6.976382950545051.dyn12
  nqs=            6
 q=   0.25000000  0.43301270 -0.30640619
 q=  -0.25000000  0.43301270 -0.30640619
 q=   0.25000000 -0.43301270 -0.30640619
 q=  -0.50000000  0.00000000 -0.30640619
 q=   0.50000000  0.00000000 -0.30640619
 q=  -0.25000000 -0.43301270 -0.30640619

      q-space grid ok, #points =   64

      fft-check warning: sum of imaginary terms = 2.000000E-08

     Q2R          :     0.01s CPU         0.08s WALL


   This run was terminated on:  10:18: 1  27Mar2018            

=------------------------------------------------------------------------------=
   JOB DONE.
=------------------------------------------------------------------------------=
