
     Program PHONON v.5.4.0 starts on 29Mar2018 at 11: 0:31 

     This program is part of the open-source Quantum ESPRESSO suite
     for quantum simulation of materials; please cite
         "P. Giannozzi et al., J. Phys.:Condens. Matter 21 395502 (2009);
          URL http://www.quantum-espresso.org", 
     in publications or presentations arising from this work. More details at
     http://www.quantum-espresso.org/quote

     Parallel version (MPI & OpenMP), running on     192 processor cores
     Number of MPI processes:               192
     Threads/MPI process:                     1
     K-points division:     npool     =      24
     R & G space division:  proc/nbgrp/npool/nimage =       8

     Reading data from directory:
     ./na_hcp_7.16/na_hcp_7.16.save

   Info: using nr1, nr2, nr3 values from input

   Info: using nr1, nr2, nr3 values from input

     IMPORTANT: XC functional enforced from input :
     Exchange-correlation      = SLA  PW   PBE  PBE ( 1  4  3  4 0 0)
     Any further DFT definition will be discarded
     Please, verify this is what you really want

 
     Parallelization info
     --------------------
     sticks:   dense  smooth     PW     G-vecs:    dense   smooth      PW
     Min         141      69     20                 6273     2203     362
     Max         142      70     21                 6280     2216     369
     Sum        1135     559    163                50221    17693    2923
 


     Dynamical matrices for ( 4, 4, 4)  uniform grid of q-points
     (  12q-points):
       N         xq(1)         xq(2)         xq(3) 
       1   0.000000000   0.000000000   0.000000000
       2   0.000000000   0.000000000   0.153330962
       3   0.000000000   0.000000000  -0.306661924
       4   0.000000000   0.288675135   0.000000000
       5   0.000000000   0.288675135   0.153330962
       6   0.000000000   0.288675135  -0.306661924
       7   0.000000000  -0.577350269   0.000000000
       8   0.000000000  -0.577350269   0.153330962
       9   0.000000000  -0.577350269  -0.306661924
      10   0.250000000   0.433012702   0.000000000
      11   0.250000000   0.433012702   0.153330962
      12   0.250000000   0.433012702  -0.306661924

     Calculation of q =    0.0000000   0.0000000   0.0000000

                                                                                

     bravais-lattice index     =            4
     lattice parameter (alat)  =       7.1600  a.u.
     unit-cell volume          =     518.2984 (a.u.)^3
     number of atoms/cell      =            2
     number of atomic types    =            1
     kinetic-energy cut-off    =      40.0000  Ry
     charge density cut-off    =     320.0000  Ry
     convergence threshold     =      1.0E-15
     beta                      =       0.7000
     number of iterations used =            4
     Exchange-correlation      = SLA  PW   PBE  PBE ( 1  4  3  4 0 0)


     celldm(1)=    7.16000  celldm(2)=    0.00000  celldm(3)=    1.63046
     celldm(4)=    0.00000  celldm(5)=    0.00000  celldm(6)=    0.00000

     crystal axes: (cart. coord. in units of alat)
               a(1) = (  1.0000  0.0000  0.0000 )  
               a(2) = ( -0.5000  0.8660  0.0000 )  
               a(3) = (  0.0000  0.0000  1.6305 )  

     reciprocal axes: (cart. coord. in units 2 pi/alat)
               b(1) = (  1.0000  0.5774  0.0000 )  
               b(2) = (  0.0000  1.1547  0.0000 )  
               b(3) = (  0.0000  0.0000  0.6133 )  


     Atoms inside the unit cell: 

     Cartesian axes

     site n.  atom      mass           positions (alat units)
        1     Na  22.9900   tau(    1) = (    0.00000    0.00000    0.00000  )
        2     Na  22.9900   tau(    2) = (    0.50000    0.28868    0.81523  )

     Computing dynamical matrix for 
                    q = (   0.0000000   0.0000000   0.0000000 )
 
     25 Sym.Ops. (with q -> -q+G )


     G cutoff =  415.5433  (   6280 G-vectors)     FFT grid: ( 45, 45, 72)
     G cutoff =  207.7717  (   2214 G-vectors)  smooth grid: ( 30, 30, 48)

     number of k points=   366  Marzari-Vanderbilt smearing, width (Ry)=  0.0200

     PseudoPot. # 1 for Na read from file:
     ./Na_pbe_v1.uspp.F.UPF
     MD5 check sum: 76a99c7e9422403d3e93cbc85ab7bccb
     Pseudo is Ultrasoft, Zval =  9.0
     Generated by new atomic code, or converted to UPF format
     Using radial grid of  819 points,  5 beta functions with: 
                l(1) =   0
                l(2) =   0
                l(3) =   1
                l(4) =   1
                l(5) =   2
     Q(r) pseudized with  8 coefficients,  rinner =    1.250   1.250   1.250
                                                       1.250   1.250

     Mode symmetry, D_6h(6/mmm) point group:


     Atomic displacements:
     There are   4 irreducible representations

     Representation     1      1 modes -B_1g  To be done

     Representation     2      2 modes -E_2g  To be done

     Representation     3      1 modes -A_2u  To be done

     Representation     4      2 modes -E_1u  To be done



     Alpha used in Ewald sum =   2.8000
     PHONON       :     6.01s CPU         8.77s WALL



     Representation #  1 mode #   1

     Self-consistent Calculation
 
     Pert. #  1: Fermi energy shift (Ry) =     0.0000E+00     0.0000E+00

      iter #   1 total cpu time :     9.5 secs   av.it.:   5.4
      thresh= 1.000E-02 alpha_mix =  0.700 |ddv_scf|^2 =  2.722E-05
 
     Pert. #  1: Fermi energy shift (Ry) =     0.0000E+00     0.0000E+00

      iter #   2 total cpu time :    10.2 secs   av.it.:   7.2
      thresh= 5.217E-04 alpha_mix =  0.700 |ddv_scf|^2 =  1.695E-05
 
     Pert. #  1: Fermi energy shift (Ry) =     0.0000E+00    -3.8265E-42

      iter #   3 total cpu time :    10.9 secs   av.it.:   6.9
      thresh= 4.117E-04 alpha_mix =  0.700 |ddv_scf|^2 =  2.152E-08
 
     Pert. #  1: Fermi energy shift (Ry) =     1.4117E-22    -1.5306E-41

      iter #   4 total cpu time :    11.6 secs   av.it.:   8.4
      thresh= 1.467E-05 alpha_mix =  0.700 |ddv_scf|^2 =  8.774E-11
 
     Pert. #  1: Fermi energy shift (Ry) =     0.0000E+00    -1.1958E-43

      iter #   5 total cpu time :    12.2 secs   av.it.:   7.3
      thresh= 9.367E-07 alpha_mix =  0.700 |ddv_scf|^2 =  1.721E-12
 
     Pert. #  1: Fermi energy shift (Ry) =     0.0000E+00     1.1958E-43

      iter #   6 total cpu time :    13.0 secs   av.it.:   7.2
      thresh= 1.312E-07 alpha_mix =  0.700 |ddv_scf|^2 =  4.965E-15
 
     Pert. #  1: Fermi energy shift (Ry) =     0.0000E+00     0.0000E+00

      iter #   7 total cpu time :    13.7 secs   av.it.:   8.1
      thresh= 7.046E-09 alpha_mix =  0.700 |ddv_scf|^2 =  1.349E-17

     End of self-consistent calculation

     Convergence has been achieved 


     Representation #  2 modes #   2  3

     Self-consistent Calculation
 
     Pert. #  1: Fermi energy shift (Ry) =    -2.2711E-20    -3.8239E-42
     Pert. #  2: Fermi energy shift (Ry) =     3.9754E-19    -1.4828E-41

      iter #   1 total cpu time :    15.5 secs   av.it.:   5.1
      thresh= 1.000E-02 alpha_mix =  0.700 |ddv_scf|^2 =  7.277E-07
 
     Pert. #  1: Fermi energy shift (Ry) =    -2.3492E-20     4.5891E-41
     Pert. #  2: Fermi energy shift (Ry) =     4.0658E-20     3.0612E-41

      iter #   2 total cpu time :    17.9 secs   av.it.:   8.6
      thresh= 8.531E-05 alpha_mix =  0.700 |ddv_scf|^2 =  1.253E-08
 
     Pert. #  1: Fermi energy shift (Ry) =    -5.0881E-21    -1.4354E-42
     Pert. #  2: Fermi energy shift (Ry) =    -1.4682E-20     7.1746E-43

      iter #   3 total cpu time :    20.2 secs   av.it.:   8.8
      thresh= 1.120E-05 alpha_mix =  0.700 |ddv_scf|^2 =  4.327E-10
 
     Pert. #  1: Fermi energy shift (Ry) =     5.5922E-22     1.3162E-42
     Pert. #  2: Fermi energy shift (Ry) =    -1.4682E-20     7.1746E-43

      iter #   4 total cpu time :    22.1 secs   av.it.:   8.4
      thresh= 2.080E-06 alpha_mix =  0.700 |ddv_scf|^2 =  1.429E-12
 
     Pert. #  1: Fermi energy shift (Ry) =     5.5945E-22     3.0054E-44
     Pert. #  2: Fermi energy shift (Ry) =    -7.9056E-21    -1.4947E-43

      iter #   5 total cpu time :    34.8 secs   av.it.:   8.8
      thresh= 1.195E-07 alpha_mix =  0.700 |ddv_scf|^2 =  2.079E-15
 
     Pert. #  1: Fermi energy shift (Ry) =    -5.2405E-24     3.0054E-44
     Pert. #  2: Fermi energy shift (Ry) =    -7.9056E-21    -1.4947E-43

      iter #   6 total cpu time :    39.0 secs   av.it.:   7.7
      thresh= 4.559E-09 alpha_mix =  0.700 |ddv_scf|^2 =  9.200E-17

     End of self-consistent calculation

     Convergence has been achieved 


     Representation #  3 mode #   4

     Self-consistent Calculation
 
     Pert. #  1: Fermi energy shift (Ry) =     4.1359E-25     5.0154E-37

      iter #   1 total cpu time :    45.7 secs   av.it.:   5.1
      thresh= 1.000E-02 alpha_mix =  0.700 |ddv_scf|^2 =  2.730E-06
 
     Pert. #  1: Fermi energy shift (Ry) =    -2.7573E-25     2.4489E-40

      iter #   2 total cpu time :    47.2 secs   av.it.:   8.0
      thresh= 1.652E-04 alpha_mix =  0.700 |ddv_scf|^2 =  5.114E-08
 
     Pert. #  1: Fermi energy shift (Ry) =    -8.6165E-27     9.7958E-40

      iter #   3 total cpu time :    48.4 secs   av.it.:   8.3
      thresh= 2.261E-05 alpha_mix =  0.700 |ddv_scf|^2 =  1.130E-09
 
     Pert. #  1: Fermi energy shift (Ry) =     1.2925E-26     1.2245E-40

      iter #   4 total cpu time :    49.0 secs   av.it.:   7.7
      thresh= 3.361E-06 alpha_mix =  0.700 |ddv_scf|^2 =  3.792E-12
 
     Pert. #  1: Fermi energy shift (Ry) =     1.6156E-27    -1.5306E-41

      iter #   5 total cpu time :    49.6 secs   av.it.:   8.2
      thresh= 1.947E-07 alpha_mix =  0.700 |ddv_scf|^2 =  8.180E-15
 
     Pert. #  1: Fermi energy shift (Ry) =    -1.0771E-27    -7.6530E-42

      iter #   6 total cpu time :    50.3 secs   av.it.:   7.6
      thresh= 9.044E-09 alpha_mix =  0.700 |ddv_scf|^2 =  2.014E-16

     End of self-consistent calculation

     Convergence has been achieved 


     Representation #  4 modes #   5  6

     Self-consistent Calculation
 
     Pert. #  1: Fermi energy shift (Ry) =     4.3423E-24     1.2539E-37
     Pert. #  2: Fermi energy shift (Ry) =    -6.0660E-24     2.3510E-37

      iter #   1 total cpu time :    53.9 secs   av.it.:   5.2
      thresh= 1.000E-02 alpha_mix =  0.700 |ddv_scf|^2 =  6.849E-07
 
     Pert. #  1: Fermi energy shift (Ry) =     1.1462E-24    -9.7958E-40
     Pert. #  2: Fermi energy shift (Ry) =    -2.7573E-25    -1.8367E-39

      iter #   2 total cpu time :    56.9 secs   av.it.:   8.8
      thresh= 8.276E-05 alpha_mix =  0.700 |ddv_scf|^2 =  1.274E-08
 
     Pert. #  1: Fermi energy shift (Ry) =    -5.6040E-26    -1.2245E-40
     Pert. #  2: Fermi energy shift (Ry) =     6.8932E-26    -2.2959E-40

      iter #   3 total cpu time :    59.3 secs   av.it.:   9.0
      thresh= 1.129E-05 alpha_mix =  0.700 |ddv_scf|^2 =  2.937E-10
 
     Pert. #  1: Fermi energy shift (Ry) =     1.5026E-25     5.7397E-42
     Pert. #  2: Fermi energy shift (Ry) =     1.3786E-25     3.5873E-43

      iter #   4 total cpu time :    61.2 secs   av.it.:   8.7
      thresh= 1.714E-06 alpha_mix =  0.700 |ddv_scf|^2 =  9.852E-13
 
     Pert. #  1: Fermi energy shift (Ry) =    -1.5965E-25    -4.7831E-43
     Pert. #  2: Fermi energy shift (Ry) =     2.7573E-25    -8.9683E-43

      iter #   5 total cpu time :    63.8 secs   av.it.:   9.1
      thresh= 9.925E-08 alpha_mix =  0.700 |ddv_scf|^2 =  1.997E-15
 
     Pert. #  1: Fermi energy shift (Ry) =    -1.5969E-25    -4.7831E-43
     Pert. #  2: Fermi energy shift (Ry) =     0.0000E+00    -8.9683E-43

      iter #   6 total cpu time :    75.6 secs   av.it.:   8.5
      thresh= 4.469E-09 alpha_mix =  0.700 |ddv_scf|^2 =  4.994E-17

     End of self-consistent calculation

     Convergence has been achieved 
 
     Number of q in the star =    1
     List of q in the star:
          1   0.000000000   0.000000000   0.000000000

     Diagonalizing the dynamical matrix

     q = (    0.000000000   0.000000000   0.000000000 ) 

 **************************************************************************
     freq (    1) =      -0.486684 [THz] =     -16.234035 [cm-1]
     freq (    2) =      -0.400244 [THz] =     -13.350709 [cm-1]
     freq (    3) =      -0.400244 [THz] =     -13.350709 [cm-1]
     freq (    4) =       1.550010 [THz] =      51.702778 [cm-1]
     freq (    5) =       1.550010 [THz] =      51.702778 [cm-1]
     freq (    6) =       3.666995 [THz] =     122.317771 [cm-1]
 **************************************************************************

     Mode symmetry, D_6h(6/mmm) point group:

     freq (  1 -  1) =        -16.2  [cm-1]   --> A_2u            I  
     freq (  2 -  3) =        -13.4  [cm-1]   --> E_1u            I  
     freq (  4 -  5) =         51.7  [cm-1]   --> E_2g            R  
     freq (  6 -  6) =        122.3  [cm-1]   --> B_1g               

     Calculation of q =    0.0000000   0.0000000   0.1533310
 
     Parallelization info
     --------------------
     sticks:   dense  smooth     PW     G-vecs:    dense   smooth      PW
     Min         141      69     20                 6273     2203     374
     Max         142      70     22                 6280     2218     381
     Sum        1135     559    169                50221    17693    3015
 


     bravais-lattice index     =            4
     lattice parameter (alat)  =       7.1600  a.u.
     unit-cell volume          =     518.2984 (a.u.)^3
     number of atoms/cell      =            2
     number of atomic types    =            1
     number of electrons       =        18.00
     number of Kohn-Sham states=           13
     kinetic-energy cutoff     =      40.0000  Ry
     charge density cutoff     =     320.0000  Ry
     Exchange-correlation      = SLA  PW   PBE  PBE ( 1  4  3  4 0 0)

     celldm(1)=   7.160000  celldm(2)=   0.000000  celldm(3)=   1.630460
     celldm(4)=   0.000000  celldm(5)=   0.000000  celldm(6)=   0.000000

     crystal axes: (cart. coord. in units of alat)
               a(1) = (   1.000000   0.000000   0.000000 )  
               a(2) = (  -0.500000   0.866025   0.000000 )  
               a(3) = (   0.000000   0.000000   1.630460 )  

     reciprocal axes: (cart. coord. in units 2 pi/alat)
               b(1) = (  1.000000  0.577350  0.000000 )  
               b(2) = (  0.000000  1.154701  0.000000 )  
               b(3) = (  0.000000  0.000000  0.613324 )  


     PseudoPot. # 1 for Na read from file:
     ./Na_pbe_v1.uspp.F.UPF
     MD5 check sum: 76a99c7e9422403d3e93cbc85ab7bccb
     Pseudo is Ultrasoft, Zval =  9.0
     Generated by new atomic code, or converted to UPF format
     Using radial grid of  819 points,  5 beta functions with: 
                l(1) =   0
                l(2) =   0
                l(3) =   1
                l(4) =   1
                l(5) =   2
     Q(r) pseudized with  8 coefficients,  rinner =    1.250   1.250   1.250
                                                       1.250   1.250

     atomic species   valence    mass     pseudopotential
        Na             9.00    22.99000     Na( 1.00)

     24 Sym. Ops., with inversion, found



   Cartesian axes

     site n.     atom                  positions (alat units)
         1           Na  tau(   1) = (   0.0000000   0.0000000   0.0000000  )
         2           Na  tau(   2) = (   0.5000000   0.2886751   0.8152300  )

     number of k points=  1464  Marzari-Vanderbilt smearing, width (Ry)=  0.0200

     Number of k-points >= 100: set verbosity='high' to print them.

     Dense  grid:    50221 G-vectors     FFT dimensions: (  45,  45,  72)

     Smooth grid:    17693 G-vectors     FFT dimensions: (  30,  30,  48)

     Largest allocated arrays     est. size (Mb)     dimensions
        Kohn-Sham Wavefunctions         0.06 Mb     (     295,   13)
        NL pseudopotentials             0.12 Mb     (     295,   26)
        Each V/rho on FFT grid          0.28 Mb     (   18225)
        Each G-vector array             0.05 Mb     (    6280)
        G-vector shells                 0.01 Mb     (    1739)
     Largest temporary arrays     est. size (Mb)     dimensions
        Auxiliary wavefunctions         0.23 Mb     (     295,   52)
        Each subspace H/S matrix        0.01 Mb     (      26,   26)
        Each <psi_i|beta_j> matrix      0.01 Mb     (      26,   13)

     The potential is recalculated from file :
     ./na_hcp_7.16/_ph0/na_hcp_7.16.save/charge-density.dat

     Starting wfc are   10 atomic +    3 random wfc

     Band Structure Calculation
     Davidson diagonalization with overlap

     ethr =  5.56E-11,  avg # of iterations = 23.9

     total cpu time spent up to now is        5.1 secs

     End of band structure calculation

     Number of k-points >= 100: set verbosity='high' to print the bands.

     the Fermi energy is     1.4601 ev

     Writing output data file na_hcp_7.16.save

                                                                                

     bravais-lattice index     =            4
     lattice parameter (alat)  =       7.1600  a.u.
     unit-cell volume          =     518.2984 (a.u.)^3
     number of atoms/cell      =            2
     number of atomic types    =            1
     kinetic-energy cut-off    =      40.0000  Ry
     charge density cut-off    =     320.0000  Ry
     convergence threshold     =      1.0E-15
     beta                      =       0.7000
     number of iterations used =            4
     Exchange-correlation      = SLA  PW   PBE  PBE ( 1  4  3  4 0 0)


     celldm(1)=    7.16000  celldm(2)=    0.00000  celldm(3)=    1.63046
     celldm(4)=    0.00000  celldm(5)=    0.00000  celldm(6)=    0.00000

     crystal axes: (cart. coord. in units of alat)
               a(1) = (  1.0000  0.0000  0.0000 )  
               a(2) = ( -0.5000  0.8660  0.0000 )  
               a(3) = (  0.0000  0.0000  1.6305 )  

     reciprocal axes: (cart. coord. in units 2 pi/alat)
               b(1) = (  1.0000  0.5774  0.0000 )  
               b(2) = (  0.0000  1.1547  0.0000 )  
               b(3) = (  0.0000  0.0000  0.6133 )  


     Atoms inside the unit cell: 

     Cartesian axes

     site n.  atom      mass           positions (alat units)
        1     Na  22.9900   tau(    1) = (    0.00000    0.00000    0.00000  )
        2     Na  22.9900   tau(    2) = (    0.50000    0.28868    0.81523  )

     Computing dynamical matrix for 
                    q = (   0.0000000   0.0000000   0.1533310 )
 
     12 Sym.Ops. (no q -> -q+G )


     G cutoff =  415.5433  (   6280 G-vectors)     FFT grid: ( 45, 45, 72)
     G cutoff =  207.7717  (   2218 G-vectors)  smooth grid: ( 30, 30, 48)

     number of k points=  1464  Marzari-Vanderbilt smearing, width (Ry)=  0.0200

     PseudoPot. # 1 for Na read from file:
     ./Na_pbe_v1.uspp.F.UPF
     MD5 check sum: 76a99c7e9422403d3e93cbc85ab7bccb
     Pseudo is Ultrasoft, Zval =  9.0
     Generated by new atomic code, or converted to UPF format
     Using radial grid of  819 points,  5 beta functions with: 
                l(1) =   0
                l(2) =   0
                l(3) =   1
                l(4) =   1
                l(5) =   2
     Q(r) pseudized with  8 coefficients,  rinner =    1.250   1.250   1.250
                                                       1.250   1.250

     Mode symmetry, C_6v (6mm)  point group:


     Atomic displacements:
     There are   4 irreducible representations

     Representation     1      1 modes -A_1  To be done

     Representation     2      1 modes -B_2  To be done

     Representation     3      2 modes -E_1  To be done

     Representation     4      2 modes -E_2  To be done



     Alpha used in Ewald sum =   2.8000
     PHONON       :  1m13.91s CPU     1m24.87s WALL



     Representation #  1 mode #   1

     Self-consistent Calculation

      iter #   1 total cpu time :    86.2 secs   av.it.:   5.4
      thresh= 1.000E-02 alpha_mix =  0.700 |ddv_scf|^2 =  4.540E-02

      iter #   2 total cpu time :    88.6 secs   av.it.:   6.8
      thresh= 1.000E-02 alpha_mix =  0.700 |ddv_scf|^2 =  2.574E+01

      iter #   3 total cpu time :    92.7 secs   av.it.:   6.8
      thresh= 1.000E-02 alpha_mix =  0.700 |ddv_scf|^2 =  1.000E-04

      iter #   4 total cpu time :    95.0 secs   av.it.:   5.5
      thresh= 1.000E-03 alpha_mix =  0.700 |ddv_scf|^2 =  3.461E-08

      iter #   5 total cpu time :    97.1 secs   av.it.:   7.7
      thresh= 1.860E-05 alpha_mix =  0.700 |ddv_scf|^2 =  3.169E-09

      iter #   6 total cpu time :   100.6 secs   av.it.:   6.7
      thresh= 5.630E-06 alpha_mix =  0.700 |ddv_scf|^2 =  2.012E-07

      iter #   7 total cpu time :   103.8 secs   av.it.:   5.1
      thresh= 4.486E-05 alpha_mix =  0.700 |ddv_scf|^2 =  1.063E-11

      iter #   8 total cpu time :   105.5 secs   av.it.:   8.4
      thresh= 3.260E-07 alpha_mix =  0.700 |ddv_scf|^2 =  2.668E-13

      iter #   9 total cpu time :   113.4 secs   av.it.:   8.8
      thresh= 5.165E-08 alpha_mix =  0.700 |ddv_scf|^2 =  1.265E-14

      iter #  10 total cpu time :   123.4 secs   av.it.:   8.7
      thresh= 1.125E-08 alpha_mix =  0.700 |ddv_scf|^2 =  1.250E-13

      iter #  11 total cpu time :   124.8 secs   av.it.:   5.8
      thresh= 3.536E-08 alpha_mix =  0.700 |ddv_scf|^2 =  6.034E-14

      iter #  12 total cpu time :   126.4 secs   av.it.:   5.9
      thresh= 2.456E-08 alpha_mix =  0.700 |ddv_scf|^2 =  3.743E-15

      iter #  13 total cpu time :   127.9 secs   av.it.:   5.0
      thresh= 6.118E-09 alpha_mix =  0.700 |ddv_scf|^2 =  5.192E-16

     End of self-consistent calculation

     Convergence has been achieved 


     Representation #  2 mode #   2

     Self-consistent Calculation

      iter #   1 total cpu time :   130.7 secs   av.it.:   5.4
      thresh= 1.000E-02 alpha_mix =  0.700 |ddv_scf|^2 =  7.177E-05

      iter #   2 total cpu time :   132.8 secs   av.it.:   7.2
      thresh= 8.472E-04 alpha_mix =  0.700 |ddv_scf|^2 =  2.478E-04

      iter #   3 total cpu time :   135.5 secs   av.it.:   6.4
      thresh= 1.574E-03 alpha_mix =  0.700 |ddv_scf|^2 =  1.212E-07

      iter #   4 total cpu time :   137.1 secs   av.it.:   8.2
      thresh= 3.482E-05 alpha_mix =  0.700 |ddv_scf|^2 =  3.254E-09

      iter #   5 total cpu time :   139.6 secs   av.it.:   8.7
      thresh= 5.704E-06 alpha_mix =  0.700 |ddv_scf|^2 =  7.488E-11

      iter #   6 total cpu time :   141.5 secs   av.it.:   8.7
      thresh= 8.653E-07 alpha_mix =  0.700 |ddv_scf|^2 =  5.432E-12

      iter #   7 total cpu time :   144.6 secs   av.it.:   8.3
      thresh= 2.331E-07 alpha_mix =  0.700 |ddv_scf|^2 =  3.254E-13

      iter #   8 total cpu time :   146.8 secs   av.it.:   8.5
      thresh= 5.704E-08 alpha_mix =  0.700 |ddv_scf|^2 =  1.797E-14

      iter #   9 total cpu time :   149.1 secs   av.it.:   7.6
      thresh= 1.340E-08 alpha_mix =  0.700 |ddv_scf|^2 =  5.356E-16

     End of self-consistent calculation

     Convergence has been achieved 


     Representation #  3 modes #   3  4

     Self-consistent Calculation

      iter #   1 total cpu time :   169.2 secs   av.it.:   5.1
      thresh= 1.000E-02 alpha_mix =  0.700 |ddv_scf|^2 =  6.904E-07

      iter #   2 total cpu time :   174.0 secs   av.it.:   8.6
      thresh= 8.309E-05 alpha_mix =  0.700 |ddv_scf|^2 =  1.272E-08

      iter #   3 total cpu time :   190.6 secs   av.it.:   8.8
      thresh= 1.128E-05 alpha_mix =  0.700 |ddv_scf|^2 =  3.089E-10

      iter #   4 total cpu time :   197.4 secs   av.it.:   8.5
      thresh= 1.757E-06 alpha_mix =  0.700 |ddv_scf|^2 =  1.027E-12

      iter #   5 total cpu time :   202.5 secs   av.it.:   8.9
      thresh= 1.013E-07 alpha_mix =  0.700 |ddv_scf|^2 =  2.036E-15

      iter #   6 total cpu time :   225.3 secs   av.it.:   8.3
      thresh= 4.513E-09 alpha_mix =  0.700 |ddv_scf|^2 =  5.824E-17

     End of self-consistent calculation

     Convergence has been achieved 


     Representation #  4 modes #   5  6

     Self-consistent Calculation

      iter #   1 total cpu time :   240.2 secs   av.it.:   5.1
      thresh= 1.000E-02 alpha_mix =  0.700 |ddv_scf|^2 =  7.206E-07

      iter #   2 total cpu time :   245.6 secs   av.it.:   8.6
      thresh= 8.489E-05 alpha_mix =  0.700 |ddv_scf|^2 =  1.257E-08

      iter #   3 total cpu time :   251.0 secs   av.it.:   8.8
      thresh= 1.121E-05 alpha_mix =  0.700 |ddv_scf|^2 =  4.066E-10

      iter #   4 total cpu time :   257.3 secs   av.it.:   8.5
      thresh= 2.017E-06 alpha_mix =  0.700 |ddv_scf|^2 =  1.341E-12

      iter #   5 total cpu time :   262.0 secs   av.it.:   8.9
      thresh= 1.158E-07 alpha_mix =  0.700 |ddv_scf|^2 =  2.095E-15

      iter #   6 total cpu time :   269.2 secs   av.it.:   7.9
      thresh= 4.578E-09 alpha_mix =  0.700 |ddv_scf|^2 =  8.764E-17

     End of self-consistent calculation

     Convergence has been achieved 
 
     Number of q in the star =    2
     List of q in the star:
          1   0.000000000   0.000000000   0.153330962
          2   0.000000000   0.000000000  -0.153330962

     Diagonalizing the dynamical matrix

     q = (    0.000000000   0.000000000   0.153330962 ) 

 **************************************************************************
     freq (    1) =       0.454606 [THz] =      15.164021 [cm-1]
     freq (    2) =       0.454606 [THz] =      15.164021 [cm-1]
     freq (    3) =       1.422795 [THz] =      47.459316 [cm-1]
     freq (    4) =       1.422795 [THz] =      47.459316 [cm-1]
     freq (    5) =       1.461563 [THz] =      48.752503 [cm-1]
     freq (    6) =       3.418971 [THz] =     114.044597 [cm-1]
 **************************************************************************

     Mode symmetry, C_6v (6mm)  point group:

     freq (  1 -  2) =         15.2  [cm-1]   --> E_1                
     freq (  3 -  4) =         47.5  [cm-1]   --> E_2                
     freq (  5 -  5) =         48.8  [cm-1]   --> A_1                
     freq (  6 -  6) =        114.0  [cm-1]   --> B_2                

     Calculation of q =    0.0000000   0.0000000  -0.3066619
 
     Parallelization info
     --------------------
     sticks:   dense  smooth     PW     G-vecs:    dense   smooth      PW
     Min         141      69     20                 6273     2203     362
     Max         142      70     21                 6280     2216     369
     Sum        1135     559    163                50221    17693    2923
 


     bravais-lattice index     =            4
     lattice parameter (alat)  =       7.1600  a.u.
     unit-cell volume          =     518.2984 (a.u.)^3
     number of atoms/cell      =            2
     number of atomic types    =            1
     number of electrons       =        18.00
     number of Kohn-Sham states=           13
     kinetic-energy cutoff     =      40.0000  Ry
     charge density cutoff     =     320.0000  Ry
     Exchange-correlation      = SLA  PW   PBE  PBE ( 1  4  3  4 0 0)

     celldm(1)=   7.160000  celldm(2)=   0.000000  celldm(3)=   1.630460
     celldm(4)=   0.000000  celldm(5)=   0.000000  celldm(6)=   0.000000

     crystal axes: (cart. coord. in units of alat)
               a(1) = (   1.000000   0.000000   0.000000 )  
               a(2) = (  -0.500000   0.866025   0.000000 )  
               a(3) = (   0.000000   0.000000   1.630460 )  

     reciprocal axes: (cart. coord. in units 2 pi/alat)
               b(1) = (  1.000000  0.577350  0.000000 )  
               b(2) = (  0.000000  1.154701  0.000000 )  
               b(3) = (  0.000000  0.000000  0.613324 )  


     PseudoPot. # 1 for Na read from file:
     ./Na_pbe_v1.uspp.F.UPF
     MD5 check sum: 76a99c7e9422403d3e93cbc85ab7bccb
     Pseudo is Ultrasoft, Zval =  9.0
     Generated by new atomic code, or converted to UPF format
     Using radial grid of  819 points,  5 beta functions with: 
                l(1) =   0
                l(2) =   0
                l(3) =   1
                l(4) =   1
                l(5) =   2
     Q(r) pseudized with  8 coefficients,  rinner =    1.250   1.250   1.250
                                                       1.250   1.250

     atomic species   valence    mass     pseudopotential
        Na             9.00    22.99000     Na( 1.00)

     24 Sym. Ops., with inversion, found



   Cartesian axes

     site n.     atom                  positions (alat units)
         1           Na  tau(   1) = (   0.0000000   0.0000000   0.0000000  )
         2           Na  tau(   2) = (   0.5000000   0.2886751   0.8152300  )

     number of k points=   732  Marzari-Vanderbilt smearing, width (Ry)=  0.0200

     Number of k-points >= 100: set verbosity='high' to print them.

     Dense  grid:    50221 G-vectors     FFT dimensions: (  45,  45,  72)

     Smooth grid:    17693 G-vectors     FFT dimensions: (  30,  30,  48)

     Largest allocated arrays     est. size (Mb)     dimensions
        Kohn-Sham Wavefunctions         0.06 Mb     (     283,   13)
        NL pseudopotentials             0.11 Mb     (     283,   26)
        Each V/rho on FFT grid          0.28 Mb     (   18225)
        Each G-vector array             0.05 Mb     (    6280)
        G-vector shells                 0.01 Mb     (    1675)
     Largest temporary arrays     est. size (Mb)     dimensions
        Auxiliary wavefunctions         0.22 Mb     (     283,   52)
        Each subspace H/S matrix        0.01 Mb     (      26,   26)
        Each <psi_i|beta_j> matrix      0.01 Mb     (      26,   13)

     The potential is recalculated from file :
     ./na_hcp_7.16/_ph0/na_hcp_7.16.save/charge-density.dat

     Starting wfc are   10 atomic +    3 random wfc

     Band Structure Calculation
     Davidson diagonalization with overlap

     ethr =  5.56E-11,  avg # of iterations = 24.0

     total cpu time spent up to now is        9.4 secs

     End of band structure calculation

     Number of k-points >= 100: set verbosity='high' to print the bands.

     the Fermi energy is     1.4601 ev

     Writing output data file na_hcp_7.16.save

                                                                                

     bravais-lattice index     =            4
     lattice parameter (alat)  =       7.1600  a.u.
     unit-cell volume          =     518.2984 (a.u.)^3
     number of atoms/cell      =            2
     number of atomic types    =            1
     kinetic-energy cut-off    =      40.0000  Ry
     charge density cut-off    =     320.0000  Ry
     convergence threshold     =      1.0E-15
     beta                      =       0.7000
     number of iterations used =            4
     Exchange-correlation      = SLA  PW   PBE  PBE ( 1  4  3  4 0 0)


     celldm(1)=    7.16000  celldm(2)=    0.00000  celldm(3)=    1.63046
     celldm(4)=    0.00000  celldm(5)=    0.00000  celldm(6)=    0.00000

     crystal axes: (cart. coord. in units of alat)
               a(1) = (  1.0000  0.0000  0.0000 )  
               a(2) = ( -0.5000  0.8660  0.0000 )  
               a(3) = (  0.0000  0.0000  1.6305 )  

     reciprocal axes: (cart. coord. in units 2 pi/alat)
               b(1) = (  1.0000  0.5774  0.0000 )  
               b(2) = (  0.0000  1.1547  0.0000 )  
               b(3) = (  0.0000  0.0000  0.6133 )  


     Atoms inside the unit cell: 

     Cartesian axes

     site n.  atom      mass           positions (alat units)
        1     Na  22.9900   tau(    1) = (    0.00000    0.00000    0.00000  )
        2     Na  22.9900   tau(    2) = (    0.50000    0.28868    0.81523  )

     Computing dynamical matrix for 
                    q = (   0.0000000   0.0000000  -0.3066619 )
 
     25 Sym.Ops. (with q -> -q+G )


     G cutoff =  415.5433  (   6280 G-vectors)     FFT grid: ( 45, 45, 72)
     G cutoff =  207.7717  (   2214 G-vectors)  smooth grid: ( 30, 30, 48)

     number of k points=   732  Marzari-Vanderbilt smearing, width (Ry)=  0.0200

     PseudoPot. # 1 for Na read from file:
     ./Na_pbe_v1.uspp.F.UPF
     MD5 check sum: 76a99c7e9422403d3e93cbc85ab7bccb
     Pseudo is Ultrasoft, Zval =  9.0
     Generated by new atomic code, or converted to UPF format
     Using radial grid of  819 points,  5 beta functions with: 
                l(1) =   0
                l(2) =   0
                l(3) =   1
                l(4) =   1
                l(5) =   2
     Q(r) pseudized with  8 coefficients,  rinner =    1.250   1.250   1.250
                                                       1.250   1.250


     Atomic displacements:
     There are   2 irreducible representations

     Representation     1      4 modes -  To be done

     Representation     2      2 modes -  To be done



     Alpha used in Ewald sum =   2.8000
     PHONON       :  4m 0.70s CPU     4m36.06s WALL



     Representation #  1 modes #   1  2  3  4

     Self-consistent Calculation

      iter #   1 total cpu time :   289.8 secs   av.it.:   5.2
      thresh= 1.000E-02 alpha_mix =  0.700 |ddv_scf|^2 =  1.762E-07

      iter #   2 total cpu time :   301.1 secs   av.it.:   9.4
      thresh= 4.198E-05 alpha_mix =  0.700 |ddv_scf|^2 =  3.161E-09

      iter #   3 total cpu time :   307.4 secs   av.it.:   9.7
      thresh= 5.622E-06 alpha_mix =  0.700 |ddv_scf|^2 =  8.780E-11

      iter #   4 total cpu time :   321.8 secs   av.it.:   9.2
      thresh= 9.370E-07 alpha_mix =  0.700 |ddv_scf|^2 =  2.909E-13

      iter #   5 total cpu time :   328.8 secs   av.it.:   9.5
      thresh= 5.394E-08 alpha_mix =  0.700 |ddv_scf|^2 =  5.258E-16

     End of self-consistent calculation

     Convergence has been achieved 


     Representation #  2 modes #   5  6

     Self-consistent Calculation

      iter #   1 total cpu time :   332.7 secs   av.it.:   5.7
      thresh= 1.000E-02 alpha_mix =  0.700 |ddv_scf|^2 =  1.809E-04

      iter #   2 total cpu time :   335.2 secs   av.it.:   7.7
      thresh= 1.345E-03 alpha_mix =  0.700 |ddv_scf|^2 =  5.032E-03

      iter #   3 total cpu time :   344.6 secs   av.it.:   6.1
      thresh= 7.094E-03 alpha_mix =  0.700 |ddv_scf|^2 =  1.247E-07

      iter #   4 total cpu time :   346.7 secs   av.it.:   8.6
      thresh= 3.531E-05 alpha_mix =  0.700 |ddv_scf|^2 =  6.697E-10

      iter #   5 total cpu time :   349.5 secs   av.it.:   9.5
      thresh= 2.588E-06 alpha_mix =  0.700 |ddv_scf|^2 =  4.937E-11

      iter #   6 total cpu time :   352.5 secs   av.it.:   9.4
      thresh= 7.026E-07 alpha_mix =  0.700 |ddv_scf|^2 =  1.314E-12

      iter #   7 total cpu time :   356.2 secs   av.it.:   9.7
      thresh= 1.146E-07 alpha_mix =  0.700 |ddv_scf|^2 =  1.900E-13

      iter #   8 total cpu time :   359.9 secs   av.it.:   8.3
      thresh= 4.359E-08 alpha_mix =  0.700 |ddv_scf|^2 =  2.078E-16

     End of self-consistent calculation

     Convergence has been achieved 
 
     Number of q in the star =    1
     List of q in the star:
          1   0.000000000   0.000000000  -0.306661924

     Diagonalizing the dynamical matrix

     q = (    0.000000000   0.000000000  -0.306661924 ) 

 **************************************************************************
     freq (    1) =       0.938680 [THz] =      31.310993 [cm-1]
     freq (    2) =       0.938680 [THz] =      31.310993 [cm-1]
     freq (    3) =       0.938680 [THz] =      31.310993 [cm-1]
     freq (    4) =       0.938680 [THz] =      31.310993 [cm-1]
     freq (    5) =       2.683662 [THz] =      89.517316 [cm-1]
     freq (    6) =       2.683662 [THz] =      89.517316 [cm-1]
 **************************************************************************

     Calculation of q =    0.0000000   0.2886751   0.0000000
 
     Parallelization info
     --------------------
     sticks:   dense  smooth     PW     G-vecs:    dense   smooth      PW
     Min         141      69     22                 6273     2203     407
     Max         142      70     24                 6280     2214     412
     Sum        1135     559    187                50221    17693    3285
 


     bravais-lattice index     =            4
     lattice parameter (alat)  =       7.1600  a.u.
     unit-cell volume          =     518.2984 (a.u.)^3
     number of atoms/cell      =            2
     number of atomic types    =            1
     number of electrons       =        18.00
     number of Kohn-Sham states=           13
     kinetic-energy cutoff     =      40.0000  Ry
     charge density cutoff     =     320.0000  Ry
     Exchange-correlation      = SLA  PW   PBE  PBE ( 1  4  3  4 0 0)

     celldm(1)=   7.160000  celldm(2)=   0.000000  celldm(3)=   1.630460
     celldm(4)=   0.000000  celldm(5)=   0.000000  celldm(6)=   0.000000

     crystal axes: (cart. coord. in units of alat)
               a(1) = (   1.000000   0.000000   0.000000 )  
               a(2) = (  -0.500000   0.866025   0.000000 )  
               a(3) = (   0.000000   0.000000   1.630460 )  

     reciprocal axes: (cart. coord. in units 2 pi/alat)
               b(1) = (  1.000000  0.577350  0.000000 )  
               b(2) = (  0.000000  1.154701  0.000000 )  
               b(3) = (  0.000000  0.000000  0.613324 )  


     PseudoPot. # 1 for Na read from file:
     ./Na_pbe_v1.uspp.F.UPF
     MD5 check sum: 76a99c7e9422403d3e93cbc85ab7bccb
     Pseudo is Ultrasoft, Zval =  9.0
     Generated by new atomic code, or converted to UPF format
     Using radial grid of  819 points,  5 beta functions with: 
                l(1) =   0
                l(2) =   0
                l(3) =   1
                l(4) =   1
                l(5) =   2
     Q(r) pseudized with  8 coefficients,  rinner =    1.250   1.250   1.250
                                                       1.250   1.250

     atomic species   valence    mass     pseudopotential
        Na             9.00    22.99000     Na( 1.00)

     24 Sym. Ops., with inversion, found



   Cartesian axes

     site n.     atom                  positions (alat units)
         1           Na  tau(   1) = (   0.0000000   0.0000000   0.0000000  )
         2           Na  tau(   2) = (   0.5000000   0.2886751   0.8152300  )

     number of k points=  3600  Marzari-Vanderbilt smearing, width (Ry)=  0.0200

     Number of k-points >= 100: set verbosity='high' to print them.

     Dense  grid:    50221 G-vectors     FFT dimensions: (  45,  45,  72)

     Smooth grid:    17693 G-vectors     FFT dimensions: (  30,  30,  48)

     Largest allocated arrays     est. size (Mb)     dimensions
        Kohn-Sham Wavefunctions         0.06 Mb     (     299,   13)
        NL pseudopotentials             0.12 Mb     (     299,   26)
        Each V/rho on FFT grid          0.28 Mb     (   18225)
        Each G-vector array             0.05 Mb     (    6280)
        G-vector shells                 0.01 Mb     (    1774)
     Largest temporary arrays     est. size (Mb)     dimensions
        Auxiliary wavefunctions         0.24 Mb     (     299,   52)
        Each subspace H/S matrix        0.01 Mb     (      26,   26)
        Each <psi_i|beta_j> matrix      0.01 Mb     (      26,   13)

     The potential is recalculated from file :
     ./na_hcp_7.16/_ph0/na_hcp_7.16.save/charge-density.dat

     Starting wfc are   10 atomic +    3 random wfc

     Band Structure Calculation
     Davidson diagonalization with overlap

     ethr =  5.56E-11,  avg # of iterations = 23.2

     total cpu time spent up to now is       25.7 secs

     End of band structure calculation

     Number of k-points >= 100: set verbosity='high' to print the bands.

     the Fermi energy is     1.4601 ev

     Writing output data file na_hcp_7.16.save

                                                                                

     bravais-lattice index     =            4
     lattice parameter (alat)  =       7.1600  a.u.
     unit-cell volume          =     518.2984 (a.u.)^3
     number of atoms/cell      =            2
     number of atomic types    =            1
     kinetic-energy cut-off    =      40.0000  Ry
     charge density cut-off    =     320.0000  Ry
     convergence threshold     =      1.0E-15
     beta                      =       0.7000
     number of iterations used =            4
     Exchange-correlation      = SLA  PW   PBE  PBE ( 1  4  3  4 0 0)


     celldm(1)=    7.16000  celldm(2)=    0.00000  celldm(3)=    1.63046
     celldm(4)=    0.00000  celldm(5)=    0.00000  celldm(6)=    0.00000

     crystal axes: (cart. coord. in units of alat)
               a(1) = (  1.0000  0.0000  0.0000 )  
               a(2) = ( -0.5000  0.8660  0.0000 )  
               a(3) = (  0.0000  0.0000  1.6305 )  

     reciprocal axes: (cart. coord. in units 2 pi/alat)
               b(1) = (  1.0000  0.5774  0.0000 )  
               b(2) = (  0.0000  1.1547  0.0000 )  
               b(3) = (  0.0000  0.0000  0.6133 )  


     Atoms inside the unit cell: 

     Cartesian axes

     site n.  atom      mass           positions (alat units)
        1     Na  22.9900   tau(    1) = (    0.00000    0.00000    0.00000  )
        2     Na  22.9900   tau(    2) = (    0.50000    0.28868    0.81523  )

     Computing dynamical matrix for 
                    q = (   0.0000000   0.2886751   0.0000000 )
 
      4 Sym.Ops. (no q -> -q+G )


     G cutoff =  415.5433  (   6280 G-vectors)     FFT grid: ( 45, 45, 72)
     G cutoff =  207.7717  (   2214 G-vectors)  smooth grid: ( 30, 30, 48)

     number of k points=  3600  Marzari-Vanderbilt smearing, width (Ry)=  0.0200

     PseudoPot. # 1 for Na read from file:
     ./Na_pbe_v1.uspp.F.UPF
     MD5 check sum: 76a99c7e9422403d3e93cbc85ab7bccb
     Pseudo is Ultrasoft, Zval =  9.0
     Generated by new atomic code, or converted to UPF format
     Using radial grid of  819 points,  5 beta functions with: 
                l(1) =   0
                l(2) =   0
                l(3) =   1
                l(4) =   1
                l(5) =   2
     Q(r) pseudized with  8 coefficients,  rinner =    1.250   1.250   1.250
                                                       1.250   1.250

     Mode symmetry, C_2v (mm2)  point group:


     Atomic displacements:
     There are   6 irreducible representations

     Representation     1      1 modes -A_1  D_1  S_1  To be done

     Representation     2      1 modes -A_1  D_1  S_1  To be done

     Representation     3      1 modes -B_1  D_3  S_3  To be done

     Representation     4      1 modes -B_1  D_3  S_3  To be done

     Representation     5      1 modes -B_2  D_4  S_4  To be done

     Representation     6      1 modes -B_2  D_4  S_4  To be done



     Alpha used in Ewald sum =   2.8000
     PHONON       :  5m39.72s CPU     6m23.64s WALL



     Representation #  1 mode #   1

     Self-consistent Calculation

      iter #   1 total cpu time :   386.4 secs   av.it.:   5.7
      thresh= 1.000E-02 alpha_mix =  0.700 |ddv_scf|^2 =  5.222E-04

      iter #   2 total cpu time :   391.4 secs   av.it.:   7.3
      thresh= 2.285E-03 alpha_mix =  0.700 |ddv_scf|^2 =  1.913E-02

      iter #   3 total cpu time :   397.0 secs   av.it.:   5.3
      thresh= 1.000E-02 alpha_mix =  0.700 |ddv_scf|^2 =  4.456E-07

      iter #   4 total cpu time :   403.3 secs   av.it.:   8.2
      thresh= 6.676E-05 alpha_mix =  0.700 |ddv_scf|^2 =  2.680E-08

      iter #   5 total cpu time :   408.3 secs   av.it.:   8.3
      thresh= 1.637E-05 alpha_mix =  0.700 |ddv_scf|^2 =  6.526E-10

      iter #   6 total cpu time :   414.4 secs   av.it.:   8.7
      thresh= 2.555E-06 alpha_mix =  0.700 |ddv_scf|^2 =  1.311E-10

      iter #   7 total cpu time :   419.0 secs   av.it.:   8.0
      thresh= 1.145E-06 alpha_mix =  0.700 |ddv_scf|^2 =  1.535E-09

      iter #   8 total cpu time :   425.6 secs   av.it.:   6.6
      thresh= 3.918E-06 alpha_mix =  0.700 |ddv_scf|^2 =  2.477E-12

      iter #   9 total cpu time :   430.8 secs   av.it.:   8.8
      thresh= 1.574E-07 alpha_mix =  0.700 |ddv_scf|^2 =  4.613E-13

      iter #  10 total cpu time :   436.9 secs   av.it.:   7.7
      thresh= 6.792E-08 alpha_mix =  0.700 |ddv_scf|^2 =  1.947E-12

      iter #  11 total cpu time :   441.6 secs   av.it.:   6.9
      thresh= 1.395E-07 alpha_mix =  0.700 |ddv_scf|^2 =  1.523E-15

      iter #  12 total cpu time :   446.7 secs   av.it.:   8.9
      thresh= 3.902E-09 alpha_mix =  0.700 |ddv_scf|^2 =  8.808E-17

     End of self-consistent calculation

     Convergence has been achieved 


     Representation #  2 mode #   2

     Self-consistent Calculation

      iter #   1 total cpu time :   453.3 secs   av.it.:   5.7
      thresh= 1.000E-02 alpha_mix =  0.700 |ddv_scf|^2 =  5.222E-04

      iter #   2 total cpu time :   459.7 secs   av.it.:   7.3
      thresh= 2.285E-03 alpha_mix =  0.700 |ddv_scf|^2 =  1.913E-02

      iter #   3 total cpu time :   468.7 secs   av.it.:   5.3
      thresh= 1.000E-02 alpha_mix =  0.700 |ddv_scf|^2 =  4.456E-07

      iter #   4 total cpu time :   479.2 secs   av.it.:   8.2
      thresh= 6.676E-05 alpha_mix =  0.700 |ddv_scf|^2 =  2.680E-08

      iter #   5 total cpu time :   489.9 secs   av.it.:   8.3
      thresh= 1.637E-05 alpha_mix =  0.700 |ddv_scf|^2 =  6.530E-10

      iter #   6 total cpu time :   499.9 secs   av.it.:   8.7
      thresh= 2.555E-06 alpha_mix =  0.700 |ddv_scf|^2 =  1.526E-10

      iter #   7 total cpu time :   510.0 secs   av.it.:   7.9
      thresh= 1.235E-06 alpha_mix =  0.700 |ddv_scf|^2 =  1.543E-09

      iter #   8 total cpu time :   519.0 secs   av.it.:   6.7
      thresh= 3.928E-06 alpha_mix =  0.700 |ddv_scf|^2 =  2.344E-12

      iter #   9 total cpu time :   529.8 secs   av.it.:   8.8
      thresh= 1.531E-07 alpha_mix =  0.700 |ddv_scf|^2 =  4.631E-13

      iter #  10 total cpu time :   537.2 secs   av.it.:   7.7
      thresh= 6.805E-08 alpha_mix =  0.700 |ddv_scf|^2 =  1.933E-12

      iter #  11 total cpu time :   547.0 secs   av.it.:   6.9
      thresh= 1.390E-07 alpha_mix =  0.700 |ddv_scf|^2 =  1.523E-15

      iter #  12 total cpu time :   554.0 secs   av.it.:   8.9
      thresh= 3.903E-09 alpha_mix =  0.700 |ddv_scf|^2 =  8.785E-17

     End of self-consistent calculation

     Convergence has been achieved 


     Representation #  3 mode #   3

     Self-consistent Calculation

      iter #   1 total cpu time :   561.5 secs   av.it.:   5.3
      thresh= 1.000E-02 alpha_mix =  0.700 |ddv_scf|^2 =  3.054E-06

      iter #   2 total cpu time :   570.5 secs   av.it.:   8.3
      thresh= 1.748E-04 alpha_mix =  0.700 |ddv_scf|^2 =  4.902E-08

      iter #   3 total cpu time :   598.9 secs   av.it.:   8.7
      thresh= 2.214E-05 alpha_mix =  0.700 |ddv_scf|^2 =  2.303E-09

      iter #   4 total cpu time :   609.5 secs   av.it.:   8.2
      thresh= 4.799E-06 alpha_mix =  0.700 |ddv_scf|^2 =  1.364E-11

      iter #   5 total cpu time :   622.7 secs   av.it.:   8.3
      thresh= 3.694E-07 alpha_mix =  0.700 |ddv_scf|^2 =  1.031E-13

      iter #   6 total cpu time :   634.1 secs   av.it.:   8.7
      thresh= 3.211E-08 alpha_mix =  0.700 |ddv_scf|^2 =  3.701E-16

     End of self-consistent calculation

     Convergence has been achieved 


     Representation #  4 mode #   4

     Self-consistent Calculation

      iter #   1 total cpu time :   641.0 secs   av.it.:   5.3
      thresh= 1.000E-02 alpha_mix =  0.700 |ddv_scf|^2 =  3.054E-06

      iter #   2 total cpu time :   649.7 secs   av.it.:   8.3
      thresh= 1.748E-04 alpha_mix =  0.700 |ddv_scf|^2 =  4.902E-08

      iter #   3 total cpu time :   658.1 secs   av.it.:   8.6
      thresh= 2.214E-05 alpha_mix =  0.700 |ddv_scf|^2 =  2.303E-09

      iter #   4 total cpu time :   666.9 secs   av.it.:   8.2
      thresh= 4.799E-06 alpha_mix =  0.700 |ddv_scf|^2 =  1.364E-11

      iter #   5 total cpu time :   670.8 secs   av.it.:   8.3
      thresh= 3.694E-07 alpha_mix =  0.700 |ddv_scf|^2 =  1.031E-13

      iter #   6 total cpu time :   677.7 secs   av.it.:   8.7
      thresh= 3.211E-08 alpha_mix =  0.700 |ddv_scf|^2 =  3.701E-16

     End of self-consistent calculation

     Convergence has been achieved 


     Representation #  5 mode #   5

     Self-consistent Calculation

      iter #   1 total cpu time :   683.5 secs   av.it.:   5.5
      thresh= 1.000E-02 alpha_mix =  0.700 |ddv_scf|^2 =  8.322E-06

      iter #   2 total cpu time :   696.8 secs   av.it.:   8.4
      thresh= 2.885E-04 alpha_mix =  0.700 |ddv_scf|^2 =  1.771E-06

      iter #   3 total cpu time :   706.5 secs   av.it.:   7.7
      thresh= 1.331E-04 alpha_mix =  0.700 |ddv_scf|^2 =  1.041E-08

      iter #   4 total cpu time :   717.8 secs   av.it.:   8.8
      thresh= 1.021E-05 alpha_mix =  0.700 |ddv_scf|^2 =  3.661E-10

      iter #   5 total cpu time :   724.4 secs   av.it.:   8.2
      thresh= 1.913E-06 alpha_mix =  0.700 |ddv_scf|^2 =  2.134E-12

      iter #   6 total cpu time :   733.5 secs   av.it.:   8.6
      thresh= 1.461E-07 alpha_mix =  0.700 |ddv_scf|^2 =  1.140E-14

      iter #   7 total cpu time :   741.1 secs   av.it.:   8.4
      thresh= 1.068E-08 alpha_mix =  0.700 |ddv_scf|^2 =  5.335E-16

     End of self-consistent calculation

     Convergence has been achieved 


     Representation #  6 mode #   6

     Self-consistent Calculation

      iter #   1 total cpu time :   749.4 secs   av.it.:   5.5
      thresh= 1.000E-02 alpha_mix =  0.700 |ddv_scf|^2 =  8.322E-06

      iter #   2 total cpu time :   757.5 secs   av.it.:   8.4
      thresh= 2.885E-04 alpha_mix =  0.700 |ddv_scf|^2 =  1.771E-06

      iter #   3 total cpu time :   763.2 secs   av.it.:   7.7
      thresh= 1.331E-04 alpha_mix =  0.700 |ddv_scf|^2 =  1.041E-08

      iter #   4 total cpu time :   770.5 secs   av.it.:   8.8
      thresh= 1.021E-05 alpha_mix =  0.700 |ddv_scf|^2 =  3.661E-10

      iter #   5 total cpu time :   778.7 secs   av.it.:   8.2
      thresh= 1.913E-06 alpha_mix =  0.700 |ddv_scf|^2 =  2.134E-12

      iter #   6 total cpu time :   797.1 secs   av.it.:   8.6
      thresh= 1.461E-07 alpha_mix =  0.700 |ddv_scf|^2 =  1.140E-14

      iter #   7 total cpu time :   813.8 secs   av.it.:   8.4
      thresh= 1.068E-08 alpha_mix =  0.700 |ddv_scf|^2 =  5.335E-16

     End of self-consistent calculation

     Convergence has been achieved 
 
     Number of q in the star =    6
     List of q in the star:
          1   0.000000000   0.288675135   0.000000000
          2  -0.250000000   0.144337567   0.000000000
          3   0.250000000  -0.144337567   0.000000000
          4  -0.250000000  -0.144337567   0.000000000
          5   0.250000000   0.144337567   0.000000000
          6   0.000000000  -0.288675135   0.000000000

     Diagonalizing the dynamical matrix

     q = (    0.000000000   0.288675135   0.000000000 ) 

 **************************************************************************
     freq (    1) =       1.120008 [THz] =      37.359438 [cm-1]
     freq (    2) =       1.343815 [THz] =      44.824855 [cm-1]
     freq (    3) =       2.275353 [THz] =      75.897614 [cm-1]
     freq (    4) =       2.370960 [THz] =      79.086708 [cm-1]
     freq (    5) =       2.891283 [THz] =      96.442831 [cm-1]
     freq (    6) =       3.425672 [THz] =     114.268102 [cm-1]
 **************************************************************************

     Mode symmetry, C_2v (mm2)  point group:

     freq (  1 -  1) =         37.4  [cm-1]   --> B_1  D_3  S_3      
     freq (  2 -  2) =         44.8  [cm-1]   --> B_2  D_4  S_4      
     freq (  3 -  3) =         75.9  [cm-1]   --> B_1  D_3  S_3      
     freq (  4 -  4) =         79.1  [cm-1]   --> A_1  D_1  S_1      
     freq (  5 -  5) =         96.4  [cm-1]   --> A_1  D_1  S_1      
     freq (  6 -  6) =        114.3  [cm-1]   --> B_2  D_4  S_4      

     Calculation of q =    0.0000000   0.2886751   0.1533310
 
     Parallelization info
     --------------------
     sticks:   dense  smooth     PW     G-vecs:    dense   smooth      PW
     Min         141      69     23                 6273     2204     411
     Max         142      70     24                 6280     2216     416
     Sum        1135     559    187                50221    17693    3309
 


     bravais-lattice index     =            4
     lattice parameter (alat)  =       7.1600  a.u.
     unit-cell volume          =     518.2984 (a.u.)^3
     number of atoms/cell      =            2
     number of atomic types    =            1
     number of electrons       =        18.00
     number of Kohn-Sham states=           13
     kinetic-energy cutoff     =      40.0000  Ry
     charge density cutoff     =     320.0000  Ry
     Exchange-correlation      = SLA  PW   PBE  PBE ( 1  4  3  4 0 0)

     celldm(1)=   7.160000  celldm(2)=   0.000000  celldm(3)=   1.630460
     celldm(4)=   0.000000  celldm(5)=   0.000000  celldm(6)=   0.000000

     crystal axes: (cart. coord. in units of alat)
               a(1) = (   1.000000   0.000000   0.000000 )  
               a(2) = (  -0.500000   0.866025   0.000000 )  
               a(3) = (   0.000000   0.000000   1.630460 )  

     reciprocal axes: (cart. coord. in units 2 pi/alat)
               b(1) = (  1.000000  0.577350  0.000000 )  
               b(2) = (  0.000000  1.154701  0.000000 )  
               b(3) = (  0.000000  0.000000  0.613324 )  


     PseudoPot. # 1 for Na read from file:
     ./Na_pbe_v1.uspp.F.UPF
     MD5 check sum: 76a99c7e9422403d3e93cbc85ab7bccb
     Pseudo is Ultrasoft, Zval =  9.0
     Generated by new atomic code, or converted to UPF format
     Using radial grid of  819 points,  5 beta functions with: 
                l(1) =   0
                l(2) =   0
                l(3) =   1
                l(4) =   1
                l(5) =   2
     Q(r) pseudized with  8 coefficients,  rinner =    1.250   1.250   1.250
                                                       1.250   1.250

     atomic species   valence    mass     pseudopotential
        Na             9.00    22.99000     Na( 1.00)

     24 Sym. Ops., with inversion, found



   Cartesian axes

     site n.     atom                  positions (alat units)
         1           Na  tau(   1) = (   0.0000000   0.0000000   0.0000000  )
         2           Na  tau(   2) = (   0.5000000   0.2886751   0.8152300  )

     number of k points=  7200  Marzari-Vanderbilt smearing, width (Ry)=  0.0200

     Number of k-points >= 100: set verbosity='high' to print them.

     Dense  grid:    50221 G-vectors     FFT dimensions: (  45,  45,  72)

     Smooth grid:    17693 G-vectors     FFT dimensions: (  30,  30,  48)

     Largest allocated arrays     est. size (Mb)     dimensions
        Kohn-Sham Wavefunctions         0.06 Mb     (     301,   13)
        NL pseudopotentials             0.12 Mb     (     301,   26)
        Each V/rho on FFT grid          0.28 Mb     (   18225)
        Each G-vector array             0.05 Mb     (    6280)
        G-vector shells                 0.01 Mb     (    1772)
     Largest temporary arrays     est. size (Mb)     dimensions
        Auxiliary wavefunctions         0.24 Mb     (     301,   52)
        Each subspace H/S matrix        0.01 Mb     (      26,   26)
        Each <psi_i|beta_j> matrix      0.01 Mb     (      26,   13)

     The potential is recalculated from file :
     ./na_hcp_7.16/_ph0/na_hcp_7.16.save/charge-density.dat

     Starting wfc are   10 atomic +    3 random wfc

     Band Structure Calculation
     Davidson diagonalization with overlap

     ethr =  5.56E-11,  avg # of iterations = 23.2

     total cpu time spent up to now is       55.0 secs

     End of band structure calculation

     Number of k-points >= 100: set verbosity='high' to print the bands.

     the Fermi energy is     1.4601 ev

     Writing output data file na_hcp_7.16.save

                                                                                

     bravais-lattice index     =            4
     lattice parameter (alat)  =       7.1600  a.u.
     unit-cell volume          =     518.2984 (a.u.)^3
     number of atoms/cell      =            2
     number of atomic types    =            1
     kinetic-energy cut-off    =      40.0000  Ry
     charge density cut-off    =     320.0000  Ry
     convergence threshold     =      1.0E-15
     beta                      =       0.7000
     number of iterations used =            4
     Exchange-correlation      = SLA  PW   PBE  PBE ( 1  4  3  4 0 0)


     celldm(1)=    7.16000  celldm(2)=    0.00000  celldm(3)=    1.63046
     celldm(4)=    0.00000  celldm(5)=    0.00000  celldm(6)=    0.00000

     crystal axes: (cart. coord. in units of alat)
               a(1) = (  1.0000  0.0000  0.0000 )  
               a(2) = ( -0.5000  0.8660  0.0000 )  
               a(3) = (  0.0000  0.0000  1.6305 )  

     reciprocal axes: (cart. coord. in units 2 pi/alat)
               b(1) = (  1.0000  0.5774  0.0000 )  
               b(2) = (  0.0000  1.1547  0.0000 )  
               b(3) = (  0.0000  0.0000  0.6133 )  


     Atoms inside the unit cell: 

     Cartesian axes

     site n.  atom      mass           positions (alat units)
        1     Na  22.9900   tau(    1) = (    0.00000    0.00000    0.00000  )
        2     Na  22.9900   tau(    2) = (    0.50000    0.28868    0.81523  )

     Computing dynamical matrix for 
                    q = (   0.0000000   0.2886751   0.1533310 )
 
      2 Sym.Ops. (no q -> -q+G )


     G cutoff =  415.5433  (   6280 G-vectors)     FFT grid: ( 45, 45, 72)
     G cutoff =  207.7717  (   2212 G-vectors)  smooth grid: ( 30, 30, 48)

     number of k points=  7200  Marzari-Vanderbilt smearing, width (Ry)=  0.0200

     PseudoPot. # 1 for Na read from file:
     ./Na_pbe_v1.uspp.F.UPF
     MD5 check sum: 76a99c7e9422403d3e93cbc85ab7bccb
     Pseudo is Ultrasoft, Zval =  9.0
     Generated by new atomic code, or converted to UPF format
     Using radial grid of  819 points,  5 beta functions with: 
                l(1) =   0
                l(2) =   0
                l(3) =   1
                l(4) =   1
                l(5) =   2
     Q(r) pseudized with  8 coefficients,  rinner =    1.250   1.250   1.250
                                                       1.250   1.250

     Mode symmetry, C_s (m)     point group:


     Atomic displacements:
     There are   6 irreducible representations

     Representation     1      1 modes -A'  To be done

     Representation     2      1 modes -A'  To be done

     Representation     3      1 modes -A'  To be done

     Representation     4      1 modes -A'  To be done

     Representation     5      1 modes -A''  To be done

     Representation     6      1 modes -A''  To be done



     Alpha used in Ewald sum =   2.8000
     PHONON       : 13m 4.03s CPU    14m12.90s WALL



     Representation #  1 mode #   1

     Self-consistent Calculation

      iter #   1 total cpu time :   856.2 secs   av.it.:   5.7
      thresh= 1.000E-02 alpha_mix =  0.700 |ddv_scf|^2 =  2.043E-04

      iter #   2 total cpu time :   879.1 secs   av.it.:   7.6
      thresh= 1.429E-03 alpha_mix =  0.700 |ddv_scf|^2 =  4.144E-03

      iter #   3 total cpu time :   889.5 secs   av.it.:   5.5
      thresh= 6.438E-03 alpha_mix =  0.700 |ddv_scf|^2 =  1.898E-06

      iter #   4 total cpu time :   904.0 secs   av.it.:   7.8
      thresh= 1.378E-04 alpha_mix =  0.700 |ddv_scf|^2 =  2.750E-07

      iter #   5 total cpu time :   924.0 secs   av.it.:   7.8
      thresh= 5.244E-05 alpha_mix =  0.700 |ddv_scf|^2 =  1.211E-09

      iter #   6 total cpu time :   938.0 secs   av.it.:   8.7
      thresh= 3.480E-06 alpha_mix =  0.700 |ddv_scf|^2 =  5.724E-11

      iter #   7 total cpu time :   952.6 secs   av.it.:   8.7
      thresh= 7.566E-07 alpha_mix =  0.700 |ddv_scf|^2 =  1.314E-11

      iter #   8 total cpu time :   961.0 secs   av.it.:   8.1
      thresh= 3.624E-07 alpha_mix =  0.700 |ddv_scf|^2 =  4.996E-11

      iter #   9 total cpu time :  1001.6 secs   av.it.:   7.3
      thresh= 7.068E-07 alpha_mix =  0.700 |ddv_scf|^2 =  2.118E-13

      iter #  10 total cpu time :  1023.4 secs   av.it.:   8.8
      thresh= 4.602E-08 alpha_mix =  0.700 |ddv_scf|^2 =  1.089E-13

      iter #  11 total cpu time :  1043.0 secs   av.it.:   7.7
      thresh= 3.300E-08 alpha_mix =  0.700 |ddv_scf|^2 =  5.050E-14

      iter #  12 total cpu time :  1058.4 secs   av.it.:   7.7
      thresh= 2.247E-08 alpha_mix =  0.700 |ddv_scf|^2 =  2.595E-14

      iter #  13 total cpu time :  1075.7 secs   av.it.:   7.6
      thresh= 1.611E-08 alpha_mix =  0.700 |ddv_scf|^2 =  5.009E-16

     End of self-consistent calculation

     Convergence has been achieved 


     Representation #  2 mode #   2

     Self-consistent Calculation

      iter #   1 total cpu time :  1087.8 secs   av.it.:   5.7
      thresh= 1.000E-02 alpha_mix =  0.700 |ddv_scf|^2 =  3.496E-05

      iter #   2 total cpu time :  1100.2 secs   av.it.:   8.0
      thresh= 5.913E-04 alpha_mix =  0.700 |ddv_scf|^2 =  4.329E-04

      iter #   3 total cpu time :  1112.4 secs   av.it.:   5.9
      thresh= 2.081E-03 alpha_mix =  0.700 |ddv_scf|^2 =  1.392E-05

      iter #   4 total cpu time :  1124.7 secs   av.it.:   7.2
      thresh= 3.731E-04 alpha_mix =  0.700 |ddv_scf|^2 =  6.810E-08

      iter #   5 total cpu time :  1141.3 secs   av.it.:   8.6
      thresh= 2.610E-05 alpha_mix =  0.700 |ddv_scf|^2 =  7.787E-10

      iter #   6 total cpu time :  1154.1 secs   av.it.:   8.9
      thresh= 2.790E-06 alpha_mix =  0.700 |ddv_scf|^2 =  6.358E-11

      iter #   7 total cpu time :  1179.0 secs   av.it.:   8.8
      thresh= 7.974E-07 alpha_mix =  0.700 |ddv_scf|^2 =  5.418E-11

      iter #   8 total cpu time :  1191.4 secs   av.it.:   7.7
      thresh= 7.361E-07 alpha_mix =  0.700 |ddv_scf|^2 =  1.363E-10

      iter #   9 total cpu time :  1205.8 secs   av.it.:   7.0
      thresh= 1.168E-06 alpha_mix =  0.700 |ddv_scf|^2 =  4.919E-12

      iter #  10 total cpu time :  1221.4 secs   av.it.:   7.6
      thresh= 2.218E-07 alpha_mix =  0.700 |ddv_scf|^2 =  2.289E-12

      iter #  11 total cpu time :  1236.4 secs   av.it.:   7.6
      thresh= 1.513E-07 alpha_mix =  0.700 |ddv_scf|^2 =  2.897E-14

      iter #  12 total cpu time :  1254.1 secs   av.it.:   7.9
      thresh= 1.702E-08 alpha_mix =  0.700 |ddv_scf|^2 =  2.720E-15

      iter #  13 total cpu time :  1271.1 secs   av.it.:   8.8
      thresh= 5.215E-09 alpha_mix =  0.700 |ddv_scf|^2 =  8.263E-17

     End of self-consistent calculation

     Convergence has been achieved 


     Representation #  3 mode #   3

     Self-consistent Calculation

      iter #   1 total cpu time :  1286.1 secs   av.it.:   5.8
      thresh= 1.000E-02 alpha_mix =  0.700 |ddv_scf|^2 =  2.340E-04

      iter #   2 total cpu time :  1299.7 secs   av.it.:   7.6
      thresh= 1.530E-03 alpha_mix =  0.700 |ddv_scf|^2 =  4.811E-03

      iter #   3 total cpu time :  1319.2 secs   av.it.:   5.5
      thresh= 6.936E-03 alpha_mix =  0.700 |ddv_scf|^2 =  6.121E-07

      iter #   4 total cpu time :  1331.2 secs   av.it.:   8.0
      thresh= 7.824E-05 alpha_mix =  0.700 |ddv_scf|^2 =  2.879E-07

      iter #   5 total cpu time :  1348.1 secs   av.it.:   7.7
      thresh= 5.366E-05 alpha_mix =  0.700 |ddv_scf|^2 =  1.503E-09

      iter #   6 total cpu time :  1360.9 secs   av.it.:   8.7
      thresh= 3.876E-06 alpha_mix =  0.700 |ddv_scf|^2 =  7.273E-11

      iter #   7 total cpu time :  1389.5 secs   av.it.:   8.6
      thresh= 8.528E-07 alpha_mix =  0.700 |ddv_scf|^2 =  2.075E-12

      iter #   8 total cpu time :  1409.2 secs   av.it.:   9.2
      thresh= 1.440E-07 alpha_mix =  0.700 |ddv_scf|^2 =  6.292E-12

      iter #   9 total cpu time :  1423.6 secs   av.it.:   7.4
      thresh= 2.508E-07 alpha_mix =  0.700 |ddv_scf|^2 =  2.640E-12

      iter #  10 total cpu time :  1441.5 secs   av.it.:   7.7
      thresh= 1.625E-07 alpha_mix =  0.700 |ddv_scf|^2 =  2.954E-13

      iter #  11 total cpu time :  1466.7 secs   av.it.:   7.4
      thresh= 5.435E-08 alpha_mix =  0.700 |ddv_scf|^2 =  2.157E-14

      iter #  12 total cpu time :  1478.8 secs   av.it.:   8.0
      thresh= 1.469E-08 alpha_mix =  0.700 |ddv_scf|^2 =  6.987E-16

     End of self-consistent calculation

     Convergence has been achieved 


     Representation #  4 mode #   4

     Self-consistent Calculation

      iter #   1 total cpu time :  1495.1 secs   av.it.:   5.7
      thresh= 1.000E-02 alpha_mix =  0.700 |ddv_scf|^2 =  6.463E-05

      iter #   2 total cpu time :  1504.3 secs   av.it.:   7.8
      thresh= 8.040E-04 alpha_mix =  0.700 |ddv_scf|^2 =  1.099E-03

      iter #   3 total cpu time :  1518.6 secs   av.it.:   5.7
      thresh= 3.316E-03 alpha_mix =  0.700 |ddv_scf|^2 =  6.936E-06

      iter #   4 total cpu time :  1537.5 secs   av.it.:   7.5
      thresh= 2.634E-04 alpha_mix =  0.700 |ddv_scf|^2 =  1.071E-07

      iter #   5 total cpu time :  1550.4 secs   av.it.:   8.2
      thresh= 3.272E-05 alpha_mix =  0.700 |ddv_scf|^2 =  8.795E-10

      iter #   6 total cpu time :  1573.1 secs   av.it.:   8.9
      thresh= 2.966E-06 alpha_mix =  0.700 |ddv_scf|^2 =  7.412E-11

      iter #   7 total cpu time :  1588.8 secs   av.it.:   8.7
      thresh= 8.610E-07 alpha_mix =  0.700 |ddv_scf|^2 =  1.560E-11

      iter #   8 total cpu time :  1604.4 secs   av.it.:   8.5
      thresh= 3.949E-07 alpha_mix =  0.700 |ddv_scf|^2 =  1.721E-10

      iter #   9 total cpu time :  1614.4 secs   av.it.:   6.5
      thresh= 1.312E-06 alpha_mix =  0.700 |ddv_scf|^2 =  9.065E-13

      iter #  10 total cpu time :  1636.7 secs   av.it.:   7.9
      thresh= 9.521E-08 alpha_mix =  0.700 |ddv_scf|^2 =  3.538E-12

      iter #  11 total cpu time :  1645.8 secs   av.it.:   7.1
      thresh= 1.881E-07 alpha_mix =  0.700 |ddv_scf|^2 =  1.353E-14

      iter #  12 total cpu time :  1662.1 secs   av.it.:   8.4
      thresh= 1.163E-08 alpha_mix =  0.700 |ddv_scf|^2 =  5.495E-15

      iter #  13 total cpu time :  1675.9 secs   av.it.:   8.1
      thresh= 7.413E-09 alpha_mix =  0.700 |ddv_scf|^2 =  1.830E-16

     End of self-consistent calculation

     Convergence has been achieved 


     Representation #  5 mode #   5

     Self-consistent Calculation

      iter #   1 total cpu time :  1684.2 secs   av.it.:   5.3
      thresh= 1.000E-02 alpha_mix =  0.700 |ddv_scf|^2 =  3.047E-06

      iter #   2 total cpu time :  1707.8 secs   av.it.:   8.4
      thresh= 1.746E-04 alpha_mix =  0.700 |ddv_scf|^2 =  4.885E-08

      iter #   3 total cpu time :  1716.9 secs   av.it.:   8.7
      thresh= 2.210E-05 alpha_mix =  0.700 |ddv_scf|^2 =  2.315E-09

      iter #   4 total cpu time :  1737.2 secs   av.it.:   8.1
      thresh= 4.812E-06 alpha_mix =  0.700 |ddv_scf|^2 =  1.067E-11

      iter #   5 total cpu time :  1752.7 secs   av.it.:   8.4
      thresh= 3.267E-07 alpha_mix =  0.700 |ddv_scf|^2 =  7.579E-14

      iter #   6 total cpu time :  1785.5 secs   av.it.:   8.7
      thresh= 2.753E-08 alpha_mix =  0.700 |ddv_scf|^2 =  3.506E-16

     End of self-consistent calculation

     Convergence has been achieved 


     Representation #  6 mode #   6

     Self-consistent Calculation

      iter #   1 total cpu time :  1800.6 secs   av.it.:   5.3
      thresh= 1.000E-02 alpha_mix =  0.700 |ddv_scf|^2 =  3.047E-06

      iter #   2 total cpu time :  1818.2 secs   av.it.:   8.4
      thresh= 1.746E-04 alpha_mix =  0.700 |ddv_scf|^2 =  4.885E-08

      iter #   3 total cpu time :  1834.6 secs   av.it.:   8.7
      thresh= 2.210E-05 alpha_mix =  0.700 |ddv_scf|^2 =  2.315E-09

      iter #   4 total cpu time :  1851.5 secs   av.it.:   8.1
      thresh= 4.812E-06 alpha_mix =  0.700 |ddv_scf|^2 =  1.067E-11

      iter #   5 total cpu time :  1870.9 secs   av.it.:   8.4
      thresh= 3.267E-07 alpha_mix =  0.700 |ddv_scf|^2 =  7.579E-14

      iter #   6 total cpu time :  1895.8 secs   av.it.:   8.7
      thresh= 2.753E-08 alpha_mix =  0.700 |ddv_scf|^2 =  3.506E-16

     End of self-consistent calculation

     Convergence has been achieved 
 
     Number of q in the star =   12
     List of q in the star:
          1   0.000000000   0.288675135   0.153330962
          2   0.000000000   0.288675135  -0.153330962
          3  -0.250000000   0.144337567   0.153330962
          4   0.250000000  -0.144337567   0.153330962
          5  -0.250000000  -0.144337567   0.153330962
          6   0.250000000   0.144337567   0.153330962
          7   0.000000000  -0.288675135   0.153330962
          8   0.000000000  -0.288675135  -0.153330962
          9   0.250000000   0.144337567  -0.153330962
         10   0.250000000  -0.144337567  -0.153330962
         11  -0.250000000  -0.144337567  -0.153330962
         12  -0.250000000   0.144337567  -0.153330962

     Diagonalizing the dynamical matrix

     q = (    0.000000000   0.288675135   0.153330962 ) 

 **************************************************************************
     freq (    1) =       1.347195 [THz] =      44.937594 [cm-1]
     freq (    2) =       1.544384 [THz] =      51.515103 [cm-1]
     freq (    3) =       2.156065 [THz] =      71.918589 [cm-1]
     freq (    4) =       2.585513 [THz] =      86.243433 [cm-1]
     freq (    5) =       2.721523 [THz] =      90.780228 [cm-1]
     freq (    6) =       3.351525 [THz] =     111.794842 [cm-1]
 **************************************************************************

     Mode symmetry, C_s (m)     point group:

     freq (  1 -  1) =         44.9  [cm-1]   --> A''                
     freq (  2 -  2) =         51.5  [cm-1]   --> A'                 
     freq (  3 -  3) =         71.9  [cm-1]   --> A''                
     freq (  4 -  4) =         86.2  [cm-1]   --> A'                 
     freq (  5 -  5) =         90.8  [cm-1]   --> A'                 
     freq (  6 -  6) =        111.8  [cm-1]   --> A'                 

     Calculation of q =    0.0000000   0.2886751  -0.3066619
 
     Parallelization info
     --------------------
     sticks:   dense  smooth     PW     G-vecs:    dense   smooth      PW
     Min         141      69     22                 6273     2203     407
     Max         142      70     24                 6280     2214     412
     Sum        1135     559    187                50221    17693    3285
 


     bravais-lattice index     =            4
     lattice parameter (alat)  =       7.1600  a.u.
     unit-cell volume          =     518.2984 (a.u.)^3
     number of atoms/cell      =            2
     number of atomic types    =            1
     number of electrons       =        18.00
     number of Kohn-Sham states=           13
     kinetic-energy cutoff     =      40.0000  Ry
     charge density cutoff     =     320.0000  Ry
     Exchange-correlation      = SLA  PW   PBE  PBE ( 1  4  3  4 0 0)

     celldm(1)=   7.160000  celldm(2)=   0.000000  celldm(3)=   1.630460
     celldm(4)=   0.000000  celldm(5)=   0.000000  celldm(6)=   0.000000

     crystal axes: (cart. coord. in units of alat)
               a(1) = (   1.000000   0.000000   0.000000 )  
               a(2) = (  -0.500000   0.866025   0.000000 )  
               a(3) = (   0.000000   0.000000   1.630460 )  

     reciprocal axes: (cart. coord. in units 2 pi/alat)
               b(1) = (  1.000000  0.577350  0.000000 )  
               b(2) = (  0.000000  1.154701  0.000000 )  
               b(3) = (  0.000000  0.000000  0.613324 )  


     PseudoPot. # 1 for Na read from file:
     ./Na_pbe_v1.uspp.F.UPF
     MD5 check sum: 76a99c7e9422403d3e93cbc85ab7bccb
     Pseudo is Ultrasoft, Zval =  9.0
     Generated by new atomic code, or converted to UPF format
     Using radial grid of  819 points,  5 beta functions with: 
                l(1) =   0
                l(2) =   0
                l(3) =   1
                l(4) =   1
                l(5) =   2
     Q(r) pseudized with  8 coefficients,  rinner =    1.250   1.250   1.250
                                                       1.250   1.250

     atomic species   valence    mass     pseudopotential
        Na             9.00    22.99000     Na( 1.00)

     24 Sym. Ops., with inversion, found



   Cartesian axes

     site n.     atom                  positions (alat units)
         1           Na  tau(   1) = (   0.0000000   0.0000000   0.0000000  )
         2           Na  tau(   2) = (   0.5000000   0.2886751   0.8152300  )

     number of k points=  3600  Marzari-Vanderbilt smearing, width (Ry)=  0.0200

     Number of k-points >= 100: set verbosity='high' to print them.

     Dense  grid:    50221 G-vectors     FFT dimensions: (  45,  45,  72)

     Smooth grid:    17693 G-vectors     FFT dimensions: (  30,  30,  48)

     Largest allocated arrays     est. size (Mb)     dimensions
        Kohn-Sham Wavefunctions         0.06 Mb     (     299,   13)
        NL pseudopotentials             0.12 Mb     (     299,   26)
        Each V/rho on FFT grid          0.28 Mb     (   18225)
        Each G-vector array             0.05 Mb     (    6280)
        G-vector shells                 0.01 Mb     (    1774)
     Largest temporary arrays     est. size (Mb)     dimensions
        Auxiliary wavefunctions         0.24 Mb     (     299,   52)
        Each subspace H/S matrix        0.01 Mb     (      26,   26)
        Each <psi_i|beta_j> matrix      0.01 Mb     (      26,   13)

     The potential is recalculated from file :
     ./na_hcp_7.16/_ph0/na_hcp_7.16.save/charge-density.dat

     Starting wfc are   10 atomic +    3 random wfc

     Band Structure Calculation
     Davidson diagonalization with overlap

     ethr =  5.56E-11,  avg # of iterations = 23.2

     total cpu time spent up to now is       76.9 secs

     End of band structure calculation

     Number of k-points >= 100: set verbosity='high' to print the bands.

     the Fermi energy is     1.4601 ev

     Writing output data file na_hcp_7.16.save

                                                                                

     bravais-lattice index     =            4
     lattice parameter (alat)  =       7.1600  a.u.
     unit-cell volume          =     518.2984 (a.u.)^3
     number of atoms/cell      =            2
     number of atomic types    =            1
     kinetic-energy cut-off    =      40.0000  Ry
     charge density cut-off    =     320.0000  Ry
     convergence threshold     =      1.0E-15
     beta                      =       0.7000
     number of iterations used =            4
     Exchange-correlation      = SLA  PW   PBE  PBE ( 1  4  3  4 0 0)


     celldm(1)=    7.16000  celldm(2)=    0.00000  celldm(3)=    1.63046
     celldm(4)=    0.00000  celldm(5)=    0.00000  celldm(6)=    0.00000

     crystal axes: (cart. coord. in units of alat)
               a(1) = (  1.0000  0.0000  0.0000 )  
               a(2) = ( -0.5000  0.8660  0.0000 )  
               a(3) = (  0.0000  0.0000  1.6305 )  

     reciprocal axes: (cart. coord. in units 2 pi/alat)
               b(1) = (  1.0000  0.5774  0.0000 )  
               b(2) = (  0.0000  1.1547  0.0000 )  
               b(3) = (  0.0000  0.0000  0.6133 )  


     Atoms inside the unit cell: 

     Cartesian axes

     site n.  atom      mass           positions (alat units)
        1     Na  22.9900   tau(    1) = (    0.00000    0.00000    0.00000  )
        2     Na  22.9900   tau(    2) = (    0.50000    0.28868    0.81523  )

     Computing dynamical matrix for 
                    q = (   0.0000000   0.2886751  -0.3066619 )
 
      4 Sym.Ops. (no q -> -q+G )


     G cutoff =  415.5433  (   6280 G-vectors)     FFT grid: ( 45, 45, 72)
     G cutoff =  207.7717  (   2214 G-vectors)  smooth grid: ( 30, 30, 48)

     number of k points=  3600  Marzari-Vanderbilt smearing, width (Ry)=  0.0200

     PseudoPot. # 1 for Na read from file:
     ./Na_pbe_v1.uspp.F.UPF
     MD5 check sum: 76a99c7e9422403d3e93cbc85ab7bccb
     Pseudo is Ultrasoft, Zval =  9.0
     Generated by new atomic code, or converted to UPF format
     Using radial grid of  819 points,  5 beta functions with: 
                l(1) =   0
                l(2) =   0
                l(3) =   1
                l(4) =   1
                l(5) =   2
     Q(r) pseudized with  8 coefficients,  rinner =    1.250   1.250   1.250
                                                       1.250   1.250

     Mode symmetry, C_2v (mm2)  point group:


     Atomic displacements:
     There are   6 irreducible representations

     Representation     1      1 modes -A_1  D_1  S_1  To be done

     Representation     2      1 modes -A_1  D_1  S_1  To be done

     Representation     3      1 modes -A_2  D_2  S_2  To be done

     Representation     4      1 modes -B_1  D_3  S_3  To be done

     Representation     5      1 modes -B_2  D_4  S_4  To be done

     Representation     6      1 modes -B_2  D_4  S_4  To be done



     Alpha used in Ewald sum =   2.8000
     PHONON       : 27m15.41s CPU    31m58.83s WALL



     Representation #  1 mode #   1

     Self-consistent Calculation

      iter #   1 total cpu time :  1921.5 secs   av.it.:   5.6
      thresh= 1.000E-02 alpha_mix =  0.700 |ddv_scf|^2 =  5.589E-05

      iter #   2 total cpu time :  1926.3 secs   av.it.:   7.9
      thresh= 7.476E-04 alpha_mix =  0.700 |ddv_scf|^2 =  3.142E-04

      iter #   3 total cpu time :  1934.8 secs   av.it.:   6.7
      thresh= 1.773E-03 alpha_mix =  0.700 |ddv_scf|^2 =  3.770E-08

      iter #   4 total cpu time :  1940.3 secs   av.it.:   8.9
      thresh= 1.942E-05 alpha_mix =  0.700 |ddv_scf|^2 =  1.952E-09

      iter #   5 total cpu time :  1958.4 secs   av.it.:   8.9
      thresh= 4.418E-06 alpha_mix =  0.700 |ddv_scf|^2 =  7.076E-11

      iter #   6 total cpu time :  1963.5 secs   av.it.:   9.1
      thresh= 8.412E-07 alpha_mix =  0.700 |ddv_scf|^2 =  3.591E-12

      iter #   7 total cpu time :  1969.2 secs   av.it.:   8.8
      thresh= 1.895E-07 alpha_mix =  0.700 |ddv_scf|^2 =  2.854E-12

      iter #   8 total cpu time :  1976.6 secs   av.it.:   7.7
      thresh= 1.689E-07 alpha_mix =  0.700 |ddv_scf|^2 =  2.009E-12

      iter #   9 total cpu time :  1984.8 secs   av.it.:   7.6
      thresh= 1.417E-07 alpha_mix =  0.700 |ddv_scf|^2 =  5.948E-13

      iter #  10 total cpu time :  1991.1 secs   av.it.:   7.4
      thresh= 7.712E-08 alpha_mix =  0.700 |ddv_scf|^2 =  4.609E-16

     End of self-consistent calculation

     Convergence has been achieved 


     Representation #  2 mode #   2

     Self-consistent Calculation

      iter #   1 total cpu time :  2002.7 secs   av.it.:   5.7
      thresh= 1.000E-02 alpha_mix =  0.700 |ddv_scf|^2 =  6.269E-05

      iter #   2 total cpu time :  2010.3 secs   av.it.:   7.9
      thresh= 7.917E-04 alpha_mix =  0.700 |ddv_scf|^2 =  3.567E-04

      iter #   3 total cpu time :  2015.0 secs   av.it.:   6.7
      thresh= 1.889E-03 alpha_mix =  0.700 |ddv_scf|^2 =  4.887E-08

      iter #   4 total cpu time :  2020.9 secs   av.it.:   8.8
      thresh= 2.211E-05 alpha_mix =  0.700 |ddv_scf|^2 =  1.804E-09

      iter #   5 total cpu time :  2026.1 secs   av.it.:   8.9
      thresh= 4.248E-06 alpha_mix =  0.700 |ddv_scf|^2 =  9.086E-11

      iter #   6 total cpu time :  2030.0 secs   av.it.:   9.2
      thresh= 9.532E-07 alpha_mix =  0.700 |ddv_scf|^2 =  3.569E-12

      iter #   7 total cpu time :  2034.4 secs   av.it.:   8.8
      thresh= 1.889E-07 alpha_mix =  0.700 |ddv_scf|^2 =  3.142E-12

      iter #   8 total cpu time :  2040.8 secs   av.it.:   7.7
      thresh= 1.773E-07 alpha_mix =  0.700 |ddv_scf|^2 =  1.181E-12

      iter #   9 total cpu time :  2046.2 secs   av.it.:   7.7
      thresh= 1.087E-07 alpha_mix =  0.700 |ddv_scf|^2 =  3.696E-13

      iter #  10 total cpu time :  2053.0 secs   av.it.:   7.5
      thresh= 6.080E-08 alpha_mix =  0.700 |ddv_scf|^2 =  8.073E-16

     End of self-consistent calculation

     Convergence has been achieved 


     Representation #  3 mode #   3

     Self-consistent Calculation

      iter #   1 total cpu time :  2061.6 secs   av.it.:   5.3
      thresh= 1.000E-02 alpha_mix =  0.700 |ddv_scf|^2 =  3.042E-06

      iter #   2 total cpu time :  2065.2 secs   av.it.:   8.4
      thresh= 1.744E-04 alpha_mix =  0.700 |ddv_scf|^2 =  4.859E-08

[...]
      iter #   4 total cpu time :  4403.5 secs   av.it.:   8.5
      thresh= 1.181E-05 alpha_mix =  0.700 |ddv_scf|^2 =  1.149E-09

      iter #   5 total cpu time :  4420.2 secs   av.it.:   8.6
      thresh= 3.390E-06 alpha_mix =  0.700 |ddv_scf|^2 =  1.431E-11

      iter #   6 total cpu time :  4437.3 secs   av.it.:   8.5
      thresh= 3.783E-07 alpha_mix =  0.700 |ddv_scf|^2 =  8.107E-13

      iter #   7 total cpu time :  4454.0 secs   av.it.:   8.8
      thresh= 9.004E-08 alpha_mix =  0.700 |ddv_scf|^2 =  1.895E-14

      iter #   8 total cpu time :  4476.3 secs   av.it.:   8.9
      thresh= 1.377E-08 alpha_mix =  0.700 |ddv_scf|^2 =  4.132E-16

     End of self-consistent calculation

     Convergence has been achieved 
 
     Number of q in the star =   12
     List of q in the star:
          1   0.250000000   0.433012702   0.153330962
          2   0.250000000   0.433012702  -0.153330962
          3  -0.250000000   0.433012702   0.153330962
          4   0.250000000  -0.433012702  -0.153330962
          5  -0.250000000   0.433012702  -0.153330962
          6  -0.250000000  -0.433012702  -0.153330962
          7   0.500000000   0.000000000   0.153330962
          8   0.250000000  -0.433012702   0.153330962
          9  -0.500000000   0.000000000   0.153330962
         10  -0.250000000  -0.433012702   0.153330962
         11  -0.500000000   0.000000000  -0.153330962
         12   0.500000000   0.000000000  -0.153330962

     Diagonalizing the dynamical matrix

     q = (    0.250000000   0.433012702   0.153330962 ) 

 **************************************************************************
     freq (    1) =       1.858939 [THz] =      62.007545 [cm-1]
     freq (    2) =       2.299421 [THz] =      76.700425 [cm-1]
     freq (    3) =       2.848651 [THz] =      95.020771 [cm-1]
     freq (    4) =       2.848676 [THz] =      95.021620 [cm-1]
     freq (    5) =       3.320767 [THz] =     110.768871 [cm-1]
     freq (    6) =       3.473960 [THz] =     115.878817 [cm-1]
 **************************************************************************

     Mode symmetry, C_s (m)     point group:

     freq (  1 -  1) =         62.0  [cm-1]   --> A'                 
     freq (  2 -  2) =         76.7  [cm-1]   --> A''                
     freq (  3 -  3) =         95.0  [cm-1]   --> A'                 
     freq (  4 -  4) =         95.0  [cm-1]   --> A''                
     freq (  5 -  5) =        110.8  [cm-1]   --> A'                 
     freq (  6 -  6) =        115.9  [cm-1]   --> A''                

     Calculation of q =    0.2500000   0.4330127  -0.3066619
 
     Parallelization info
     --------------------
     sticks:   dense  smooth     PW     G-vecs:    dense   smooth      PW
     Min         141      69     24                 6273     2203     435
     Max         142      70     26                 6280     2216     438
     Sum        1135     559    199                50221    17693    3489
 


     bravais-lattice index     =            4
     lattice parameter (alat)  =       7.1600  a.u.
     unit-cell volume          =     518.2984 (a.u.)^3
     number of atoms/cell      =            2
     number of atomic types    =            1
     number of electrons       =        18.00
     number of Kohn-Sham states=           13
     kinetic-energy cutoff     =      40.0000  Ry
     charge density cutoff     =     320.0000  Ry
     Exchange-correlation      = SLA  PW   PBE  PBE ( 1  4  3  4 0 0)

     celldm(1)=   7.160000  celldm(2)=   0.000000  celldm(3)=   1.630460
     celldm(4)=   0.000000  celldm(5)=   0.000000  celldm(6)=   0.000000

     crystal axes: (cart. coord. in units of alat)
               a(1) = (   1.000000   0.000000   0.000000 )  
               a(2) = (  -0.500000   0.866025   0.000000 )  
               a(3) = (   0.000000   0.000000   1.630460 )  

     reciprocal axes: (cart. coord. in units 2 pi/alat)
               b(1) = (  1.000000  0.577350  0.000000 )  
               b(2) = (  0.000000  1.154701  0.000000 )  
               b(3) = (  0.000000  0.000000  0.613324 )  


     PseudoPot. # 1 for Na read from file:
     ./Na_pbe_v1.uspp.F.UPF
     MD5 check sum: 76a99c7e9422403d3e93cbc85ab7bccb
     Pseudo is Ultrasoft, Zval =  9.0
     Generated by new atomic code, or converted to UPF format
     Using radial grid of  819 points,  5 beta functions with: 
                l(1) =   0
                l(2) =   0
                l(3) =   1
                l(4) =   1
                l(5) =   2
     Q(r) pseudized with  8 coefficients,  rinner =    1.250   1.250   1.250
                                                       1.250   1.250

     atomic species   valence    mass     pseudopotential
        Na             9.00    22.99000     Na( 1.00)

     24 Sym. Ops., with inversion, found



   Cartesian axes

     site n.     atom                  positions (alat units)
         1           Na  tau(   1) = (   0.0000000   0.0000000   0.0000000  )
         2           Na  tau(   2) = (   0.5000000   0.2886751   0.8152300  )

     number of k points=  3600  Marzari-Vanderbilt smearing, width (Ry)=  0.0200

     Number of k-points >= 100: set verbosity='high' to print them.

     Dense  grid:    50221 G-vectors     FFT dimensions: (  45,  45,  72)

     Smooth grid:    17693 G-vectors     FFT dimensions: (  30,  30,  48)

     Largest allocated arrays     est. size (Mb)     dimensions
        Kohn-Sham Wavefunctions         0.06 Mb     (     297,   13)
        NL pseudopotentials             0.12 Mb     (     297,   26)
        Each V/rho on FFT grid          0.28 Mb     (   18225)
        Each G-vector array             0.05 Mb     (    6280)
        G-vector shells                 0.01 Mb     (    1773)
     Largest temporary arrays     est. size (Mb)     dimensions
        Auxiliary wavefunctions         0.24 Mb     (     297,   52)
        Each subspace H/S matrix        0.01 Mb     (      26,   26)
        Each <psi_i|beta_j> matrix      0.01 Mb     (      26,   13)

     The potential is recalculated from file :
     ./na_hcp_7.16/_ph0/na_hcp_7.16.save/charge-density.dat

     Starting wfc are   10 atomic +    3 random wfc

     Band Structure Calculation
     Davidson diagonalization with overlap

     ethr =  5.56E-11,  avg # of iterations = 23.0

     total cpu time spent up to now is      190.2 secs

     End of band structure calculation

     Number of k-points >= 100: set verbosity='high' to print the bands.

     the Fermi energy is     1.4601 ev

     Writing output data file na_hcp_7.16.save

                                                                                

     bravais-lattice index     =            4
     lattice parameter (alat)  =       7.1600  a.u.
     unit-cell volume          =     518.2984 (a.u.)^3
     number of atoms/cell      =            2
     number of atomic types    =            1
     kinetic-energy cut-off    =      40.0000  Ry
     charge density cut-off    =     320.0000  Ry
     convergence threshold     =      1.0E-15
     beta                      =       0.7000
     number of iterations used =            4
     Exchange-correlation      = SLA  PW   PBE  PBE ( 1  4  3  4 0 0)


     celldm(1)=    7.16000  celldm(2)=    0.00000  celldm(3)=    1.63046
     celldm(4)=    0.00000  celldm(5)=    0.00000  celldm(6)=    0.00000

     crystal axes: (cart. coord. in units of alat)
               a(1) = (  1.0000  0.0000  0.0000 )  
               a(2) = ( -0.5000  0.8660  0.0000 )  
               a(3) = (  0.0000  0.0000  1.6305 )  

     reciprocal axes: (cart. coord. in units 2 pi/alat)
               b(1) = (  1.0000  0.5774  0.0000 )  
               b(2) = (  0.0000  1.1547  0.0000 )  
               b(3) = (  0.0000  0.0000  0.6133 )  


     Atoms inside the unit cell: 

     Cartesian axes

     site n.  atom      mass           positions (alat units)
        1     Na  22.9900   tau(    1) = (    0.00000    0.00000    0.00000  )
        2     Na  22.9900   tau(    2) = (    0.50000    0.28868    0.81523  )

     Computing dynamical matrix for 
                    q = (   0.2500000   0.4330127  -0.3066619 )
 
      4 Sym.Ops. (no q -> -q+G )


     G cutoff =  415.5433  (   6280 G-vectors)     FFT grid: ( 45, 45, 72)
     G cutoff =  207.7717  (   2212 G-vectors)  smooth grid: ( 30, 30, 48)

     number of k points=  3600  Marzari-Vanderbilt smearing, width (Ry)=  0.0200

     PseudoPot. # 1 for Na read from file:
     ./Na_pbe_v1.uspp.F.UPF
     MD5 check sum: 76a99c7e9422403d3e93cbc85ab7bccb
     Pseudo is Ultrasoft, Zval =  9.0
     Generated by new atomic code, or converted to UPF format
     Using radial grid of  819 points,  5 beta functions with: 
                l(1) =   0
                l(2) =   0
                l(3) =   1
                l(4) =   1
                l(5) =   2
     Q(r) pseudized with  8 coefficients,  rinner =    1.250   1.250   1.250
                                                       1.250   1.250


     Atomic displacements:
     There are   3 irreducible representations

     Representation     1      2 modes -  To be done

     Representation     2      2 modes -  To be done

     Representation     3      2 modes -  To be done



     Alpha used in Ewald sum =   2.8000
     PHONON       :     1h 7m CPU        1h15m WALL



     Representation #  1 modes #   1  2

     Self-consistent Calculation

      iter #   1 total cpu time :  4522.9 secs   av.it.:   5.7
      thresh= 1.000E-02 alpha_mix =  0.700 |ddv_scf|^2 =  2.842E-06

      iter #   2 total cpu time :  4537.0 secs   av.it.:   9.0
      thresh= 1.686E-04 alpha_mix =  0.700 |ddv_scf|^2 =  1.619E-06

      iter #   3 total cpu time :  4553.8 secs   av.it.:   8.1
      thresh= 1.273E-04 alpha_mix =  0.700 |ddv_scf|^2 =  1.102E-08

      iter #   4 total cpu time :  4569.9 secs   av.it.:   9.3
      thresh= 1.050E-05 alpha_mix =  0.700 |ddv_scf|^2 =  2.959E-10

      iter #   5 total cpu time :  4584.7 secs   av.it.:   9.6
      thresh= 1.720E-06 alpha_mix =  0.700 |ddv_scf|^2 =  1.624E-11

      iter #   6 total cpu time :  4601.4 secs   av.it.:   9.7
      thresh= 4.030E-07 alpha_mix =  0.700 |ddv_scf|^2 =  1.090E-12

      iter #   7 total cpu time :  4617.9 secs   av.it.:   9.8
      thresh= 1.044E-07 alpha_mix =  0.700 |ddv_scf|^2 =  1.244E-14

      iter #   8 total cpu time :  4640.3 secs   av.it.:   9.6
      thresh= 1.115E-08 alpha_mix =  0.700 |ddv_scf|^2 =  3.144E-16

     End of self-consistent calculation

     Convergence has been achieved 


     Representation #  2 modes #   3  4

     Self-consistent Calculation

      iter #   1 total cpu time :  4664.0 secs   av.it.:   5.7
      thresh= 1.000E-02 alpha_mix =  0.700 |ddv_scf|^2 =  2.201E-06

      iter #   2 total cpu time :  4678.4 secs   av.it.:   9.0
      thresh= 1.483E-04 alpha_mix =  0.700 |ddv_scf|^2 =  1.121E-06

      iter #   3 total cpu time :  4706.4 secs   av.it.:   8.2
      thresh= 1.059E-04 alpha_mix =  0.700 |ddv_scf|^2 =  1.328E-08

      iter #   4 total cpu time :  4728.2 secs   av.it.:   9.2
      thresh= 1.152E-05 alpha_mix =  0.700 |ddv_scf|^2 =  2.829E-10

      iter #   5 total cpu time :  4760.5 secs   av.it.:   9.4
      thresh= 1.682E-06 alpha_mix =  0.700 |ddv_scf|^2 =  2.092E-11

      iter #   6 total cpu time :  4778.7 secs   av.it.:   9.5
      thresh= 4.574E-07 alpha_mix =  0.700 |ddv_scf|^2 =  7.629E-13

      iter #   7 total cpu time :  4796.6 secs   av.it.:  10.0
      thresh= 8.734E-08 alpha_mix =  0.700 |ddv_scf|^2 =  1.470E-14

      iter #   8 total cpu time :  4823.5 secs   av.it.:   9.8
      thresh= 1.212E-08 alpha_mix =  0.700 |ddv_scf|^2 =  8.779E-16

     End of self-consistent calculation

     Convergence has been achieved 


     Representation #  3 modes #   5  6

     Self-consistent Calculation

      iter #   1 total cpu time :  4840.9 secs   av.it.:   5.7
      thresh= 1.000E-02 alpha_mix =  0.700 |ddv_scf|^2 =  2.094E-06

      iter #   2 total cpu time :  4865.6 secs   av.it.:   9.0
      thresh= 1.447E-04 alpha_mix =  0.700 |ddv_scf|^2 =  8.510E-07

      iter #   3 total cpu time :  4878.4 secs   av.it.:   8.3
      thresh= 9.225E-05 alpha_mix =  0.700 |ddv_scf|^2 =  2.406E-08

      iter #   4 total cpu time :  4901.5 secs   av.it.:   8.9
      thresh= 1.551E-05 alpha_mix =  0.700 |ddv_scf|^2 =  3.909E-10

      iter #   5 total cpu time :  4916.8 secs   av.it.:   9.5
      thresh= 1.977E-06 alpha_mix =  0.700 |ddv_scf|^2 =  1.031E-11

      iter #   6 total cpu time :  4931.7 secs   av.it.:   9.7
      thresh= 3.211E-07 alpha_mix =  0.700 |ddv_scf|^2 =  7.914E-13

      iter #   7 total cpu time :  4961.1 secs   av.it.:   9.9
      thresh= 8.896E-08 alpha_mix =  0.700 |ddv_scf|^2 =  1.894E-14

      iter #   8 total cpu time :  4975.2 secs   av.it.:   9.9
      thresh= 1.376E-08 alpha_mix =  0.700 |ddv_scf|^2 =  2.124E-16

     End of self-consistent calculation

     Convergence has been achieved 
 
     Number of q in the star =    6
     List of q in the star:
          1   0.250000000   0.433012702  -0.306661924
          2  -0.250000000   0.433012702  -0.306661924
          3   0.250000000  -0.433012702   0.306661924
          4  -0.250000000  -0.433012702   0.306661924
          5   0.500000000   0.000000000  -0.306661924
          6  -0.500000000   0.000000000  -0.306661924

     Diagonalizing the dynamical matrix

     q = (    0.250000000   0.433012702  -0.306661924 ) 

 **************************************************************************
     freq (    1) =       1.962648 [THz] =      65.466891 [cm-1]
     freq (    2) =       1.962648 [THz] =      65.466891 [cm-1]
     freq (    3) =       2.876379 [THz] =      95.945662 [cm-1]
     freq (    4) =       2.876379 [THz] =      95.945662 [cm-1]
     freq (    5) =       3.524016 [THz] =     117.548520 [cm-1]
     freq (    6) =       3.524016 [THz] =     117.548520 [cm-1]
 **************************************************************************
 
     init_run     :      1.56s CPU      1.73s WALL (      11 calls)
     electrons    :    137.64s CPU    140.37s WALL (      11 calls)

     Called by init_run:
     wfcinit      :      0.00s CPU      0.11s WALL (      11 calls)
     potinit      :      0.26s CPU      0.30s WALL (      11 calls)

     Called by electrons:
     c_bands      :    137.60s CPU    140.33s WALL (      11 calls)
     v_of_rho     :      0.12s CPU      0.12s WALL (      12 calls)
     newd         :      0.13s CPU      0.14s WALL (      12 calls)

     Called by c_bands:
     init_us_2    :      3.27s CPU      3.54s WALL (   48101 calls)
     cegterg      :     74.70s CPU     76.19s WALL (    3068 calls)

     Called by sum_band:

     Called by *egterg:
     h_psi        :     43.64s CPU     44.43s WALL (   49812 calls)
     s_psi        :     45.85s CPU     48.10s WALL ( 1180408 calls)
     g_psi        :      0.48s CPU      0.47s WALL (   45132 calls)
     cdiaghg      :     21.15s CPU     21.61s WALL (   46744 calls)

     Called by h_psi:
     add_vuspsi   :     27.89s CPU     29.20s WALL (  593942 calls)

     General routines
     calbec       :     68.26s CPU     71.32s WALL ( 1258912 calls)
     fft          :      3.12s CPU      3.01s WALL (    8976 calls)
     ffts         :      2.65s CPU      2.70s WALL (    7229 calls)
     fftw         :   1693.72s CPU   1720.79s WALL ( 9204800 calls)
     interpolate  :      0.60s CPU      0.66s WALL (    1237 calls)
     davcio       :      9.84s CPU    415.98s WALL (  215617 calls)
 
     Parallel routines
     fft_scatter  :   1316.59s CPU   1329.35s WALL ( 9221005 calls)
 
     PHONON       :     1h14m CPU        1h22m WALL

     INITIALIZATION: 
     phq_setup    :      0.37s CPU      0.62s WALL (      12 calls)
     phq_init     :     28.25s CPU     28.83s WALL (      12 calls)
 
     phq_init     :     28.25s CPU     28.83s WALL (      12 calls)
     init_vloc    :      0.12s CPU      0.12s WALL (      12 calls)
     init_us_1    :      0.45s CPU      0.45s WALL (      12 calls)
     newd         :      0.13s CPU      0.14s WALL (      12 calls)
     dvanqq       :      1.50s CPU      1.52s WALL (      12 calls)
     drho         :     21.05s CPU     21.39s WALL (      12 calls)
 
     DYNAMICAL MATRIX:
     dynmat0      :      3.32s CPU      3.43s WALL (      12 calls)
     phqscf       :   4254.00s CPU   4737.96s WALL (      12 calls)
     dynmatrix    :      2.28s CPU      2.59s WALL (      12 calls)
 
     phqscf       :   4254.00s CPU   4737.96s WALL (      12 calls)
     solve_linter :   4251.35s CPU   4732.83s WALL (      58 calls)
     drhodv       :      2.55s CPU      2.85s WALL (      58 calls)
 
     dynmat0      :      3.32s CPU      3.43s WALL (      12 calls)
     dynmat_us    :      3.27s CPU      3.32s WALL (      12 calls)
     d2ionq       :      0.03s CPU      0.03s WALL (      12 calls)
 
     dynmat_us    :      3.27s CPU      3.32s WALL (      12 calls)
     addusdynmat  :      0.00s CPU      0.00s WALL (      12 calls)
 
     phqscf       :   4254.00s CPU   4737.96s WALL (      12 calls)
     solve_linter :   4251.35s CPU   4732.83s WALL (      58 calls)
 
     solve_linter :   4251.35s CPU   4732.83s WALL (      58 calls)
     dvqpsi_us    :     14.36s CPU     14.91s WALL (    4932 calls)
     ortho        :     73.80s CPU     74.61s WALL (   42336 calls)
     cgsolve      :    682.73s CPU    709.06s WALL (   42336 calls)
     incdrhoscf   :   1218.10s CPU   1227.21s WALL (   42336 calls)
     addusddens   :      8.16s CPU      8.15s WALL (     534 calls)
     vpsifft      :     45.51s CPU     48.61s WALL (   37404 calls)
     dv_of_drho   :      3.92s CPU      3.94s WALL (     569 calls)
     mix_pot      :      4.61s CPU     14.72s WALL (     476 calls)
     ef_shift     :      0.05s CPU      1.22s WALL (      29 calls)
     localdos     :      1.02s CPU      1.02s WALL (       4 calls)
     psymdvscf    :     28.86s CPU     28.89s WALL (     476 calls)
     newdq        :      7.64s CPU      7.69s WALL (     476 calls)
     adddvscf     :      3.53s CPU      3.75s WALL (   37404 calls)
     drhodvus     :      0.05s CPU      0.07s WALL (      58 calls)
 
     dvqpsi_us    :     14.36s CPU     14.91s WALL (    4932 calls)
     dvqpsi_us_on :      3.71s CPU      3.86s WALL (    4932 calls)
 
     cgsolve      :    682.73s CPU    709.06s WALL (   42336 calls)
     ch_psi       :    657.65s CPU    683.45s WALL (  544130 calls)
 
     ch_psi       :    657.65s CPU    683.45s WALL (  544130 calls)
     h_psiq       :    569.94s CPU    593.05s WALL (  544130 calls)
     last         :     83.91s CPU     86.71s WALL (  544130 calls)
 
     h_psiq       :    569.94s CPU    593.05s WALL (  544130 calls)
     firstfft     :    267.94s CPU    279.42s WALL ( 3462931 calls)
     secondfft    :    198.66s CPU    205.17s WALL ( 3462931 calls)
     add_vuspsi   :     27.89s CPU     29.20s WALL (  593942 calls)
 
     incdrhoscf   :   1218.10s CPU   1227.21s WALL (   42336 calls)
     addusdbec    :      4.25s CPU      4.52s WALL (   47268 calls)
 
     drhodvus     :      0.05s CPU      0.07s WALL (      58 calls)
 
      General routines
     calbec       :     68.26s CPU     71.32s WALL ( 1258912 calls)
     fft          :      3.12s CPU      3.01s WALL (    8976 calls)
     ffts         :      2.65s CPU      2.70s WALL (    7229 calls)
     fftw         :   1693.72s CPU   1720.79s WALL ( 9204800 calls)
     davcio       :      9.84s CPU    415.98s WALL (  215617 calls)
     write_rec    :      0.96s CPU     21.20s WALL (     534 calls)
 
 
     PHONON       :     1h14m CPU        1h22m WALL

 
   This run was terminated on:  12:23:27  29Mar2018            

=------------------------------------------------------------------------------=
   JOB DONE.
=------------------------------------------------------------------------------=
Application 30386600 resources: utime ~894789s, stime ~8674s, Rss ~59240, inblocks ~4116320688, outblocks ~1418195978
