
     Program PHONON v.5.4.0 starts on 28Mar2018 at  5:31: 8 

     This program is part of the open-source Quantum ESPRESSO suite
     for quantum simulation of materials; please cite
         "P. Giannozzi et al., J. Phys.:Condens. Matter 21 395502 (2009);
          URL http://www.quantum-espresso.org", 
     in publications or presentations arising from this work. More details at
     http://www.quantum-espresso.org/quote

     Parallel version (MPI & OpenMP), running on     192 processor cores
     Number of MPI processes:               192
     Threads/MPI process:                     1
     K-points division:     npool     =      24
     R & G space division:  proc/nbgrp/npool/nimage =       8

     Reading data from directory:
     ./na_hcp_7.04/na_hcp_7.04.save

   Info: using nr1, nr2, nr3 values from input

   Info: using nr1, nr2, nr3 values from input

     IMPORTANT: XC functional enforced from input :
     Exchange-correlation      = SLA  PW   PBE  PBE ( 1  4  3  4 0 0)
     Any further DFT definition will be discarded
     Please, verify this is what you really want

 
     Parallelization info
     --------------------
     sticks:   dense  smooth     PW     G-vecs:    dense   smooth      PW
     Min         137      68     20                 5957     2082     348
     Max         138      69     21                 5959     2107     355
     Sum        1099     547    163                47663    16769    2803
 


     Dynamical matrices for ( 4, 4, 4)  uniform grid of q-points
     (  12q-points):
       N         xq(1)         xq(2)         xq(3) 
       1   0.000000000   0.000000000   0.000000000
       2   0.000000000   0.000000000   0.153330962
       3   0.000000000   0.000000000  -0.306661924
       4   0.000000000   0.288675135   0.000000000
       5   0.000000000   0.288675135   0.153330962
       6   0.000000000   0.288675135  -0.306661924
       7   0.000000000  -0.577350269   0.000000000
       8   0.000000000  -0.577350269   0.153330962
       9   0.000000000  -0.577350269  -0.306661924
      10   0.250000000   0.433012702   0.000000000
      11   0.250000000   0.433012702   0.153330962
      12   0.250000000   0.433012702  -0.306661924

     Calculation of q =    0.0000000   0.0000000   0.0000000

                                                                                

     bravais-lattice index     =            4
     lattice parameter (alat)  =       7.0400  a.u.
     unit-cell volume          =     492.6730 (a.u.)^3
     number of atoms/cell      =            2
     number of atomic types    =            1
     kinetic-energy cut-off    =      40.0000  Ry
     charge density cut-off    =     320.0000  Ry
     convergence threshold     =      1.0E-15
     beta                      =       0.7000
     number of iterations used =            4
     Exchange-correlation      = SLA  PW   PBE  PBE ( 1  4  3  4 0 0)


     celldm(1)=    7.04000  celldm(2)=    0.00000  celldm(3)=    1.63046
     celldm(4)=    0.00000  celldm(5)=    0.00000  celldm(6)=    0.00000

     crystal axes: (cart. coord. in units of alat)
               a(1) = (  1.0000  0.0000  0.0000 )  
               a(2) = ( -0.5000  0.8660  0.0000 )  
               a(3) = (  0.0000  0.0000  1.6305 )  

     reciprocal axes: (cart. coord. in units 2 pi/alat)
               b(1) = (  1.0000  0.5774  0.0000 )  
               b(2) = (  0.0000  1.1547  0.0000 )  
               b(3) = (  0.0000  0.0000  0.6133 )  


     Atoms inside the unit cell: 

     Cartesian axes

     site n.  atom      mass           positions (alat units)
        1     Na  22.9900   tau(    1) = (    0.00000    0.00000    0.00000  )
        2     Na  22.9900   tau(    2) = (    0.50000    0.28868    0.81523  )

     Computing dynamical matrix for 
                    q = (   0.0000000   0.0000000   0.0000000 )
 
     25 Sym.Ops. (with q -> -q+G )


     G cutoff =  401.7312  (   5959 G-vectors)     FFT grid: ( 45, 45, 72)
     G cutoff =  200.8656  (   2094 G-vectors)  smooth grid: ( 30, 30, 48)

     number of k points=   366  Marzari-Vanderbilt smearing, width (Ry)=  0.0200

     PseudoPot. # 1 for Na read from file:
     ./Na_pbe_v1.uspp.F.UPF
     MD5 check sum: 76a99c7e9422403d3e93cbc85ab7bccb
     Pseudo is Ultrasoft, Zval =  9.0
     Generated by new atomic code, or converted to UPF format
     Using radial grid of  819 points,  5 beta functions with: 
                l(1) =   0
                l(2) =   0
                l(3) =   1
                l(4) =   1
                l(5) =   2
     Q(r) pseudized with  8 coefficients,  rinner =    1.250   1.250   1.250
                                                       1.250   1.250

     Mode symmetry, D_6h(6/mmm) point group:


     Atomic displacements:
     There are   4 irreducible representations

     Representation     1      1 modes -B_1g  To be done

     Representation     2      2 modes -E_2g  To be done

     Representation     3      1 modes -A_2u  To be done

     Representation     4      2 modes -E_1u  To be done



     Alpha used in Ewald sum =   2.8000
     PHONON       :     5.99s CPU         9.64s WALL



     Representation #  1 mode #   1

     Self-consistent Calculation
 
     Pert. #  1: Fermi energy shift (Ry) =     0.0000E+00     0.0000E+00

      iter #   1 total cpu time :    10.4 secs   av.it.:   5.4
      thresh= 1.000E-02 alpha_mix =  0.700 |ddv_scf|^2 =  2.865E-05
 
     Pert. #  1: Fermi energy shift (Ry) =     0.0000E+00     0.0000E+00

      iter #   2 total cpu time :    11.3 secs   av.it.:   7.2
      thresh= 5.353E-04 alpha_mix =  0.700 |ddv_scf|^2 =  1.764E-05
 
     Pert. #  1: Fermi energy shift (Ry) =     0.0000E+00     0.0000E+00

      iter #   3 total cpu time :    11.8 secs   av.it.:   7.0
      thresh= 4.200E-04 alpha_mix =  0.700 |ddv_scf|^2 =  2.233E-08
 
     Pert. #  1: Fermi energy shift (Ry) =     0.0000E+00    -1.9132E-42

      iter #   4 total cpu time :    12.7 secs   av.it.:   8.3
      thresh= 1.494E-05 alpha_mix =  0.700 |ddv_scf|^2 =  8.787E-11
 
     Pert. #  1: Fermi energy shift (Ry) =     0.0000E+00    -4.7831E-43

      iter #   5 total cpu time :    13.3 secs   av.it.:   7.3
      thresh= 9.374E-07 alpha_mix =  0.700 |ddv_scf|^2 =  1.841E-12
 
     Pert. #  1: Fermi energy shift (Ry) =     0.0000E+00     0.0000E+00

      iter #   6 total cpu time :    14.4 secs   av.it.:   7.2
      thresh= 1.357E-07 alpha_mix =  0.700 |ddv_scf|^2 =  4.714E-15
 
     Pert. #  1: Fermi energy shift (Ry) =     0.0000E+00     0.0000E+00

      iter #   7 total cpu time :    15.7 secs   av.it.:   8.1
      thresh= 6.866E-09 alpha_mix =  0.700 |ddv_scf|^2 =  1.282E-17

     End of self-consistent calculation

     Convergence has been achieved 


     Representation #  2 modes #   2  3

     Self-consistent Calculation
 
     Pert. #  1: Fermi energy shift (Ry) =     1.7372E-19    -2.7548E-40
     Pert. #  2: Fermi energy shift (Ry) =     2.1684E-19    -7.6530E-41

      iter #   1 total cpu time :    28.9 secs   av.it.:   5.1
      thresh= 1.000E-02 alpha_mix =  0.700 |ddv_scf|^2 =  7.553E-07
 
     Pert. #  1: Fermi energy shift (Ry) =    -6.8057E-21    -5.8697E-43
     Pert. #  2: Fermi energy shift (Ry) =     3.1623E-20     1.8367E-40

      iter #   2 total cpu time :    32.7 secs   av.it.:   8.6
      thresh= 8.691E-05 alpha_mix =  0.700 |ddv_scf|^2 =  1.301E-08
 
     Pert. #  1: Fermi energy shift (Ry) =    -4.5228E-21     2.2969E-41
     Pert. #  2: Fermi energy shift (Ry) =    -7.9056E-21    -4.0178E-41

      iter #   3 total cpu time :    34.5 secs   av.it.:   8.8
      thresh= 1.141E-05 alpha_mix =  0.700 |ddv_scf|^2 =  4.262E-10
 
     Pert. #  1: Fermi energy shift (Ry) =    -1.1335E-21     1.7873E-43
     Pert. #  2: Fermi energy shift (Ry) =    -2.2588E-21     1.1958E-42

      iter #   4 total cpu time :    37.6 secs   av.it.:   8.4
      thresh= 2.064E-06 alpha_mix =  0.700 |ddv_scf|^2 =  1.392E-12
 
     Pert. #  1: Fermi energy shift (Ry) =    -3.9567E-21    -1.7873E-43
     Pert. #  2: Fermi energy shift (Ry) =    -7.3410E-21    -1.1958E-42

      iter #   5 total cpu time :    39.6 secs   av.it.:   8.8
      thresh= 1.180E-07 alpha_mix =  0.700 |ddv_scf|^2 =  2.102E-15
 
     Pert. #  1: Fermi energy shift (Ry) =    -4.5214E-21    -1.7873E-43
     Pert. #  2: Fermi energy shift (Ry) =    -7.3410E-21    -1.1958E-42

      iter #   6 total cpu time :    43.9 secs   av.it.:   7.9
      thresh= 4.585E-09 alpha_mix =  0.700 |ddv_scf|^2 =  8.931E-17

     End of self-consistent calculation

     Convergence has been achieved 


     Representation #  3 mode #   4

     Self-consistent Calculation
 
     Pert. #  1: Fermi energy shift (Ry) =     4.1359E-25    -1.0031E-36

      iter #   1 total cpu time :    45.7 secs   av.it.:   5.1
      thresh= 1.000E-02 alpha_mix =  0.700 |ddv_scf|^2 =  2.830E-06
 
     Pert. #  1: Fermi energy shift (Ry) =    -6.8932E-26     7.8366E-39

      iter #   2 total cpu time :    46.4 secs   av.it.:   8.0
      thresh= 1.682E-04 alpha_mix =  0.700 |ddv_scf|^2 =  5.313E-08
 
     Pert. #  1: Fermi energy shift (Ry) =    -1.7233E-26    -4.8979E-40

      iter #   3 total cpu time :    47.1 secs   av.it.:   8.2
      thresh= 2.305E-05 alpha_mix =  0.700 |ddv_scf|^2 =  1.091E-09
 
     Pert. #  1: Fermi energy shift (Ry) =     1.7233E-26     1.2245E-40

      iter #   4 total cpu time :    47.9 secs   av.it.:   7.7
      thresh= 3.303E-06 alpha_mix =  0.700 |ddv_scf|^2 =  3.675E-12
 
     Pert. #  1: Fermi energy shift (Ry) =    -1.7233E-26     1.5306E-41

      iter #   5 total cpu time :    48.6 secs   av.it.:   8.2
      thresh= 1.917E-07 alpha_mix =  0.700 |ddv_scf|^2 =  8.426E-15
 
     Pert. #  1: Fermi energy shift (Ry) =    -8.6165E-27    -1.5306E-41

      iter #   6 total cpu time :    49.8 secs   av.it.:   7.7
      thresh= 9.179E-09 alpha_mix =  0.700 |ddv_scf|^2 =  1.904E-16

     End of self-consistent calculation

     Convergence has been achieved 


     Representation #  4 modes #   5  6

     Self-consistent Calculation
 
     Pert. #  1: Fermi energy shift (Ry) =     4.3452E-24     1.2539E-37
     Pert. #  2: Fermi energy shift (Ry) =    -6.0660E-24     2.3510E-37

      iter #   1 total cpu time :    52.4 secs   av.it.:   5.2
      thresh= 1.000E-02 alpha_mix =  0.700 |ddv_scf|^2 =  7.103E-07
 
     Pert. #  1: Fermi energy shift (Ry) =    -1.6166E-24    -9.7958E-40
     Pert. #  2: Fermi energy shift (Ry) =    -5.5145E-25    -1.8367E-39

      iter #   2 total cpu time :    55.3 secs   av.it.:   8.8
      thresh= 8.428E-05 alpha_mix =  0.700 |ddv_scf|^2 =  1.323E-08
 
     Pert. #  1: Fermi energy shift (Ry) =     1.6831E-25    -6.1224E-41
     Pert. #  2: Fermi energy shift (Ry) =     6.8932E-26    -1.1479E-40

      iter #   3 total cpu time :    58.2 secs   av.it.:   9.0
      thresh= 1.150E-05 alpha_mix =  0.700 |ddv_scf|^2 =  2.840E-10
 
     Pert. #  1: Fermi energy shift (Ry) =     4.9559E-25    -1.9132E-42
     Pert. #  2: Fermi energy shift (Ry) =     5.5145E-25    -3.5873E-42

      iter #   4 total cpu time :    61.2 secs   av.it.:   8.7
      thresh= 1.685E-06 alpha_mix =  0.700 |ddv_scf|^2 =  9.578E-13
 
     Pert. #  1: Fermi energy shift (Ry) =     4.2755E-25     1.4443E-42
     Pert. #  2: Fermi energy shift (Ry) =    -4.1359E-25    -8.9683E-43

      iter #   5 total cpu time :    63.8 secs   av.it.:   9.1
      thresh= 9.787E-08 alpha_mix =  0.700 |ddv_scf|^2 =  2.044E-15
 
     Pert. #  1: Fermi energy shift (Ry) =     1.3958E-26     7.4736E-45
     Pert. #  2: Fermi energy shift (Ry) =     2.7573E-25    -3.5873E-43

      iter #   6 total cpu time :    66.5 secs   av.it.:   8.6
      thresh= 4.521E-09 alpha_mix =  0.700 |ddv_scf|^2 =  4.736E-17

     End of self-consistent calculation

     Convergence has been achieved 
 
     Number of q in the star =    1
     List of q in the star:
          1   0.000000000   0.000000000   0.000000000

     Diagonalizing the dynamical matrix

     q = (    0.000000000   0.000000000   0.000000000 ) 

 **************************************************************************
     freq (    1) =      -0.522796 [THz] =     -17.438591 [cm-1]
     freq (    2) =      -0.492211 [THz] =     -16.418377 [cm-1]
     freq (    3) =      -0.492211 [THz] =     -16.418377 [cm-1]
     freq (    4) =       1.592440 [THz] =      53.118084 [cm-1]
     freq (    5) =       1.592440 [THz] =      53.118084 [cm-1]
     freq (    6) =       3.948801 [THz] =     131.717832 [cm-1]
 **************************************************************************

     Mode symmetry, D_6h(6/mmm) point group:

     freq (  1 -  1) =        -17.4  [cm-1]   --> A_2u            I  
     freq (  2 -  3) =        -16.4  [cm-1]   --> E_1u            I  
     freq (  4 -  5) =         53.1  [cm-1]   --> E_2g            R  
     freq (  6 -  6) =        131.7  [cm-1]   --> B_1g               

     Calculation of q =    0.0000000   0.0000000   0.1533310
 
     Parallelization info
     --------------------
     sticks:   dense  smooth     PW     G-vecs:    dense   smooth      PW
     Min         137      68     20                 5957     2092     356
     Max         138      69     21                 5959     2104     363
     Sum        1099     547    163                47663    16769    2875
 


     bravais-lattice index     =            4
     lattice parameter (alat)  =       7.0400  a.u.
     unit-cell volume          =     492.6730 (a.u.)^3
     number of atoms/cell      =            2
     number of atomic types    =            1
     number of electrons       =        18.00
     number of Kohn-Sham states=           13
     kinetic-energy cutoff     =      40.0000  Ry
     charge density cutoff     =     320.0000  Ry
     Exchange-correlation      = SLA  PW   PBE  PBE ( 1  4  3  4 0 0)

     celldm(1)=   7.040000  celldm(2)=   0.000000  celldm(3)=   1.630460
     celldm(4)=   0.000000  celldm(5)=   0.000000  celldm(6)=   0.000000

     crystal axes: (cart. coord. in units of alat)
               a(1) = (   1.000000   0.000000   0.000000 )  
               a(2) = (  -0.500000   0.866025   0.000000 )  
               a(3) = (   0.000000   0.000000   1.630460 )  

     reciprocal axes: (cart. coord. in units 2 pi/alat)
               b(1) = (  1.000000  0.577350  0.000000 )  
               b(2) = (  0.000000  1.154701  0.000000 )  
               b(3) = (  0.000000  0.000000  0.613324 )  


     PseudoPot. # 1 for Na read from file:
     ./Na_pbe_v1.uspp.F.UPF
     MD5 check sum: 76a99c7e9422403d3e93cbc85ab7bccb
     Pseudo is Ultrasoft, Zval =  9.0
     Generated by new atomic code, or converted to UPF format
     Using radial grid of  819 points,  5 beta functions with: 
                l(1) =   0
                l(2) =   0
                l(3) =   1
                l(4) =   1
                l(5) =   2
     Q(r) pseudized with  8 coefficients,  rinner =    1.250   1.250   1.250
                                                       1.250   1.250

     atomic species   valence    mass     pseudopotential
        Na             9.00    22.99000     Na( 1.00)

     24 Sym. Ops., with inversion, found



   Cartesian axes

     site n.     atom                  positions (alat units)
         1           Na  tau(   1) = (   0.0000000   0.0000000   0.0000000  )
         2           Na  tau(   2) = (   0.5000000   0.2886751   0.8152300  )

     number of k points=  1464  Marzari-Vanderbilt smearing, width (Ry)=  0.0200

     Number of k-points >= 100: set verbosity='high' to print them.

     Dense  grid:    47663 G-vectors     FFT dimensions: (  45,  45,  72)

     Smooth grid:    16769 G-vectors     FFT dimensions: (  30,  30,  48)

     Largest allocated arrays     est. size (Mb)     dimensions
        Kohn-Sham Wavefunctions         0.06 Mb     (     280,   13)
        NL pseudopotentials             0.11 Mb     (     280,   26)
        Each V/rho on FFT grid          0.28 Mb     (   18225)
        Each G-vector array             0.05 Mb     (    5959)
        G-vector shells                 0.01 Mb     (    1684)
     Largest temporary arrays     est. size (Mb)     dimensions
        Auxiliary wavefunctions         0.22 Mb     (     280,   52)
        Each subspace H/S matrix        0.01 Mb     (      26,   26)
        Each <psi_i|beta_j> matrix      0.01 Mb     (      26,   13)

     The potential is recalculated from file :
     ./na_hcp_7.04/_ph0/na_hcp_7.04.save/charge-density.dat

     Starting wfc are   10 atomic +    3 random wfc

     Band Structure Calculation
     Davidson diagonalization with overlap

     ethr =  5.56E-11,  avg # of iterations = 23.6

     total cpu time spent up to now is        5.7 secs

     End of band structure calculation

     Number of k-points >= 100: set verbosity='high' to print the bands.

     the Fermi energy is     1.6686 ev

     Writing output data file na_hcp_7.04.save

                                                                                

     bravais-lattice index     =            4
     lattice parameter (alat)  =       7.0400  a.u.
     unit-cell volume          =     492.6730 (a.u.)^3
     number of atoms/cell      =            2
     number of atomic types    =            1
     kinetic-energy cut-off    =      40.0000  Ry
     charge density cut-off    =     320.0000  Ry
     convergence threshold     =      1.0E-15
     beta                      =       0.7000
     number of iterations used =            4
     Exchange-correlation      = SLA  PW   PBE  PBE ( 1  4  3  4 0 0)


     celldm(1)=    7.04000  celldm(2)=    0.00000  celldm(3)=    1.63046
     celldm(4)=    0.00000  celldm(5)=    0.00000  celldm(6)=    0.00000

     crystal axes: (cart. coord. in units of alat)
               a(1) = (  1.0000  0.0000  0.0000 )  
               a(2) = ( -0.5000  0.8660  0.0000 )  
               a(3) = (  0.0000  0.0000  1.6305 )  

     reciprocal axes: (cart. coord. in units 2 pi/alat)
               b(1) = (  1.0000  0.5774  0.0000 )  
               b(2) = (  0.0000  1.1547  0.0000 )  
               b(3) = (  0.0000  0.0000  0.6133 )  


     Atoms inside the unit cell: 

     Cartesian axes

     site n.  atom      mass           positions (alat units)
        1     Na  22.9900   tau(    1) = (    0.00000    0.00000    0.00000  )
        2     Na  22.9900   tau(    2) = (    0.50000    0.28868    0.81523  )

     Computing dynamical matrix for 
                    q = (   0.0000000   0.0000000   0.1533310 )
 
     12 Sym.Ops. (no q -> -q+G )


     G cutoff =  401.7312  (   5959 G-vectors)     FFT grid: ( 45, 45, 72)
     G cutoff =  200.8656  (   2104 G-vectors)  smooth grid: ( 30, 30, 48)

     number of k points=  1464  Marzari-Vanderbilt smearing, width (Ry)=  0.0200

     PseudoPot. # 1 for Na read from file:
     ./Na_pbe_v1.uspp.F.UPF
     MD5 check sum: 76a99c7e9422403d3e93cbc85ab7bccb
     Pseudo is Ultrasoft, Zval =  9.0
     Generated by new atomic code, or converted to UPF format
     Using radial grid of  819 points,  5 beta functions with: 
                l(1) =   0
                l(2) =   0
                l(3) =   1
                l(4) =   1
                l(5) =   2
     Q(r) pseudized with  8 coefficients,  rinner =    1.250   1.250   1.250
                                                       1.250   1.250

     Mode symmetry, C_6v (6mm)  point group:


     Atomic displacements:
     There are   4 irreducible representations

     Representation     1      1 modes -A_1  To be done

     Representation     2      1 modes -B_2  To be done

     Representation     3      2 modes -E_1  To be done

     Representation     4      2 modes -E_2  To be done



     Alpha used in Ewald sum =   2.8000
     PHONON       :  1m 6.86s CPU     1m15.77s WALL



     Representation #  1 mode #   1

     Self-consistent Calculation

      iter #   1 total cpu time :    77.0 secs   av.it.:   5.4
      thresh= 1.000E-02 alpha_mix =  0.700 |ddv_scf|^2 =  4.750E-02

      iter #   2 total cpu time :    79.9 secs   av.it.:   6.8
      thresh= 1.000E-02 alpha_mix =  0.700 |ddv_scf|^2 =  2.631E+01

      iter #   3 total cpu time :    82.0 secs   av.it.:   6.9
      thresh= 1.000E-02 alpha_mix =  0.700 |ddv_scf|^2 =  9.831E-05

      iter #   4 total cpu time :    84.6 secs   av.it.:   5.5
      thresh= 9.915E-04 alpha_mix =  0.700 |ddv_scf|^2 =  3.828E-08

      iter #   5 total cpu time :    87.4 secs   av.it.:   7.7
      thresh= 1.956E-05 alpha_mix =  0.700 |ddv_scf|^2 =  2.698E-09

      iter #   6 total cpu time :    90.0 secs   av.it.:   7.0
      thresh= 5.195E-06 alpha_mix =  0.700 |ddv_scf|^2 =  2.151E-07

      iter #   7 total cpu time :    92.7 secs   av.it.:   5.0
      thresh= 4.638E-05 alpha_mix =  0.700 |ddv_scf|^2 =  1.195E-11

      iter #   8 total cpu time :   102.2 secs   av.it.:   8.4
      thresh= 3.458E-07 alpha_mix =  0.700 |ddv_scf|^2 =  3.139E-13

      iter #   9 total cpu time :   104.4 secs   av.it.:   8.7
      thresh= 5.602E-08 alpha_mix =  0.700 |ddv_scf|^2 =  1.367E-14

      iter #  10 total cpu time :   106.5 secs   av.it.:   8.7
      thresh= 1.169E-08 alpha_mix =  0.700 |ddv_scf|^2 =  1.562E-13

      iter #  11 total cpu time :   109.2 secs   av.it.:   5.4
      thresh= 3.952E-08 alpha_mix =  0.700 |ddv_scf|^2 =  5.550E-14

      iter #  12 total cpu time :   110.7 secs   av.it.:   5.9
      thresh= 2.356E-08 alpha_mix =  0.700 |ddv_scf|^2 =  4.183E-15

      iter #  13 total cpu time :   114.1 secs   av.it.:   4.8
      thresh= 6.468E-09 alpha_mix =  0.700 |ddv_scf|^2 =  5.403E-16

     End of self-consistent calculation

     Convergence has been achieved 


     Representation #  2 mode #   2

     Self-consistent Calculation

      iter #   1 total cpu time :   120.1 secs   av.it.:   5.4
      thresh= 1.000E-02 alpha_mix =  0.700 |ddv_scf|^2 =  7.534E-05

      iter #   2 total cpu time :   121.7 secs   av.it.:   7.2
      thresh= 8.680E-04 alpha_mix =  0.700 |ddv_scf|^2 =  2.540E-04

      iter #   3 total cpu time :   123.5 secs   av.it.:   6.5
      thresh= 1.594E-03 alpha_mix =  0.700 |ddv_scf|^2 =  1.236E-07

      iter #   4 total cpu time :   125.5 secs   av.it.:   8.2
      thresh= 3.515E-05 alpha_mix =  0.700 |ddv_scf|^2 =  3.308E-09

      iter #   5 total cpu time :   127.9 secs   av.it.:   8.7
      thresh= 5.752E-06 alpha_mix =  0.700 |ddv_scf|^2 =  7.967E-11

      iter #   6 total cpu time :   130.9 secs   av.it.:   8.7
      thresh= 8.926E-07 alpha_mix =  0.700 |ddv_scf|^2 =  5.538E-12

      iter #   7 total cpu time :   133.2 secs   av.it.:   8.2
      thresh= 2.353E-07 alpha_mix =  0.700 |ddv_scf|^2 =  3.281E-13

      iter #   8 total cpu time :   135.0 secs   av.it.:   8.5
      thresh= 5.728E-08 alpha_mix =  0.700 |ddv_scf|^2 =  1.455E-14

      iter #   9 total cpu time :   136.9 secs   av.it.:   7.8
      thresh= 1.206E-08 alpha_mix =  0.700 |ddv_scf|^2 =  4.190E-16

     End of self-consistent calculation

     Convergence has been achieved 


     Representation #  3 modes #   3  4

     Self-consistent Calculation

      iter #   1 total cpu time :   143.2 secs   av.it.:   5.1
      thresh= 1.000E-02 alpha_mix =  0.700 |ddv_scf|^2 =  7.161E-07

      iter #   2 total cpu time :   147.5 secs   av.it.:   8.6
      thresh= 8.462E-05 alpha_mix =  0.700 |ddv_scf|^2 =  1.321E-08

      iter #   3 total cpu time :   161.4 secs   av.it.:   8.8
      thresh= 1.149E-05 alpha_mix =  0.700 |ddv_scf|^2 =  2.995E-10

      iter #   4 total cpu time :   167.8 secs   av.it.:   8.5
      thresh= 1.731E-06 alpha_mix =  0.700 |ddv_scf|^2 =  9.979E-13

      iter #   5 total cpu time :   172.4 secs   av.it.:   8.9
      thresh= 9.990E-08 alpha_mix =  0.700 |ddv_scf|^2 =  2.090E-15

      iter #   6 total cpu time :   176.3 secs   av.it.:   8.3
      thresh= 4.571E-09 alpha_mix =  0.700 |ddv_scf|^2 =  5.603E-17

     End of self-consistent calculation

     Convergence has been achieved 


     Representation #  4 modes #   5  6

     Self-consistent Calculation

      iter #   1 total cpu time :   181.0 secs   av.it.:   5.1
      thresh= 1.000E-02 alpha_mix =  0.700 |ddv_scf|^2 =  7.479E-07

      iter #   2 total cpu time :   186.3 secs   av.it.:   8.6
      thresh= 8.648E-05 alpha_mix =  0.700 |ddv_scf|^2 =  1.306E-08

      iter #   3 total cpu time :   202.1 secs   av.it.:   8.8
      thresh= 1.143E-05 alpha_mix =  0.700 |ddv_scf|^2 =  3.994E-10

      iter #   4 total cpu time :   205.9 secs   av.it.:   8.5
      thresh= 1.999E-06 alpha_mix =  0.700 |ddv_scf|^2 =  1.306E-12

      iter #   5 total cpu time :   209.5 secs   av.it.:   8.9
      thresh= 1.143E-07 alpha_mix =  0.700 |ddv_scf|^2 =  2.128E-15

      iter #   6 total cpu time :   213.9 secs   av.it.:   8.1
      thresh= 4.612E-09 alpha_mix =  0.700 |ddv_scf|^2 =  8.536E-17

     End of self-consistent calculation

     Convergence has been achieved 
 
     Number of q in the star =    2
     List of q in the star:
          1   0.000000000   0.000000000   0.153330962
          2   0.000000000   0.000000000  -0.153330962

     Diagonalizing the dynamical matrix

     q = (    0.000000000   0.000000000   0.153330962 ) 

 **************************************************************************
     freq (    1) =       0.493797 [THz] =      16.471307 [cm-1]
     freq (    2) =       0.493797 [THz] =      16.471307 [cm-1]
     freq (    3) =       1.489322 [THz] =      49.678443 [cm-1]
     freq (    4) =       1.489322 [THz] =      49.678443 [cm-1]
     freq (    5) =       1.581905 [THz] =      52.766656 [cm-1]
     freq (    6) =       3.683150 [THz] =     122.856658 [cm-1]
 **************************************************************************

     Mode symmetry, C_6v (6mm)  point group:

     freq (  1 -  2) =         16.5  [cm-1]   --> E_1                
     freq (  3 -  4) =         49.7  [cm-1]   --> E_2                
     freq (  5 -  5) =         52.8  [cm-1]   --> A_1                
     freq (  6 -  6) =        122.9  [cm-1]   --> B_2                

     Calculation of q =    0.0000000   0.0000000  -0.3066619
 
     Parallelization info
     --------------------
     sticks:   dense  smooth     PW     G-vecs:    dense   smooth      PW
     Min         137      68     20                 5957     2082     348
     Max         138      69     21                 5959     2107     355
     Sum        1099     547    163                47663    16769    2803
 


     bravais-lattice index     =            4
     lattice parameter (alat)  =       7.0400  a.u.
     unit-cell volume          =     492.6730 (a.u.)^3
     number of atoms/cell      =            2
     number of atomic types    =            1
     number of electrons       =        18.00
     number of Kohn-Sham states=           13
     kinetic-energy cutoff     =      40.0000  Ry
     charge density cutoff     =     320.0000  Ry
     Exchange-correlation      = SLA  PW   PBE  PBE ( 1  4  3  4 0 0)

     celldm(1)=   7.040000  celldm(2)=   0.000000  celldm(3)=   1.630460
     celldm(4)=   0.000000  celldm(5)=   0.000000  celldm(6)=   0.000000

     crystal axes: (cart. coord. in units of alat)
               a(1) = (   1.000000   0.000000   0.000000 )  
               a(2) = (  -0.500000   0.866025   0.000000 )  
               a(3) = (   0.000000   0.000000   1.630460 )  

     reciprocal axes: (cart. coord. in units 2 pi/alat)
               b(1) = (  1.000000  0.577350  0.000000 )  
               b(2) = (  0.000000  1.154701  0.000000 )  
               b(3) = (  0.000000  0.000000  0.613324 )  


     PseudoPot. # 1 for Na read from file:
     ./Na_pbe_v1.uspp.F.UPF
     MD5 check sum: 76a99c7e9422403d3e93cbc85ab7bccb
     Pseudo is Ultrasoft, Zval =  9.0
     Generated by new atomic code, or converted to UPF format
     Using radial grid of  819 points,  5 beta functions with: 
                l(1) =   0
                l(2) =   0
                l(3) =   1
                l(4) =   1
                l(5) =   2
     Q(r) pseudized with  8 coefficients,  rinner =    1.250   1.250   1.250
                                                       1.250   1.250

     atomic species   valence    mass     pseudopotential
        Na             9.00    22.99000     Na( 1.00)

     24 Sym. Ops., with inversion, found



   Cartesian axes

     site n.     atom                  positions (alat units)
         1           Na  tau(   1) = (   0.0000000   0.0000000   0.0000000  )
         2           Na  tau(   2) = (   0.5000000   0.2886751   0.8152300  )

     number of k points=   732  Marzari-Vanderbilt smearing, width (Ry)=  0.0200

     Number of k-points >= 100: set verbosity='high' to print them.

     Dense  grid:    47663 G-vectors     FFT dimensions: (  45,  45,  72)

     Smooth grid:    16769 G-vectors     FFT dimensions: (  30,  30,  48)

     Largest allocated arrays     est. size (Mb)     dimensions
        Kohn-Sham Wavefunctions         0.05 Mb     (     268,   13)
        NL pseudopotentials             0.11 Mb     (     268,   26)
        Each V/rho on FFT grid          0.28 Mb     (   18225)
        Each G-vector array             0.05 Mb     (    5959)
        G-vector shells                 0.01 Mb     (    1686)
     Largest temporary arrays     est. size (Mb)     dimensions
        Auxiliary wavefunctions         0.21 Mb     (     268,   52)
        Each subspace H/S matrix        0.01 Mb     (      26,   26)
        Each <psi_i|beta_j> matrix      0.01 Mb     (      26,   13)

     The potential is recalculated from file :
     ./na_hcp_7.04/_ph0/na_hcp_7.04.save/charge-density.dat

     Starting wfc are   10 atomic +    3 random wfc

     Band Structure Calculation
     Davidson diagonalization with overlap

     ethr =  5.56E-11,  avg # of iterations = 23.7

     total cpu time spent up to now is       10.1 secs

     End of band structure calculation

     Number of k-points >= 100: set verbosity='high' to print the bands.

     the Fermi energy is     1.6686 ev

     Writing output data file na_hcp_7.04.save

                                                                                

     bravais-lattice index     =            4
     lattice parameter (alat)  =       7.0400  a.u.
     unit-cell volume          =     492.6730 (a.u.)^3
     number of atoms/cell      =            2
     number of atomic types    =            1
     kinetic-energy cut-off    =      40.0000  Ry
     charge density cut-off    =     320.0000  Ry
     convergence threshold     =      1.0E-15
     beta                      =       0.7000
     number of iterations used =            4
     Exchange-correlation      = SLA  PW   PBE  PBE ( 1  4  3  4 0 0)


     celldm(1)=    7.04000  celldm(2)=    0.00000  celldm(3)=    1.63046
     celldm(4)=    0.00000  celldm(5)=    0.00000  celldm(6)=    0.00000

     crystal axes: (cart. coord. in units of alat)
               a(1) = (  1.0000  0.0000  0.0000 )  
               a(2) = ( -0.5000  0.8660  0.0000 )  
               a(3) = (  0.0000  0.0000  1.6305 )  

     reciprocal axes: (cart. coord. in units 2 pi/alat)
               b(1) = (  1.0000  0.5774  0.0000 )  
               b(2) = (  0.0000  1.1547  0.0000 )  
               b(3) = (  0.0000  0.0000  0.6133 )  


     Atoms inside the unit cell: 

     Cartesian axes

     site n.  atom      mass           positions (alat units)
        1     Na  22.9900   tau(    1) = (    0.00000    0.00000    0.00000  )
        2     Na  22.9900   tau(    2) = (    0.50000    0.28868    0.81523  )

     Computing dynamical matrix for 
                    q = (   0.0000000   0.0000000  -0.3066619 )
 
     25 Sym.Ops. (with q -> -q+G )


     G cutoff =  401.7312  (   5959 G-vectors)     FFT grid: ( 45, 45, 72)
     G cutoff =  200.8656  (   2094 G-vectors)  smooth grid: ( 30, 30, 48)

     number of k points=   732  Marzari-Vanderbilt smearing, width (Ry)=  0.0200

     PseudoPot. # 1 for Na read from file:
     ./Na_pbe_v1.uspp.F.UPF
     MD5 check sum: 76a99c7e9422403d3e93cbc85ab7bccb
     Pseudo is Ultrasoft, Zval =  9.0
     Generated by new atomic code, or converted to UPF format
     Using radial grid of  819 points,  5 beta functions with: 
                l(1) =   0
                l(2) =   0
                l(3) =   1
                l(4) =   1
                l(5) =   2
     Q(r) pseudized with  8 coefficients,  rinner =    1.250   1.250   1.250
                                                       1.250   1.250


     Atomic displacements:
     There are   2 irreducible representations

     Representation     1      4 modes -  To be done

     Representation     2      2 modes -  To be done



     Alpha used in Ewald sum =   2.8000
     PHONON       :  3m 7.00s CPU     3m39.82s WALL



     Representation #  1 modes #   1  2  3  4

     Self-consistent Calculation

      iter #   1 total cpu time :   224.6 secs   av.it.:   5.2
      thresh= 1.000E-02 alpha_mix =  0.700 |ddv_scf|^2 =  1.828E-07

      iter #   2 total cpu time :   232.1 secs   av.it.:   9.4
      thresh= 4.276E-05 alpha_mix =  0.700 |ddv_scf|^2 =  3.283E-09

      iter #   3 total cpu time :   238.9 secs   av.it.:   9.7
      thresh= 5.730E-06 alpha_mix =  0.700 |ddv_scf|^2 =  8.573E-11

      iter #   4 total cpu time :   244.6 secs   av.it.:   9.2
      thresh= 9.259E-07 alpha_mix =  0.700 |ddv_scf|^2 =  2.836E-13

      iter #   5 total cpu time :   251.4 secs   av.it.:   9.5
      thresh= 5.325E-08 alpha_mix =  0.700 |ddv_scf|^2 =  5.374E-16

     End of self-consistent calculation

     Convergence has been achieved 


     Representation #  2 modes #   5  6

     Self-consistent Calculation

      iter #   1 total cpu time :   255.6 secs   av.it.:   5.7
      thresh= 1.000E-02 alpha_mix =  0.700 |ddv_scf|^2 =  1.891E-04

      iter #   2 total cpu time :   258.3 secs   av.it.:   7.7
      thresh= 1.375E-03 alpha_mix =  0.700 |ddv_scf|^2 =  5.124E-03

      iter #   3 total cpu time :   261.2 secs   av.it.:   6.2
      thresh= 7.158E-03 alpha_mix =  0.700 |ddv_scf|^2 =  1.347E-07

      iter #   4 total cpu time :   263.3 secs   av.it.:   8.6
      thresh= 3.671E-05 alpha_mix =  0.700 |ddv_scf|^2 =  6.833E-10

      iter #   5 total cpu time :   266.7 secs   av.it.:   9.5
      thresh= 2.614E-06 alpha_mix =  0.700 |ddv_scf|^2 =  5.518E-11

      iter #   6 total cpu time :   270.8 secs   av.it.:   9.4
      thresh= 7.428E-07 alpha_mix =  0.700 |ddv_scf|^2 =  1.314E-12

      iter #   7 total cpu time :   273.5 secs   av.it.:   9.7
      thresh= 1.146E-07 alpha_mix =  0.700 |ddv_scf|^2 =  1.989E-13

      iter #   8 total cpu time :   275.3 secs   av.it.:   8.3
      thresh= 4.460E-08 alpha_mix =  0.700 |ddv_scf|^2 =  2.340E-16

     End of self-consistent calculation

     Convergence has been achieved 
 
     Number of q in the star =    1
     List of q in the star:
          1   0.000000000   0.000000000  -0.306661924

     Diagonalizing the dynamical matrix

     q = (    0.000000000   0.000000000  -0.306661924 ) 

 **************************************************************************
     freq (    1) =       1.020429 [THz] =      34.037833 [cm-1]
     freq (    2) =       1.020429 [THz] =      34.037833 [cm-1]
     freq (    3) =       1.020429 [THz] =      34.037833 [cm-1]
     freq (    4) =       1.020429 [THz] =      34.037833 [cm-1]
     freq (    5) =       2.883674 [THz] =      96.189022 [cm-1]
     freq (    6) =       2.883674 [THz] =      96.189022 [cm-1]
 **************************************************************************

     Calculation of q =    0.0000000   0.2886751   0.0000000
 
     Parallelization info
     --------------------
     sticks:   dense  smooth     PW     G-vecs:    dense   smooth      PW
     Min         137      68     21                 5957     2084     375
     Max         138      69     22                 5959     2106     381
     Sum        1099     547    169                47663    16769    3027
 


     bravais-lattice index     =            4
     lattice parameter (alat)  =       7.0400  a.u.
     unit-cell volume          =     492.6730 (a.u.)^3
     number of atoms/cell      =            2
     number of atomic types    =            1
     number of electrons       =        18.00
     number of Kohn-Sham states=           13
     kinetic-energy cutoff     =      40.0000  Ry
     charge density cutoff     =     320.0000  Ry
     Exchange-correlation      = SLA  PW   PBE  PBE ( 1  4  3  4 0 0)

     celldm(1)=   7.040000  celldm(2)=   0.000000  celldm(3)=   1.630460
     celldm(4)=   0.000000  celldm(5)=   0.000000  celldm(6)=   0.000000

     crystal axes: (cart. coord. in units of alat)
               a(1) = (   1.000000   0.000000   0.000000 )  
               a(2) = (  -0.500000   0.866025   0.000000 )  
               a(3) = (   0.000000   0.000000   1.630460 )  

     reciprocal axes: (cart. coord. in units 2 pi/alat)
               b(1) = (  1.000000  0.577350  0.000000 )  
               b(2) = (  0.000000  1.154701  0.000000 )  
               b(3) = (  0.000000  0.000000  0.613324 )  


     PseudoPot. # 1 for Na read from file:
     ./Na_pbe_v1.uspp.F.UPF
     MD5 check sum: 76a99c7e9422403d3e93cbc85ab7bccb
     Pseudo is Ultrasoft, Zval =  9.0
     Generated by new atomic code, or converted to UPF format
     Using radial grid of  819 points,  5 beta functions with: 
                l(1) =   0
                l(2) =   0
                l(3) =   1
                l(4) =   1
                l(5) =   2
     Q(r) pseudized with  8 coefficients,  rinner =    1.250   1.250   1.250
                                                       1.250   1.250

     atomic species   valence    mass     pseudopotential
        Na             9.00    22.99000     Na( 1.00)

     24 Sym. Ops., with inversion, found



   Cartesian axes

     site n.     atom                  positions (alat units)
         1           Na  tau(   1) = (   0.0000000   0.0000000   0.0000000  )
         2           Na  tau(   2) = (   0.5000000   0.2886751   0.8152300  )

     number of k points=  3600  Marzari-Vanderbilt smearing, width (Ry)=  0.0200

     Number of k-points >= 100: set verbosity='high' to print them.

     Dense  grid:    47663 G-vectors     FFT dimensions: (  45,  45,  72)

     Smooth grid:    16769 G-vectors     FFT dimensions: (  30,  30,  48)

     Largest allocated arrays     est. size (Mb)     dimensions
        Kohn-Sham Wavefunctions         0.06 Mb     (     280,   13)
        NL pseudopotentials             0.11 Mb     (     280,   26)
        Each V/rho on FFT grid          0.28 Mb     (   18225)
        Each G-vector array             0.05 Mb     (    5959)
        G-vector shells                 0.01 Mb     (    1714)
     Largest temporary arrays     est. size (Mb)     dimensions
        Auxiliary wavefunctions         0.22 Mb     (     280,   52)
        Each subspace H/S matrix        0.01 Mb     (      26,   26)
        Each <psi_i|beta_j> matrix      0.01 Mb     (      26,   13)

     The potential is recalculated from file :
     ./na_hcp_7.04/_ph0/na_hcp_7.04.save/charge-density.dat

     Starting wfc are   10 atomic +    3 random wfc

     Band Structure Calculation
     Davidson diagonalization with overlap

     ethr =  5.56E-11,  avg # of iterations = 22.9

     total cpu time spent up to now is       24.7 secs

     End of band structure calculation

     Number of k-points >= 100: set verbosity='high' to print the bands.

     the Fermi energy is     1.6686 ev

     Writing output data file na_hcp_7.04.save

                                                                                

     bravais-lattice index     =            4
     lattice parameter (alat)  =       7.0400  a.u.
     unit-cell volume          =     492.6730 (a.u.)^3
     number of atoms/cell      =            2
     number of atomic types    =            1
     kinetic-energy cut-off    =      40.0000  Ry
     charge density cut-off    =     320.0000  Ry
     convergence threshold     =      1.0E-15
     beta                      =       0.7000
     number of iterations used =            4
     Exchange-correlation      = SLA  PW   PBE  PBE ( 1  4  3  4 0 0)


     celldm(1)=    7.04000  celldm(2)=    0.00000  celldm(3)=    1.63046
     celldm(4)=    0.00000  celldm(5)=    0.00000  celldm(6)=    0.00000

     crystal axes: (cart. coord. in units of alat)
               a(1) = (  1.0000  0.0000  0.0000 )  
               a(2) = ( -0.5000  0.8660  0.0000 )  
               a(3) = (  0.0000  0.0000  1.6305 )  

     reciprocal axes: (cart. coord. in units 2 pi/alat)
               b(1) = (  1.0000  0.5774  0.0000 )  
               b(2) = (  0.0000  1.1547  0.0000 )  
               b(3) = (  0.0000  0.0000  0.6133 )  


     Atoms inside the unit cell: 

     Cartesian axes

     site n.  atom      mass           positions (alat units)
        1     Na  22.9900   tau(    1) = (    0.00000    0.00000    0.00000  )
        2     Na  22.9900   tau(    2) = (    0.50000    0.28868    0.81523  )

     Computing dynamical matrix for 
                    q = (   0.0000000   0.2886751   0.0000000 )
 
      4 Sym.Ops. (no q -> -q+G )


     G cutoff =  401.7312  (   5959 G-vectors)     FFT grid: ( 45, 45, 72)
     G cutoff =  200.8656  (   2098 G-vectors)  smooth grid: ( 30, 30, 48)

     number of k points=  3600  Marzari-Vanderbilt smearing, width (Ry)=  0.0200

     PseudoPot. # 1 for Na read from file:
     ./Na_pbe_v1.uspp.F.UPF
     MD5 check sum: 76a99c7e9422403d3e93cbc85ab7bccb
     Pseudo is Ultrasoft, Zval =  9.0
     Generated by new atomic code, or converted to UPF format
     Using radial grid of  819 points,  5 beta functions with: 
                l(1) =   0
                l(2) =   0
                l(3) =   1
                l(4) =   1
                l(5) =   2
     Q(r) pseudized with  8 coefficients,  rinner =    1.250   1.250   1.250
                                                       1.250   1.250

     Mode symmetry, C_2v (mm2)  point group:


     Atomic displacements:
     There are   6 irreducible representations

     Representation     1      1 modes -A_1  D_1  S_1  To be done

     Representation     2      1 modes -A_1  D_1  S_1  To be done

     Representation     3      1 modes -B_1  D_3  S_3  To be done

     Representation     4      1 modes -B_1  D_3  S_3  To be done

     Representation     5      1 modes -B_2  D_4  S_4  To be done

     Representation     6      1 modes -B_2  D_4  S_4  To be done



     Alpha used in Ewald sum =   2.8000
     PHONON       :  4m17.68s CPU     4m56.81s WALL



     Representation #  1 mode #   1

     Self-consistent Calculation

      iter #   1 total cpu time :   299.9 secs   av.it.:   5.7
      thresh= 1.000E-02 alpha_mix =  0.700 |ddv_scf|^2 =  5.461E-04

      iter #   2 total cpu time :   305.2 secs   av.it.:   7.3
      thresh= 2.337E-03 alpha_mix =  0.700 |ddv_scf|^2 =  1.951E-02

      iter #   3 total cpu time :   310.2 secs   av.it.:   5.3
      thresh= 1.000E-02 alpha_mix =  0.700 |ddv_scf|^2 =  4.670E-07

      iter #   4 total cpu time :   315.2 secs   av.it.:   8.2
      thresh= 6.834E-05 alpha_mix =  0.700 |ddv_scf|^2 =  2.647E-08

      iter #   5 total cpu time :   321.1 secs   av.it.:   8.3
      thresh= 1.627E-05 alpha_mix =  0.700 |ddv_scf|^2 =  6.508E-10

      iter #   6 total cpu time :   330.5 secs   av.it.:   8.7
      thresh= 2.551E-06 alpha_mix =  0.700 |ddv_scf|^2 =  1.530E-10

      iter #   7 total cpu time :   335.1 secs   av.it.:   7.9
      thresh= 1.237E-06 alpha_mix =  0.700 |ddv_scf|^2 =  1.493E-09

      iter #   8 total cpu time :   340.0 secs   av.it.:   6.7
      thresh= 3.864E-06 alpha_mix =  0.700 |ddv_scf|^2 =  2.682E-12

      iter #   9 total cpu time :   345.4 secs   av.it.:   8.7
      thresh= 1.638E-07 alpha_mix =  0.700 |ddv_scf|^2 =  5.558E-13

      iter #  10 total cpu time :   350.2 secs   av.it.:   7.6
      thresh= 7.455E-08 alpha_mix =  0.700 |ddv_scf|^2 =  1.776E-12

      iter #  11 total cpu time :   355.3 secs   av.it.:   7.1
      thresh= 1.332E-07 alpha_mix =  0.700 |ddv_scf|^2 =  1.576E-15

      iter #  12 total cpu time :   360.1 secs   av.it.:   8.9
      thresh= 3.969E-09 alpha_mix =  0.700 |ddv_scf|^2 =  9.318E-17

     End of self-consistent calculation

     Convergence has been achieved 


     Representation #  2 mode #   2

     Self-consistent Calculation

      iter #   1 total cpu time :   366.2 secs   av.it.:   5.7
      thresh= 1.000E-02 alpha_mix =  0.700 |ddv_scf|^2 =  5.461E-04

      iter #   2 total cpu time :   370.4 secs   av.it.:   7.3
      thresh= 2.337E-03 alpha_mix =  0.700 |ddv_scf|^2 =  1.951E-02

      iter #   3 total cpu time :   375.7 secs   av.it.:   5.3
      thresh= 1.000E-02 alpha_mix =  0.700 |ddv_scf|^2 =  4.670E-07

      iter #   4 total cpu time :   380.3 secs   av.it.:   8.2
      thresh= 6.834E-05 alpha_mix =  0.700 |ddv_scf|^2 =  2.647E-08

      iter #   5 total cpu time :   385.6 secs   av.it.:   8.3
      thresh= 1.627E-05 alpha_mix =  0.700 |ddv_scf|^2 =  6.512E-10

      iter #   6 total cpu time :   391.4 secs   av.it.:   8.7
      thresh= 2.552E-06 alpha_mix =  0.700 |ddv_scf|^2 =  1.745E-10

      iter #   7 total cpu time :   397.2 secs   av.it.:   7.7
      thresh= 1.321E-06 alpha_mix =  0.700 |ddv_scf|^2 =  1.476E-09

      iter #   8 total cpu time :   405.3 secs   av.it.:   6.7
      thresh= 3.842E-06 alpha_mix =  0.700 |ddv_scf|^2 =  2.577E-12

      iter #   9 total cpu time :   410.8 secs   av.it.:   8.7
      thresh= 1.605E-07 alpha_mix =  0.700 |ddv_scf|^2 =  5.572E-13

      iter #  10 total cpu time :   416.2 secs   av.it.:   7.6
      thresh= 7.465E-08 alpha_mix =  0.700 |ddv_scf|^2 =  1.761E-12

      iter #  11 total cpu time :   421.4 secs   av.it.:   7.1
      thresh= 1.327E-07 alpha_mix =  0.700 |ddv_scf|^2 =  1.575E-15

      iter #  12 total cpu time :   427.9 secs   av.it.:   8.8
      thresh= 3.969E-09 alpha_mix =  0.700 |ddv_scf|^2 =  9.314E-17

     End of self-consistent calculation

     Convergence has been achieved 


     Representation #  3 mode #   3

     Self-consistent Calculation

      iter #   1 total cpu time :   434.0 secs   av.it.:   5.3
      thresh= 1.000E-02 alpha_mix =  0.700 |ddv_scf|^2 =  3.172E-06

      iter #   2 total cpu time :   437.2 secs   av.it.:   8.3
      thresh= 1.781E-04 alpha_mix =  0.700 |ddv_scf|^2 =  5.083E-08

      iter #   3 total cpu time :   442.5 secs   av.it.:   8.6
      thresh= 2.255E-05 alpha_mix =  0.700 |ddv_scf|^2 =  2.311E-09

      iter #   4 total cpu time :   447.2 secs   av.it.:   8.2
      thresh= 4.807E-06 alpha_mix =  0.700 |ddv_scf|^2 =  1.375E-11

      iter #   5 total cpu time :   453.0 secs   av.it.:   8.2
      thresh= 3.708E-07 alpha_mix =  0.700 |ddv_scf|^2 =  1.025E-13

      iter #   6 total cpu time :   458.1 secs   av.it.:   8.7
      thresh= 3.201E-08 alpha_mix =  0.700 |ddv_scf|^2 =  3.623E-16

     End of self-consistent calculation

     Convergence has been achieved 


     Representation #  4 mode #   4

     Self-consistent Calculation

      iter #   1 total cpu time :   463.0 secs   av.it.:   5.3
      thresh= 1.000E-02 alpha_mix =  0.700 |ddv_scf|^2 =  3.172E-06

      iter #   2 total cpu time :   469.0 secs   av.it.:   8.3
      thresh= 1.781E-04 alpha_mix =  0.700 |ddv_scf|^2 =  5.083E-08

      iter #   3 total cpu time :   472.2 secs   av.it.:   8.6
      thresh= 2.255E-05 alpha_mix =  0.700 |ddv_scf|^2 =  2.311E-09

      iter #   4 total cpu time :   478.4 secs   av.it.:   8.2
      thresh= 4.807E-06 alpha_mix =  0.700 |ddv_scf|^2 =  1.375E-11

      iter #   5 total cpu time :   483.8 secs   av.it.:   8.2
      thresh= 3.708E-07 alpha_mix =  0.700 |ddv_scf|^2 =  1.025E-13

      iter #   6 total cpu time :   488.0 secs   av.it.:   8.7
      thresh= 3.201E-08 alpha_mix =  0.700 |ddv_scf|^2 =  3.623E-16

     End of self-consistent calculation

     Convergence has been achieved 


     Representation #  5 mode #   5

     Self-consistent Calculation

      iter #   1 total cpu time :   495.1 secs   av.it.:   5.5
      thresh= 1.000E-02 alpha_mix =  0.700 |ddv_scf|^2 =  8.727E-06

      iter #   2 total cpu time :   502.2 secs   av.it.:   8.4
      thresh= 2.954E-04 alpha_mix =  0.700 |ddv_scf|^2 =  1.843E-06

      iter #   3 total cpu time :   506.4 secs   av.it.:   7.7
      thresh= 1.358E-04 alpha_mix =  0.700 |ddv_scf|^2 =  1.073E-08

      iter #   4 total cpu time :   511.1 secs   av.it.:   8.8
      thresh= 1.036E-05 alpha_mix =  0.700 |ddv_scf|^2 =  3.681E-10

      iter #   5 total cpu time :   515.7 secs   av.it.:   8.2
      thresh= 1.918E-06 alpha_mix =  0.700 |ddv_scf|^2 =  2.147E-12

      iter #   6 total cpu time :   520.3 secs   av.it.:   8.6
      thresh= 1.465E-07 alpha_mix =  0.700 |ddv_scf|^2 =  1.124E-14

      iter #   7 total cpu time :   526.8 secs   av.it.:   8.3
      thresh= 1.060E-08 alpha_mix =  0.700 |ddv_scf|^2 =  5.225E-16

     End of self-consistent calculation

     Convergence has been achieved 


     Representation #  6 mode #   6

     Self-consistent Calculation

      iter #   1 total cpu time :   533.2 secs   av.it.:   5.5
      thresh= 1.000E-02 alpha_mix =  0.700 |ddv_scf|^2 =  8.727E-06

      iter #   2 total cpu time :   547.3 secs   av.it.:   8.4
      thresh= 2.954E-04 alpha_mix =  0.700 |ddv_scf|^2 =  1.843E-06

      iter #   3 total cpu time :   552.6 secs   av.it.:   7.7
      thresh= 1.358E-04 alpha_mix =  0.700 |ddv_scf|^2 =  1.073E-08

      iter #   4 total cpu time :   557.1 secs   av.it.:   8.8
      thresh= 1.036E-05 alpha_mix =  0.700 |ddv_scf|^2 =  3.681E-10

      iter #   5 total cpu time :   562.8 secs   av.it.:   8.2
      thresh= 1.918E-06 alpha_mix =  0.700 |ddv_scf|^2 =  2.147E-12

      iter #   6 total cpu time :   568.4 secs   av.it.:   8.6
      thresh= 1.465E-07 alpha_mix =  0.700 |ddv_scf|^2 =  1.124E-14

      iter #   7 total cpu time :   573.6 secs   av.it.:   8.3
      thresh= 1.060E-08 alpha_mix =  0.700 |ddv_scf|^2 =  5.226E-16

     End of self-consistent calculation

     Convergence has been achieved 
 
     Number of q in the star =    6
     List of q in the star:
          1   0.000000000   0.288675135   0.000000000
          2  -0.250000000   0.144337567   0.000000000
          3   0.250000000  -0.144337567   0.000000000
          4  -0.250000000  -0.144337567   0.000000000
          5   0.250000000   0.144337567   0.000000000
          6   0.000000000  -0.288675135   0.000000000

     Diagonalizing the dynamical matrix

     q = (    0.000000000   0.288675135   0.000000000 ) 

 **************************************************************************
     freq (    1) =       1.157486 [THz] =      38.609582 [cm-1]
     freq (    2) =       1.408022 [THz] =      46.966544 [cm-1]
     freq (    3) =       2.394996 [THz] =      79.888478 [cm-1]
     freq (    4) =       2.537604 [THz] =      84.645344 [cm-1]
     freq (    5) =       3.098543 [THz] =     103.356270 [cm-1]
     freq (    6) =       3.687275 [THz] =     122.994238 [cm-1]
 **************************************************************************

     Mode symmetry, C_2v (mm2)  point group:

     freq (  1 -  1) =         38.6  [cm-1]   --> B_1  D_3  S_3      
     freq (  2 -  2) =         47.0  [cm-1]   --> B_2  D_4  S_4      
     freq (  3 -  3) =         79.9  [cm-1]   --> B_1  D_3  S_3      
     freq (  4 -  4) =         84.6  [cm-1]   --> A_1  D_1  S_1      
     freq (  5 -  5) =        103.4  [cm-1]   --> A_1  D_1  S_1      
     freq (  6 -  6) =        123.0  [cm-1]   --> B_2  D_4  S_4      

     Calculation of q =    0.0000000   0.2886751   0.1533310
 
     Parallelization info
     --------------------
     sticks:   dense  smooth     PW     G-vecs:    dense   smooth      PW
     Min         137      68     23                 5957     2084     395
     Max         138      69     24                 5959     2109     398
     Sum        1099     547    187                47663    16769    3177
 


     bravais-lattice index     =            4
     lattice parameter (alat)  =       7.0400  a.u.
     unit-cell volume          =     492.6730 (a.u.)^3
     number of atoms/cell      =            2
     number of atomic types    =            1
     number of electrons       =        18.00
     number of Kohn-Sham states=           13
     kinetic-energy cutoff     =      40.0000  Ry
     charge density cutoff     =     320.0000  Ry
     Exchange-correlation      = SLA  PW   PBE  PBE ( 1  4  3  4 0 0)

     celldm(1)=   7.040000  celldm(2)=   0.000000  celldm(3)=   1.630460
     celldm(4)=   0.000000  celldm(5)=   0.000000  celldm(6)=   0.000000

     crystal axes: (cart. coord. in units of alat)
               a(1) = (   1.000000   0.000000   0.000000 )  
               a(2) = (  -0.500000   0.866025   0.000000 )  
               a(3) = (   0.000000   0.000000   1.630460 )  

     reciprocal axes: (cart. coord. in units 2 pi/alat)
               b(1) = (  1.000000  0.577350  0.000000 )  
               b(2) = (  0.000000  1.154701  0.000000 )  
               b(3) = (  0.000000  0.000000  0.613324 )  


     PseudoPot. # 1 for Na read from file:
     ./Na_pbe_v1.uspp.F.UPF
     MD5 check sum: 76a99c7e9422403d3e93cbc85ab7bccb
     Pseudo is Ultrasoft, Zval =  9.0
     Generated by new atomic code, or converted to UPF format
     Using radial grid of  819 points,  5 beta functions with: 
                l(1) =   0
                l(2) =   0
                l(3) =   1
                l(4) =   1
                l(5) =   2
     Q(r) pseudized with  8 coefficients,  rinner =    1.250   1.250   1.250
                                                       1.250   1.250

     atomic species   valence    mass     pseudopotential
        Na             9.00    22.99000     Na( 1.00)

     24 Sym. Ops., with inversion, found



   Cartesian axes

     site n.     atom                  positions (alat units)
         1           Na  tau(   1) = (   0.0000000   0.0000000   0.0000000  )
         2           Na  tau(   2) = (   0.5000000   0.2886751   0.8152300  )

     number of k points=  7200  Marzari-Vanderbilt smearing, width (Ry)=  0.0200

     Number of k-points >= 100: set verbosity='high' to print them.

     Dense  grid:    47663 G-vectors     FFT dimensions: (  45,  45,  72)

     Smooth grid:    16769 G-vectors     FFT dimensions: (  30,  30,  48)

     Largest allocated arrays     est. size (Mb)     dimensions
        Kohn-Sham Wavefunctions         0.05 Mb     (     273,   13)
        NL pseudopotentials             0.11 Mb     (     273,   26)
        Each V/rho on FFT grid          0.28 Mb     (   18225)
        Each G-vector array             0.05 Mb     (    5959)
        G-vector shells                 0.01 Mb     (    1693)
     Largest temporary arrays     est. size (Mb)     dimensions
        Auxiliary wavefunctions         0.22 Mb     (     273,   52)
        Each subspace H/S matrix        0.01 Mb     (      26,   26)
        Each <psi_i|beta_j> matrix      0.01 Mb     (      26,   13)

     The potential is recalculated from file :
     ./na_hcp_7.04/_ph0/na_hcp_7.04.save/charge-density.dat

     Starting wfc are   10 atomic +    3 random wfc

     Band Structure Calculation
     Davidson diagonalization with overlap

     ethr =  5.56E-11,  avg # of iterations = 22.8

     total cpu time spent up to now is       65.7 secs

     End of band structure calculation

     Number of k-points >= 100: set verbosity='high' to print the bands.

     the Fermi energy is     1.6686 ev

     Writing output data file na_hcp_7.04.save

                                                                                

     bravais-lattice index     =            4
     lattice parameter (alat)  =       7.0400  a.u.
     unit-cell volume          =     492.6730 (a.u.)^3
     number of atoms/cell      =            2
     number of atomic types    =            1
     kinetic-energy cut-off    =      40.0000  Ry
     charge density cut-off    =     320.0000  Ry
     convergence threshold     =      1.0E-15
     beta                      =       0.7000
     number of iterations used =            4
     Exchange-correlation      = SLA  PW   PBE  PBE ( 1  4  3  4 0 0)


     celldm(1)=    7.04000  celldm(2)=    0.00000  celldm(3)=    1.63046
     celldm(4)=    0.00000  celldm(5)=    0.00000  celldm(6)=    0.00000

     crystal axes: (cart. coord. in units of alat)
               a(1) = (  1.0000  0.0000  0.0000 )  
               a(2) = ( -0.5000  0.8660  0.0000 )  
               a(3) = (  0.0000  0.0000  1.6305 )  

     reciprocal axes: (cart. coord. in units 2 pi/alat)
               b(1) = (  1.0000  0.5774  0.0000 )  
               b(2) = (  0.0000  1.1547  0.0000 )  
               b(3) = (  0.0000  0.0000  0.6133 )  


     Atoms inside the unit cell: 

     Cartesian axes

     site n.  atom      mass           positions (alat units)
        1     Na  22.9900   tau(    1) = (    0.00000    0.00000    0.00000  )
        2     Na  22.9900   tau(    2) = (    0.50000    0.28868    0.81523  )

     Computing dynamical matrix for 
                    q = (   0.0000000   0.2886751   0.1533310 )
 
      2 Sym.Ops. (no q -> -q+G )


     G cutoff =  401.7312  (   5959 G-vectors)     FFT grid: ( 45, 45, 72)
     G cutoff =  200.8656  (   2098 G-vectors)  smooth grid: ( 30, 30, 48)

     number of k points=  7200  Marzari-Vanderbilt smearing, width (Ry)=  0.0200

     PseudoPot. # 1 for Na read from file:
     ./Na_pbe_v1.uspp.F.UPF
     MD5 check sum: 76a99c7e9422403d3e93cbc85ab7bccb
     Pseudo is Ultrasoft, Zval =  9.0
     Generated by new atomic code, or converted to UPF format
     Using radial grid of  819 points,  5 beta functions with: 
                l(1) =   0
                l(2) =   0
                l(3) =   1
                l(4) =   1
                l(5) =   2
     Q(r) pseudized with  8 coefficients,  rinner =    1.250   1.250   1.250
                                                       1.250   1.250

     Mode symmetry, C_s (m)     point group:


     Atomic displacements:
     There are   6 irreducible representations

     Representation     1      1 modes -A'  To be done

     Representation     2      1 modes -A'  To be done

     Representation     3      1 modes -A'  To be done

     Representation     4      1 modes -A'  To be done

     Representation     5      1 modes -A''  To be done

     Representation     6      1 modes -A''  To be done



     Alpha used in Ewald sum =   2.8000
     PHONON       :  9m13.60s CPU    10m22.47s WALL



     Representation #  1 mode #   1

     Self-consistent Calculation

      iter #   1 total cpu time :   626.2 secs   av.it.:   5.7
      thresh= 1.000E-02 alpha_mix =  0.700 |ddv_scf|^2 =  2.139E-04

      iter #   2 total cpu time :   634.0 secs   av.it.:   7.6
      thresh= 1.463E-03 alpha_mix =  0.700 |ddv_scf|^2 =  4.233E-03

      iter #   3 total cpu time :   654.2 secs   av.it.:   5.6
      thresh= 6.506E-03 alpha_mix =  0.700 |ddv_scf|^2 =  1.940E-06

      iter #   4 total cpu time :   662.3 secs   av.it.:   7.8
      thresh= 1.393E-04 alpha_mix =  0.700 |ddv_scf|^2 =  2.753E-07

      iter #   5 total cpu time :   671.9 secs   av.it.:   7.8
      thresh= 5.247E-05 alpha_mix =  0.700 |ddv_scf|^2 =  1.233E-09

      iter #   6 total cpu time :   680.1 secs   av.it.:   8.7
      thresh= 3.511E-06 alpha_mix =  0.700 |ddv_scf|^2 =  5.974E-11

      iter #   7 total cpu time :   689.1 secs   av.it.:   8.7
      thresh= 7.729E-07 alpha_mix =  0.700 |ddv_scf|^2 =  2.172E-11

      iter #   8 total cpu time :   693.4 secs   av.it.:   7.8
      thresh= 4.661E-07 alpha_mix =  0.700 |ddv_scf|^2 =  5.246E-11

      iter #   9 total cpu time :   701.6 secs   av.it.:   7.4
      thresh= 7.243E-07 alpha_mix =  0.700 |ddv_scf|^2 =  2.142E-13

      iter #  10 total cpu time :   711.6 secs   av.it.:   8.8
      thresh= 4.629E-08 alpha_mix =  0.700 |ddv_scf|^2 =  2.399E-13

      iter #  11 total cpu time :   720.0 secs   av.it.:   7.5
      thresh= 4.898E-08 alpha_mix =  0.700 |ddv_scf|^2 =  3.354E-14

      iter #  12 total cpu time :   726.6 secs   av.it.:   8.0
      thresh= 1.831E-08 alpha_mix =  0.700 |ddv_scf|^2 =  1.239E-14

      iter #  13 total cpu time :   735.0 secs   av.it.:   7.7
      thresh= 1.113E-08 alpha_mix =  0.700 |ddv_scf|^2 =  5.941E-16

     End of self-consistent calculation

     Convergence has been achieved 


     Representation #  2 mode #   2

     Self-consistent Calculation

      iter #   1 total cpu time :   742.5 secs   av.it.:   5.7
      thresh= 1.000E-02 alpha_mix =  0.700 |ddv_scf|^2 =  3.664E-05

      iter #   2 total cpu time :   752.3 secs   av.it.:   8.0
      thresh= 6.053E-04 alpha_mix =  0.700 |ddv_scf|^2 =  4.423E-04

      iter #   3 total cpu time :   760.4 secs   av.it.:   5.9
      thresh= 2.103E-03 alpha_mix =  0.700 |ddv_scf|^2 =  1.427E-05

      iter #   4 total cpu time :   768.9 secs   av.it.:   7.2
      thresh= 3.777E-04 alpha_mix =  0.700 |ddv_scf|^2 =  6.802E-08

      iter #   5 total cpu time :   779.3 secs   av.it.:   8.6
      thresh= 2.608E-05 alpha_mix =  0.700 |ddv_scf|^2 =  7.790E-10

      iter #   6 total cpu time :   794.2 secs   av.it.:   8.9
      thresh= 2.791E-06 alpha_mix =  0.700 |ddv_scf|^2 =  6.400E-11

      iter #   7 total cpu time :   802.9 secs   av.it.:   8.8
      thresh= 8.000E-07 alpha_mix =  0.700 |ddv_scf|^2 =  4.015E-11

      iter #   8 total cpu time :   815.7 secs   av.it.:   7.7
      thresh= 6.337E-07 alpha_mix =  0.700 |ddv_scf|^2 =  1.474E-10

      iter #   9 total cpu time :   829.8 secs   av.it.:   6.9
      thresh= 1.214E-06 alpha_mix =  0.700 |ddv_scf|^2 =  3.291E-12

      iter #  10 total cpu time :   838.0 secs   av.it.:   7.6
      thresh= 1.814E-07 alpha_mix =  0.700 |ddv_scf|^2 =  3.202E-12

      iter #  11 total cpu time :   856.5 secs   av.it.:   7.6
      thresh= 1.790E-07 alpha_mix =  0.700 |ddv_scf|^2 =  1.058E-14

      iter #  12 total cpu time :   863.9 secs   av.it.:   8.3
      thresh= 1.028E-08 alpha_mix =  0.700 |ddv_scf|^2 =  2.609E-15

      iter #  13 total cpu time :   874.2 secs   av.it.:   8.6
      thresh= 5.108E-09 alpha_mix =  0.700 |ddv_scf|^2 =  6.823E-17

     End of self-consistent calculation

     Convergence has been achieved 


     Representation #  3 mode #   3

     Self-consistent Calculation

      iter #   1 total cpu time :   884.6 secs   av.it.:   5.8
      thresh= 1.000E-02 alpha_mix =  0.700 |ddv_scf|^2 =  2.450E-04

      iter #   2 total cpu time :   892.6 secs   av.it.:   7.6
      thresh= 1.565E-03 alpha_mix =  0.700 |ddv_scf|^2 =  4.914E-03

      iter #   3 total cpu time :   899.6 secs   av.it.:   5.5
      thresh= 7.010E-03 alpha_mix =  0.700 |ddv_scf|^2 =  6.310E-07

      iter #   4 total cpu time :   907.5 secs   av.it.:   8.0
      thresh= 7.943E-05 alpha_mix =  0.700 |ddv_scf|^2 =  2.879E-07

      iter #   5 total cpu time :   915.3 secs   av.it.:   7.7
      thresh= 5.366E-05 alpha_mix =  0.700 |ddv_scf|^2 =  1.528E-09

      iter #   6 total cpu time :   924.6 secs   av.it.:   8.7
      thresh= 3.909E-06 alpha_mix =  0.700 |ddv_scf|^2 =  7.470E-11

      iter #   7 total cpu time :   931.9 secs   av.it.:   8.6
      thresh= 8.643E-07 alpha_mix =  0.700 |ddv_scf|^2 =  2.079E-12

      iter #   8 total cpu time :   945.8 secs   av.it.:   9.2
      thresh= 1.442E-07 alpha_mix =  0.700 |ddv_scf|^2 =  4.860E-12

      iter #   9 total cpu time :   955.3 secs   av.it.:   7.5
      thresh= 2.205E-07 alpha_mix =  0.700 |ddv_scf|^2 =  3.272E-12

      iter #  10 total cpu time :   962.6 secs   av.it.:   7.5
      thresh= 1.809E-07 alpha_mix =  0.700 |ddv_scf|^2 =  2.560E-13

      iter #  11 total cpu time :   970.1 secs   av.it.:   7.5
      thresh= 5.060E-08 alpha_mix =  0.700 |ddv_scf|^2 =  2.202E-14

      iter #  12 total cpu time :   977.8 secs   av.it.:   8.0
      thresh= 1.484E-08 alpha_mix =  0.700 |ddv_scf|^2 =  5.727E-16

     End of self-consistent calculation

     Convergence has been achieved 


     Representation #  4 mode #   4

     Self-consistent Calculation

      iter #   1 total cpu time :   985.6 secs   av.it.:   5.7
      thresh= 1.000E-02 alpha_mix =  0.700 |ddv_scf|^2 =  6.770E-05

      iter #   2 total cpu time :   993.2 secs   av.it.:   7.8
      thresh= 8.228E-04 alpha_mix =  0.700 |ddv_scf|^2 =  1.123E-03

      iter #   3 total cpu time :  1000.7 secs   av.it.:   5.8
      thresh= 3.351E-03 alpha_mix =  0.700 |ddv_scf|^2 =  7.104E-06

      iter #   4 total cpu time :  1009.7 secs   av.it.:   7.5
      thresh= 2.665E-04 alpha_mix =  0.700 |ddv_scf|^2 =  1.075E-07

      iter #   5 total cpu time :  1033.9 secs   av.it.:   8.2
      thresh= 3.279E-05 alpha_mix =  0.700 |ddv_scf|^2 =  8.860E-10

      iter #   6 total cpu time :  1042.0 secs   av.it.:   8.9
      thresh= 2.977E-06 alpha_mix =  0.700 |ddv_scf|^2 =  7.453E-11

      iter #   7 total cpu time :  1049.9 secs   av.it.:   8.7
      thresh= 8.633E-07 alpha_mix =  0.700 |ddv_scf|^2 =  5.351E-12

      iter #   8 total cpu time :  1057.8 secs   av.it.:   8.8
      thresh= 2.313E-07 alpha_mix =  0.700 |ddv_scf|^2 =  3.877E-11

      iter #   9 total cpu time :  1065.2 secs   av.it.:   6.3
      thresh= 6.226E-07 alpha_mix =  0.700 |ddv_scf|^2 =  1.590E-12

      iter #  10 total cpu time :  1075.1 secs   av.it.:   7.9
      thresh= 1.261E-07 alpha_mix =  0.700 |ddv_scf|^2 =  1.246E-12

      iter #  11 total cpu time :  1082.5 secs   av.it.:   7.3
      thresh= 1.116E-07 alpha_mix =  0.700 |ddv_scf|^2 =  1.059E-13

      iter #  12 total cpu time :  1089.3 secs   av.it.:   7.4
      thresh= 3.254E-08 alpha_mix =  0.700 |ddv_scf|^2 =  3.142E-15

      iter #  13 total cpu time :  1097.7 secs   av.it.:   8.8
      thresh= 5.605E-09 alpha_mix =  0.700 |ddv_scf|^2 =  8.722E-17

     End of self-consistent calculation

     Convergence has been achieved 


     Representation #  5 mode #   5

     Self-consistent Calculation

      iter #   1 total cpu time :  1105.2 secs   av.it.:   5.3
      thresh= 1.000E-02 alpha_mix =  0.700 |ddv_scf|^2 =  3.165E-06

      iter #   2 total cpu time :  1113.0 secs   av.it.:   8.4
      thresh= 1.779E-04 alpha_mix =  0.700 |ddv_scf|^2 =  5.066E-08

      iter #   3 total cpu time :  1123.8 secs   av.it.:   8.7
      thresh= 2.251E-05 alpha_mix =  0.700 |ddv_scf|^2 =  2.323E-09

      iter #   4 total cpu time :  1131.4 secs   av.it.:   8.1
      thresh= 4.820E-06 alpha_mix =  0.700 |ddv_scf|^2 =  1.068E-11

      iter #   5 total cpu time :  1138.7 secs   av.it.:   8.4
      thresh= 3.268E-07 alpha_mix =  0.700 |ddv_scf|^2 =  7.615E-14

      iter #   6 total cpu time :  1145.8 secs   av.it.:   8.7
      thresh= 2.760E-08 alpha_mix =  0.700 |ddv_scf|^2 =  3.455E-16

     End of self-consistent calculation

     Convergence has been achieved 


     Representation #  6 mode #   6

     Self-consistent Calculation

      iter #   1 total cpu time :  1154.9 secs   av.it.:   5.3
      thresh= 1.000E-02 alpha_mix =  0.700 |ddv_scf|^2 =  3.165E-06

      iter #   2 total cpu time :  1163.2 secs   av.it.:   8.4
      thresh= 1.779E-04 alpha_mix =  0.700 |ddv_scf|^2 =  5.066E-08

      iter #   3 total cpu time :  1171.2 secs   av.it.:   8.7
      thresh= 2.251E-05 alpha_mix =  0.700 |ddv_scf|^2 =  2.323E-09

      iter #   4 total cpu time :  1179.8 secs   av.it.:   8.1
      thresh= 4.820E-06 alpha_mix =  0.700 |ddv_scf|^2 =  1.068E-11

      iter #   5 total cpu time :  1187.3 secs   av.it.:   8.4
      thresh= 3.268E-07 alpha_mix =  0.700 |ddv_scf|^2 =  7.615E-14

      iter #   6 total cpu time :  1194.3 secs   av.it.:   8.7
      thresh= 2.760E-08 alpha_mix =  0.700 |ddv_scf|^2 =  3.455E-16

     End of self-consistent calculation

     Convergence has been achieved 
 
     Number of q in the star =   12
     List of q in the star:
          1   0.000000000   0.288675135   0.153330962
          2   0.000000000   0.288675135  -0.153330962
          3  -0.250000000   0.144337567   0.153330962
          4   0.250000000  -0.144337567   0.153330962
          5  -0.250000000  -0.144337567   0.153330962
          6   0.250000000   0.144337567   0.153330962
          7   0.000000000  -0.288675135   0.153330962
          8   0.000000000  -0.288675135  -0.153330962
          9   0.250000000   0.144337567  -0.153330962
         10   0.250000000  -0.144337567  -0.153330962
         11  -0.250000000  -0.144337567  -0.153330962
         12  -0.250000000   0.144337567  -0.153330962

     Diagonalizing the dynamical matrix

     q = (    0.000000000   0.288675135   0.153330962 ) 

 **************************************************************************
     freq (    1) =       1.401194 [THz] =      46.738801 [cm-1]
     freq (    2) =       1.625747 [THz] =      54.229079 [cm-1]
     freq (    3) =       2.266596 [THz] =      75.605491 [cm-1]
     freq (    4) =       2.779994 [THz] =      92.730624 [cm-1]
     freq (    5) =       2.902335 [THz] =      96.811463 [cm-1]
     freq (    6) =       3.600127 [THz] =     120.087318 [cm-1]
 **************************************************************************

     Mode symmetry, C_s (m)     point group:

     freq (  1 -  1) =         46.7  [cm-1]   --> A''                
     freq (  2 -  2) =         54.2  [cm-1]   --> A'                 
     freq (  3 -  3) =         75.6  [cm-1]   --> A''                
     freq (  4 -  4) =         92.7  [cm-1]   --> A'                 
     freq (  5 -  5) =         96.8  [cm-1]   --> A'                 
     freq (  6 -  6) =        120.1  [cm-1]   --> A'                 

     Calculation of q =    0.0000000   0.2886751  -0.3066619
 
     Parallelization info
     --------------------
     sticks:   dense  smooth     PW     G-vecs:    dense   smooth      PW
     Min         137      68     21                 5957     2084     375
     Max         138      69     22                 5959     2106     381
     Sum        1099     547    169                47663    16769    3027
 


     bravais-lattice index     =            4
     lattice parameter (alat)  =       7.0400  a.u.
     unit-cell volume          =     492.6730 (a.u.)^3
     number of atoms/cell      =            2
     number of atomic types    =            1
     number of electrons       =        18.00
     number of Kohn-Sham states=           13
     kinetic-energy cutoff     =      40.0000  Ry
     charge density cutoff     =     320.0000  Ry
     Exchange-correlation      = SLA  PW   PBE  PBE ( 1  4  3  4 0 0)

     celldm(1)=   7.040000  celldm(2)=   0.000000  celldm(3)=   1.630460
     celldm(4)=   0.000000  celldm(5)=   0.000000  celldm(6)=   0.000000

     crystal axes: (cart. coord. in units of alat)
               a(1) = (   1.000000   0.000000   0.000000 )  
               a(2) = (  -0.500000   0.866025   0.000000 )  
               a(3) = (   0.000000   0.000000   1.630460 )  

     reciprocal axes: (cart. coord. in units 2 pi/alat)
               b(1) = (  1.000000  0.577350  0.000000 )  
               b(2) = (  0.000000  1.154701  0.000000 )  
               b(3) = (  0.000000  0.000000  0.613324 )  


     PseudoPot. # 1 for Na read from file:
     ./Na_pbe_v1.uspp.F.UPF
     MD5 check sum: 76a99c7e9422403d3e93cbc85ab7bccb
     Pseudo is Ultrasoft, Zval =  9.0
     Generated by new atomic code, or converted to UPF format
     Using radial grid of  819 points,  5 beta functions with: 
                l(1) =   0
                l(2) =   0
                l(3) =   1
                l(4) =   1
                l(5) =   2
     Q(r) pseudized with  8 coefficients,  rinner =    1.250   1.250   1.250
                                                       1.250   1.250

     atomic species   valence    mass     pseudopotential
        Na             9.00    22.99000     Na( 1.00)

     24 Sym. Ops., with inversion, found



   Cartesian axes

     site n.     atom                  positions (alat units)
         1           Na  tau(   1) = (   0.0000000   0.0000000   0.0000000  )
         2           Na  tau(   2) = (   0.5000000   0.2886751   0.8152300  )

     number of k points=  3600  Marzari-Vanderbilt smearing, width (Ry)=  0.0200

     Number of k-points >= 100: set verbosity='high' to print them.

     Dense  grid:    47663 G-vectors     FFT dimensions: (  45,  45,  72)

     Smooth grid:    16769 G-vectors     FFT dimensions: (  30,  30,  48)

     Largest allocated arrays     est. size (Mb)     dimensions
        Kohn-Sham Wavefunctions         0.06 Mb     (     280,   13)
        NL pseudopotentials             0.11 Mb     (     280,   26)
        Each V/rho on FFT grid          0.28 Mb     (   18225)
        Each G-vector array             0.05 Mb     (    5959)
        G-vector shells                 0.01 Mb     (    1714)
     Largest temporary arrays     est. size (Mb)     dimensions
        Auxiliary wavefunctions         0.22 Mb     (     280,   52)
        Each subspace H/S matrix        0.01 Mb     (      26,   26)
        Each <psi_i|beta_j> matrix      0.01 Mb     (      26,   13)

     The potential is recalculated from file :
     ./na_hcp_7.04/_ph0/na_hcp_7.04.save/charge-density.dat

     Starting wfc are   10 atomic +    3 random wfc

     Band Structure Calculation
     Davidson diagonalization with overlap

     ethr =  5.56E-11,  avg # of iterations = 22.9

     total cpu time spent up to now is       88.5 secs

     End of band structure calculation

     Number of k-points >= 100: set verbosity='high' to print the bands.

     the Fermi energy is     1.6686 ev

     Writing output data file na_hcp_7.04.save

                                                                                

     bravais-lattice index     =            4
     lattice parameter (alat)  =       7.0400  a.u.
     unit-cell volume          =     492.6730 (a.u.)^3
     number of atoms/cell      =            2
     number of atomic types    =            1
     kinetic-energy cut-off    =      40.0000  Ry
     charge density cut-off    =     320.0000  Ry
     convergence threshold     =      1.0E-15
     beta                      =       0.7000
     number of iterations used =            4
     Exchange-correlation      = SLA  PW   PBE  PBE ( 1  4  3  4 0 0)


     celldm(1)=    7.04000  celldm(2)=    0.00000  celldm(3)=    1.63046
     celldm(4)=    0.00000  celldm(5)=    0.00000  celldm(6)=    0.00000

     crystal axes: (cart. coord. in units of alat)
               a(1) = (  1.0000  0.0000  0.0000 )  
               a(2) = ( -0.5000  0.8660  0.0000 )  
               a(3) = (  0.0000  0.0000  1.6305 )  

     reciprocal axes: (cart. coord. in units 2 pi/alat)
               b(1) = (  1.0000  0.5774  0.0000 )  
               b(2) = (  0.0000  1.1547  0.0000 )  
               b(3) = (  0.0000  0.0000  0.6133 )  


     Atoms inside the unit cell: 

     Cartesian axes

     site n.  atom      mass           positions (alat units)
        1     Na  22.9900   tau(    1) = (    0.00000    0.00000    0.00000  )
        2     Na  22.9900   tau(    2) = (    0.50000    0.28868    0.81523  )

     Computing dynamical matrix for 
                    q = (   0.0000000   0.2886751  -0.3066619 )
 
      4 Sym.Ops. (no q -> -q+G )


     G cutoff =  401.7312  (   5959 G-vectors)     FFT grid: ( 45, 45, 72)
     G cutoff =  200.8656  (   2098 G-vectors)  smooth grid: ( 30, 30, 48)

     number of k points=  3600  Marzari-Vanderbilt smearing, width (Ry)=  0.0200

     PseudoPot. # 1 for Na read from file:
     ./Na_pbe_v1.uspp.F.UPF
     MD5 check sum: 76a99c7e9422403d3e93cbc85ab7bccb
     Pseudo is Ultrasoft, Zval =  9.0
     Generated by new atomic code, or converted to UPF format
     Using radial grid of  819 points,  5 beta functions with: 
                l(1) =   0
                l(2) =   0
                l(3) =   1
                l(4) =   1
                l(5) =   2
     Q(r) pseudized with  8 coefficients,  rinner =    1.250   1.250   1.250
                                                       1.250   1.250

     Mode symmetry, C_2v (mm2)  point group:


     Atomic displacements:
     There are   6 irreducible representations

     Representation     1      1 modes -A_1  D_1  S_1  To be done

     Representation     2      1 modes -A_1  D_1  S_1  To be done

     Representation     3      1 modes -A_2  D_2  S_2  To be done

     Representation     4      1 modes -B_1  D_3  S_3  To be done

     Representation     5      1 modes -B_2  D_4  S_4  To be done

     Representation     6      1 modes -B_2  D_4  S_4  To be done



     Alpha used in Ewald sum =   2.8000
     PHONON       : 18m21.57s CPU    20m14.04s WALL



     Representation #  1 mode #   1

     Self-consistent Calculation

      iter #   1 total cpu time :  1217.0 secs   av.it.:   5.6
      thresh= 1.000E-02 alpha_mix =  0.700 |ddv_scf|^2 =  5.860E-05

      iter #   2 total cpu time :  1222.2 secs   av.it.:   7.9
      thresh= 7.655E-04 alpha_mix =  0.700 |ddv_scf|^2 =  3.218E-04

      iter #   3 total cpu time :  1226.9 secs   av.it.:   6.7
      thresh= 1.794E-03 alpha_mix =  0.700 |ddv_scf|^2 =  3.961E-08

      iter #   4 total cpu time :  1232.7 secs   av.it.:   8.8
      thresh= 1.990E-05 alpha_mix =  0.700 |ddv_scf|^2 =  1.983E-09

      iter #   5 total cpu time :  1238.2 secs   av.it.:   8.9
      thresh= 4.453E-06 alpha_mix =  0.700 |ddv_scf|^2 =  7.569E-11

      iter #   6 total cpu time :  1246.4 secs   av.it.:   9.1
      thresh= 8.700E-07 alpha_mix =  0.700 |ddv_scf|^2 =  3.436E-12

      iter #   7 total cpu time :  1250.7 secs   av.it.:   8.8
      thresh= 1.854E-07 alpha_mix =  0.700 |ddv_scf|^2 =  1.998E-12

      iter #   8 total cpu time :  1256.2 secs   av.it.:   7.7
      thresh= 1.413E-07 alpha_mix =  0.700 |ddv_scf|^2 =  2.087E-12

      iter #   9 total cpu time :  1260.9 secs   av.it.:   7.6
      thresh= 1.444E-07 alpha_mix =  0.700 |ddv_scf|^2 =  3.298E-13

      iter #  10 total cpu time :  1266.3 secs   av.it.:   7.5
      thresh= 5.742E-08 alpha_mix =  0.700 |ddv_scf|^2 =  4.396E-16

     End of self-consistent calculation

     Convergence has been achieved 


     Representation #  2 mode #   2

     Self-consistent Calculation

      iter #   1 total cpu time :  1271.8 secs   av.it.:   5.7
      thresh= 1.000E-02 alpha_mix =  0.700 |ddv_scf|^2 =  6.574E-05

      iter #   2 total cpu time :  1276.7 secs   av.it.:   7.9
      thresh= 8.108E-04 alpha_mix =  0.700 |ddv_scf|^2 =  3.654E-04

      iter #   3 total cpu time :  1280.9 secs   av.it.:   6.7
      thresh= 1.912E-03 alpha_mix =  0.700 |ddv_scf|^2 =  5.197E-08

      iter #   4 total cpu time :  1286.9 secs   av.it.:   8.7
      thresh= 2.280E-05 alpha_mix =  0.700 |ddv_scf|^2 =  1.818E-09

      iter #   5 total cpu time :  1292.2 secs   av.it.:   8.9
      thresh= 4.263E-06 alpha_mix =  0.700 |ddv_scf|^2 =  9.861E-11

      iter #   6 total cpu time :  1297.6 secs   av.it.:   9.1
      thresh= 9.930E-07 alpha_mix =  0.700 |ddv_scf|^2 =  3.303E-12

      iter #   7 total cpu time :  1303.0 secs   av.it.:   8.8
      thresh= 1.817E-07 alpha_mix =  0.700 |ddv_scf|^2 =  2.249E-12

      iter #   8 total cpu time :  1308.5 secs   av.it.:   7.7
      thresh= 1.500E-07 alpha_mix =  0.700 |ddv_scf|^2 =  1.298E-12

      iter #   9 total cpu time :  1315.8 secs   av.it.:   7.6
      thresh= 1.139E-07 alpha_mix =  0.700 |ddv_scf|^2 =  2.058E-13

      iter #  10 total cpu time :  1320.9 secs   av.it.:   7.6
      thresh= 4.536E-08 alpha_mix =  0.700 |ddv_scf|^2 =  7.491E-16

     End of self-consistent calculation

     Convergence has been achieved 


     Representation #  3 mode #   3

     Self-consistent Calculation

      iter #   1 total cpu time :  1326.0 secs   av.it.:   5.3
      thresh= 1.000E-02 alpha_mix =  0.700 |ddv_scf|^2 =  3.159E-06

      iter #   2 total cpu time :  1330.5 secs   av.it.:   8.4
      thresh= 1.777E-04 alpha_mix =  0.700 |ddv_scf|^2 =  5.041E-08

[...]
      iter #   4 total cpu time :  2824.7 secs   av.it.:   8.5
      thresh= 1.188E-05 alpha_mix =  0.700 |ddv_scf|^2 =  1.174E-09

      iter #   5 total cpu time :  2831.4 secs   av.it.:   8.6
      thresh= 3.427E-06 alpha_mix =  0.700 |ddv_scf|^2 =  1.440E-11

      iter #   6 total cpu time :  2838.4 secs   av.it.:   8.5
      thresh= 3.795E-07 alpha_mix =  0.700 |ddv_scf|^2 =  8.003E-13

      iter #   7 total cpu time :  2846.9 secs   av.it.:   8.8
      thresh= 8.946E-08 alpha_mix =  0.700 |ddv_scf|^2 =  1.941E-14

      iter #   8 total cpu time :  2854.4 secs   av.it.:   8.9
      thresh= 1.393E-08 alpha_mix =  0.700 |ddv_scf|^2 =  4.092E-16

     End of self-consistent calculation

     Convergence has been achieved 
 
     Number of q in the star =   12
     List of q in the star:
          1   0.250000000   0.433012702   0.153330962
          2   0.250000000   0.433012702  -0.153330962
          3  -0.250000000   0.433012702   0.153330962
          4   0.250000000  -0.433012702  -0.153330962
          5  -0.250000000   0.433012702  -0.153330962
          6  -0.250000000  -0.433012702  -0.153330962
          7   0.500000000   0.000000000   0.153330962
          8   0.250000000  -0.433012702   0.153330962
          9  -0.500000000   0.000000000   0.153330962
         10  -0.250000000  -0.433012702   0.153330962
         11  -0.500000000   0.000000000  -0.153330962
         12   0.500000000   0.000000000  -0.153330962

     Diagonalizing the dynamical matrix

     q = (    0.250000000   0.433012702   0.153330962 ) 

 **************************************************************************
     freq (    1) =       1.948072 [THz] =      64.980682 [cm-1]
     freq (    2) =       2.434991 [THz] =      81.222564 [cm-1]
     freq (    3) =       3.015673 [THz] =     100.592037 [cm-1]
     freq (    4) =       3.047629 [THz] =     101.657965 [cm-1]
     freq (    5) =       3.574956 [THz] =     119.247708 [cm-1]
     freq (    6) =       3.736943 [THz] =     124.650996 [cm-1]
 **************************************************************************

     Mode symmetry, C_s (m)     point group:

     freq (  1 -  1) =         65.0  [cm-1]   --> A'                 
     freq (  2 -  2) =         81.2  [cm-1]   --> A''                
     freq (  3 -  3) =        100.6  [cm-1]   --> A''                
     freq (  4 -  4) =        101.7  [cm-1]   --> A'                 
     freq (  5 -  5) =        119.2  [cm-1]   --> A'                 
     freq (  6 -  6) =        124.7  [cm-1]   --> A''                

     Calculation of q =    0.2500000   0.4330127  -0.3066619
 
     Parallelization info
     --------------------
     sticks:   dense  smooth     PW     G-vecs:    dense   smooth      PW
     Min         137      68     23                 5957     2088     417
     Max         138      69     24                 5959     2102     422
     Sum        1099     547    187                47663    16769    3357
 


     bravais-lattice index     =            4
     lattice parameter (alat)  =       7.0400  a.u.
     unit-cell volume          =     492.6730 (a.u.)^3
     number of atoms/cell      =            2
     number of atomic types    =            1
     number of electrons       =        18.00
     number of Kohn-Sham states=           13
     kinetic-energy cutoff     =      40.0000  Ry
     charge density cutoff     =     320.0000  Ry
     Exchange-correlation      = SLA  PW   PBE  PBE ( 1  4  3  4 0 0)

     celldm(1)=   7.040000  celldm(2)=   0.000000  celldm(3)=   1.630460
     celldm(4)=   0.000000  celldm(5)=   0.000000  celldm(6)=   0.000000

     crystal axes: (cart. coord. in units of alat)
               a(1) = (   1.000000   0.000000   0.000000 )  
               a(2) = (  -0.500000   0.866025   0.000000 )  
               a(3) = (   0.000000   0.000000   1.630460 )  

     reciprocal axes: (cart. coord. in units 2 pi/alat)
               b(1) = (  1.000000  0.577350  0.000000 )  
               b(2) = (  0.000000  1.154701  0.000000 )  
               b(3) = (  0.000000  0.000000  0.613324 )  


     PseudoPot. # 1 for Na read from file:
     ./Na_pbe_v1.uspp.F.UPF
     MD5 check sum: 76a99c7e9422403d3e93cbc85ab7bccb
     Pseudo is Ultrasoft, Zval =  9.0
     Generated by new atomic code, or converted to UPF format
     Using radial grid of  819 points,  5 beta functions with: 
                l(1) =   0
                l(2) =   0
                l(3) =   1
                l(4) =   1
                l(5) =   2
     Q(r) pseudized with  8 coefficients,  rinner =    1.250   1.250   1.250
                                                       1.250   1.250

     atomic species   valence    mass     pseudopotential
        Na             9.00    22.99000     Na( 1.00)

     24 Sym. Ops., with inversion, found



   Cartesian axes

     site n.     atom                  positions (alat units)
         1           Na  tau(   1) = (   0.0000000   0.0000000   0.0000000  )
         2           Na  tau(   2) = (   0.5000000   0.2886751   0.8152300  )

     number of k points=  3600  Marzari-Vanderbilt smearing, width (Ry)=  0.0200

     Number of k-points >= 100: set verbosity='high' to print them.

     Dense  grid:    47663 G-vectors     FFT dimensions: (  45,  45,  72)

     Smooth grid:    16769 G-vectors     FFT dimensions: (  30,  30,  48)

     Largest allocated arrays     est. size (Mb)     dimensions
        Kohn-Sham Wavefunctions         0.05 Mb     (     276,   13)
        NL pseudopotentials             0.11 Mb     (     276,   26)
        Each V/rho on FFT grid          0.28 Mb     (   18225)
        Each G-vector array             0.05 Mb     (    5959)
        G-vector shells                 0.01 Mb     (    1687)
     Largest temporary arrays     est. size (Mb)     dimensions
        Auxiliary wavefunctions         0.22 Mb     (     276,   52)
        Each subspace H/S matrix        0.01 Mb     (      26,   26)
        Each <psi_i|beta_j> matrix      0.01 Mb     (      26,   13)

     The potential is recalculated from file :
     ./na_hcp_7.04/_ph0/na_hcp_7.04.save/charge-density.dat

     Starting wfc are   10 atomic +    3 random wfc

     Band Structure Calculation
     Davidson diagonalization with overlap

     ethr =  5.56E-11,  avg # of iterations = 22.6

     total cpu time spent up to now is      190.7 secs

     End of band structure calculation

     Number of k-points >= 100: set verbosity='high' to print the bands.

     the Fermi energy is     1.6686 ev

     Writing output data file na_hcp_7.04.save

                                                                                

     bravais-lattice index     =            4
     lattice parameter (alat)  =       7.0400  a.u.
     unit-cell volume          =     492.6730 (a.u.)^3
     number of atoms/cell      =            2
     number of atomic types    =            1
     kinetic-energy cut-off    =      40.0000  Ry
     charge density cut-off    =     320.0000  Ry
     convergence threshold     =      1.0E-15
     beta                      =       0.7000
     number of iterations used =            4
     Exchange-correlation      = SLA  PW   PBE  PBE ( 1  4  3  4 0 0)


     celldm(1)=    7.04000  celldm(2)=    0.00000  celldm(3)=    1.63046
     celldm(4)=    0.00000  celldm(5)=    0.00000  celldm(6)=    0.00000

     crystal axes: (cart. coord. in units of alat)
               a(1) = (  1.0000  0.0000  0.0000 )  
               a(2) = ( -0.5000  0.8660  0.0000 )  
               a(3) = (  0.0000  0.0000  1.6305 )  

     reciprocal axes: (cart. coord. in units 2 pi/alat)
               b(1) = (  1.0000  0.5774  0.0000 )  
               b(2) = (  0.0000  1.1547  0.0000 )  
               b(3) = (  0.0000  0.0000  0.6133 )  


     Atoms inside the unit cell: 

     Cartesian axes

     site n.  atom      mass           positions (alat units)
        1     Na  22.9900   tau(    1) = (    0.00000    0.00000    0.00000  )
        2     Na  22.9900   tau(    2) = (    0.50000    0.28868    0.81523  )

     Computing dynamical matrix for 
                    q = (   0.2500000   0.4330127  -0.3066619 )
 
      4 Sym.Ops. (no q -> -q+G )


     G cutoff =  401.7312  (   5959 G-vectors)     FFT grid: ( 45, 45, 72)
     G cutoff =  200.8656  (   2102 G-vectors)  smooth grid: ( 30, 30, 48)

     number of k points=  3600  Marzari-Vanderbilt smearing, width (Ry)=  0.0200

     PseudoPot. # 1 for Na read from file:
     ./Na_pbe_v1.uspp.F.UPF
     MD5 check sum: 76a99c7e9422403d3e93cbc85ab7bccb
     Pseudo is Ultrasoft, Zval =  9.0
     Generated by new atomic code, or converted to UPF format
     Using radial grid of  819 points,  5 beta functions with: 
                l(1) =   0
                l(2) =   0
                l(3) =   1
                l(4) =   1
                l(5) =   2
     Q(r) pseudized with  8 coefficients,  rinner =    1.250   1.250   1.250
                                                       1.250   1.250


     Atomic displacements:
     There are   3 irreducible representations

     Representation     1      2 modes -  To be done

     Representation     2      2 modes -  To be done

     Representation     3      2 modes -  To be done



     Alpha used in Ewald sum =   2.8000
     PHONON       : 43m53.46s CPU    47m52.83s WALL



     Representation #  1 modes #   1  2

     Self-consistent Calculation

      iter #   1 total cpu time :  2885.4 secs   av.it.:   5.7
      thresh= 1.000E-02 alpha_mix =  0.700 |ddv_scf|^2 =  2.978E-06

      iter #   2 total cpu time :  2893.9 secs   av.it.:   9.0
      thresh= 1.726E-04 alpha_mix =  0.700 |ddv_scf|^2 =  1.664E-06

      iter #   3 total cpu time :  2905.3 secs   av.it.:   8.1
      thresh= 1.290E-04 alpha_mix =  0.700 |ddv_scf|^2 =  1.096E-08

      iter #   4 total cpu time :  2913.7 secs   av.it.:   9.3
      thresh= 1.047E-05 alpha_mix =  0.700 |ddv_scf|^2 =  3.015E-10

      iter #   5 total cpu time :  2922.2 secs   av.it.:   9.6
      thresh= 1.737E-06 alpha_mix =  0.700 |ddv_scf|^2 =  1.653E-11

      iter #   6 total cpu time :  2931.3 secs   av.it.:   9.8
      thresh= 4.066E-07 alpha_mix =  0.700 |ddv_scf|^2 =  1.121E-12

      iter #   7 total cpu time :  2940.4 secs   av.it.:   9.8
      thresh= 1.059E-07 alpha_mix =  0.700 |ddv_scf|^2 =  1.208E-14

      iter #   8 total cpu time :  2948.4 secs   av.it.:   9.5
      thresh= 1.099E-08 alpha_mix =  0.700 |ddv_scf|^2 =  3.095E-16

     End of self-consistent calculation

     Convergence has been achieved 


     Representation #  2 modes #   3  4

     Self-consistent Calculation

      iter #   1 total cpu time :  2960.9 secs   av.it.:   5.7
      thresh= 1.000E-02 alpha_mix =  0.700 |ddv_scf|^2 =  2.304E-06

      iter #   2 total cpu time :  2970.0 secs   av.it.:   8.9
      thresh= 1.518E-04 alpha_mix =  0.700 |ddv_scf|^2 =  1.153E-06

      iter #   3 total cpu time :  2977.7 secs   av.it.:   8.2
      thresh= 1.074E-04 alpha_mix =  0.700 |ddv_scf|^2 =  1.322E-08

      iter #   4 total cpu time :  2986.6 secs   av.it.:   9.2
      thresh= 1.150E-05 alpha_mix =  0.700 |ddv_scf|^2 =  2.888E-10

      iter #   5 total cpu time :  2995.6 secs   av.it.:   9.4
      thresh= 1.699E-06 alpha_mix =  0.700 |ddv_scf|^2 =  2.129E-11

      iter #   6 total cpu time :  3005.1 secs   av.it.:   9.5
      thresh= 4.614E-07 alpha_mix =  0.700 |ddv_scf|^2 =  7.925E-13

      iter #   7 total cpu time :  3013.7 secs   av.it.:  10.0
      thresh= 8.902E-08 alpha_mix =  0.700 |ddv_scf|^2 =  1.474E-14

      iter #   8 total cpu time :  3027.2 secs   av.it.:   9.8
      thresh= 1.214E-08 alpha_mix =  0.700 |ddv_scf|^2 =  8.913E-16

     End of self-consistent calculation

     Convergence has been achieved 


     Representation #  3 modes #   5  6

     Self-consistent Calculation

      iter #   1 total cpu time :  3038.4 secs   av.it.:   5.7
      thresh= 1.000E-02 alpha_mix =  0.700 |ddv_scf|^2 =  2.197E-06

      iter #   2 total cpu time :  3047.0 secs   av.it.:   9.0
      thresh= 1.482E-04 alpha_mix =  0.700 |ddv_scf|^2 =  8.800E-07

      iter #   3 total cpu time :  3055.9 secs   av.it.:   8.3
      thresh= 9.381E-05 alpha_mix =  0.700 |ddv_scf|^2 =  2.398E-08

      iter #   4 total cpu time :  3065.3 secs   av.it.:   8.9
      thresh= 1.549E-05 alpha_mix =  0.700 |ddv_scf|^2 =  3.978E-10

      iter #   5 total cpu time :  3073.7 secs   av.it.:   9.5
      thresh= 1.994E-06 alpha_mix =  0.700 |ddv_scf|^2 =  1.059E-11

      iter #   6 total cpu time :  3081.5 secs   av.it.:   9.7
      thresh= 3.254E-07 alpha_mix =  0.700 |ddv_scf|^2 =  8.298E-13

      iter #   7 total cpu time :  3090.9 secs   av.it.:   9.9
      thresh= 9.110E-08 alpha_mix =  0.700 |ddv_scf|^2 =  1.988E-14

      iter #   8 total cpu time :  3099.9 secs   av.it.:   9.9
      thresh= 1.410E-08 alpha_mix =  0.700 |ddv_scf|^2 =  2.132E-16

     End of self-consistent calculation

     Convergence has been achieved 
 
     Number of q in the star =    6
     List of q in the star:
          1   0.250000000   0.433012702  -0.306661924
          2  -0.250000000   0.433012702  -0.306661924
          3   0.250000000  -0.433012702   0.306661924
          4  -0.250000000  -0.433012702   0.306661924
          5   0.500000000   0.000000000  -0.306661924
          6  -0.500000000   0.000000000  -0.306661924

     Diagonalizing the dynamical matrix

     q = (    0.250000000   0.433012702  -0.306661924 ) 

 **************************************************************************
     freq (    1) =       2.041831 [THz] =      68.108149 [cm-1]
     freq (    2) =       2.041831 [THz] =      68.108149 [cm-1]
     freq (    3) =       3.055329 [THz] =     101.914820 [cm-1]
     freq (    4) =       3.055329 [THz] =     101.914820 [cm-1]
     freq (    5) =       3.792443 [THz] =     126.502282 [cm-1]
     freq (    6) =       3.792443 [THz] =     126.502282 [cm-1]
 **************************************************************************
 
     init_run     :      1.58s CPU      1.76s WALL (      11 calls)
     electrons    :    140.96s CPU    144.62s WALL (      11 calls)

     Called by init_run:
     wfcinit      :      0.00s CPU      0.12s WALL (      11 calls)
     potinit      :      0.34s CPU      0.38s WALL (      11 calls)

     Called by electrons:
     c_bands      :    140.87s CPU    144.54s WALL (      11 calls)
     v_of_rho     :      0.11s CPU      0.11s WALL (      12 calls)
     newd         :      0.14s CPU      0.14s WALL (      12 calls)

     Called by c_bands:
     init_us_2    :      3.17s CPU      3.41s WALL (   48101 calls)
     cegterg      :     72.98s CPU     74.65s WALL (    3004 calls)

     Called by sum_band:

     Called by *egterg:
     h_psi        :     42.80s CPU     43.76s WALL (   49037 calls)
     s_psi        :     44.28s CPU     46.57s WALL ( 1179193 calls)
     g_psi        :      0.43s CPU      0.45s WALL (   44421 calls)
     cdiaghg      :     20.74s CPU     21.40s WALL (   46033 calls)

     Called by h_psi:
     add_vuspsi   :     26.93s CPU     28.31s WALL (  592947 calls)

     General routines
     calbec       :     63.29s CPU     67.41s WALL ( 1257697 calls)
     fft          :      2.75s CPU      2.95s WALL (    8976 calls)
     ffts         :      0.91s CPU      0.92s WALL (    7229 calls)
     fftw         :   1342.46s CPU   1369.13s WALL ( 9190106 calls)
     interpolate  :      0.69s CPU      0.75s WALL (    1237 calls)
     davcio       :      9.50s CPU    168.40s WALL (  215617 calls)
 
     Parallel routines
     fft_scatter  :    967.55s CPU    978.23s WALL ( 9206311 calls)
 
     PHONON       : 47m18.30s CPU    51m40.84s WALL

     INITIALIZATION: 
     phq_setup    :      0.40s CPU      0.59s WALL (      12 calls)
     phq_init     :     17.26s CPU     17.94s WALL (      12 calls)
 
     phq_init     :     17.26s CPU     17.94s WALL (      12 calls)
     init_vloc    :      0.11s CPU      0.12s WALL (      12 calls)
     init_us_1    :      0.43s CPU      0.44s WALL (      12 calls)
     newd         :      0.14s CPU      0.14s WALL (      12 calls)
     dvanqq       :      1.42s CPU      1.43s WALL (      12 calls)
     drho         :     11.15s CPU     11.49s WALL (      12 calls)
 
     DYNAMICAL MATRIX:
     dynmat0      :      3.69s CPU      3.91s WALL (      12 calls)
     phqscf       :   2647.93s CPU   2872.48s WALL (      12 calls)
     dynmatrix    :      1.35s CPU      1.50s WALL (      12 calls)
 
     phqscf       :   2647.93s CPU   2872.48s WALL (      12 calls)
     solve_linter :   2645.31s CPU   2867.05s WALL (      58 calls)
     drhodv       :      2.49s CPU      2.78s WALL (      58 calls)
 
     dynmat0      :      3.69s CPU      3.91s WALL (      12 calls)
     dynmat_us    :      3.66s CPU      3.68s WALL (      12 calls)
     d2ionq       :      0.02s CPU      0.03s WALL (      12 calls)
 
     dynmat_us    :      3.66s CPU      3.68s WALL (      12 calls)
     addusdynmat  :      0.00s CPU      0.00s WALL (      12 calls)
 
     phqscf       :   2647.93s CPU   2872.48s WALL (      12 calls)
     solve_linter :   2645.31s CPU   2867.05s WALL (      58 calls)
 
     solve_linter :   2645.31s CPU   2867.05s WALL (      58 calls)
     dvqpsi_us    :     12.32s CPU     12.95s WALL (    4932 calls)
     ortho        :     45.01s CPU     46.00s WALL (   42336 calls)
     cgsolve      :    672.58s CPU    699.56s WALL (   42336 calls)
     incdrhoscf   :    870.77s CPU    878.46s WALL (   42336 calls)
     addusddens   :      7.68s CPU      7.73s WALL (     534 calls)
     vpsifft      :     45.89s CPU     48.82s WALL (   37404 calls)
     dv_of_drho   :      3.89s CPU      3.87s WALL (     569 calls)
     mix_pot      :      3.27s CPU     12.60s WALL (     476 calls)
     ef_shift     :      0.04s CPU      0.40s WALL (      29 calls)
     localdos     :      0.60s CPU      0.60s WALL (       4 calls)
     psymdvscf    :     28.54s CPU     28.66s WALL (     476 calls)
     newdq        :      7.33s CPU      7.33s WALL (     476 calls)
     adddvscf     :      3.40s CPU      3.79s WALL (   37404 calls)
     drhodvus     :      0.09s CPU      0.08s WALL (      58 calls)
 
     dvqpsi_us    :     12.32s CPU     12.95s WALL (    4932 calls)
     dvqpsi_us_on :      3.64s CPU      3.77s WALL (    4932 calls)
 
     cgsolve      :    672.58s CPU    699.56s WALL (   42336 calls)
     ch_psi       :    648.83s CPU    674.82s WALL (  543910 calls)
 
     ch_psi       :    648.83s CPU    674.82s WALL (  543910 calls)
     h_psiq       :    564.93s CPU    587.89s WALL (  543910 calls)
     last         :     80.25s CPU     83.37s WALL (  543910 calls)
 
     h_psiq       :    564.93s CPU    587.89s WALL (  543910 calls)
     firstfft     :    267.19s CPU    277.61s WALL ( 3458338 calls)
     secondfft    :    196.50s CPU    204.56s WALL ( 3458338 calls)
     add_vuspsi   :     26.93s CPU     28.31s WALL (  592947 calls)
 
     incdrhoscf   :    870.77s CPU    878.46s WALL (   42336 calls)
     addusdbec    :      4.19s CPU      4.37s WALL (   47268 calls)
 
     drhodvus     :      0.09s CPU      0.08s WALL (      58 calls)
 
      General routines
     calbec       :     63.29s CPU     67.41s WALL ( 1257697 calls)
     fft          :      2.75s CPU      2.95s WALL (    8976 calls)
     ffts         :      0.91s CPU      0.92s WALL (    7229 calls)
     fftw         :   1342.46s CPU   1369.13s WALL ( 9190106 calls)
     davcio       :      9.50s CPU    168.40s WALL (  215617 calls)
     write_rec    :      1.02s CPU     16.23s WALL (     534 calls)
 
 
     PHONON       : 47m18.31s CPU    51m40.84s WALL

 
   This run was terminated on:   6:22:49  28Mar2018            

=------------------------------------------------------------------------------=
   JOB DONE.
=------------------------------------------------------------------------------=
Application 30379139 resources: utime ~552941s, stime ~7669s, Rss ~59116, inblocks ~3904376028, outblocks ~1355138093
