
     Program PWSCF v.5.4.0 starts on 29Mar2018 at 16: 7:33 

     This program is part of the open-source Quantum ESPRESSO suite
     for quantum simulation of materials; please cite
         "P. Giannozzi et al., J. Phys.:Condens. Matter 21 395502 (2009);
          URL http://www.quantum-espresso.org", 
     in publications or presentations arising from this work. More details at
     http://www.quantum-espresso.org/quote

     Parallel version (MPI & OpenMP), running on      24 processor cores
     Number of MPI processes:                24
     Threads/MPI process:                     1
     R & G space division:  proc/nbgrp/npool/nimage =      24
     Waiting for input...
     Reading input from standard input

     Current dimensions of program PWSCF are:
     Max number of different atomic species (ntypx) = 10
     Max number of k-points (npk) =  40000
     Max angular momentum in pseudopotentials (lmaxx) =  3

     Subspace diagonalization in iterative solution of the eigenvalue problem:
     one sub-group per band group will be used
     scalapack distributed-memory algorithm (size of sub-group:  3*  3 procs)

 
     Parallelization info
     --------------------
     sticks:   dense  smooth     PW     G-vecs:    dense   smooth      PW
     Min          48      24      6                 2156      756     119
     Max          49      25      8                 2163      777     129
     Sum        1159     583    169                51805    18365    3015
 


     bravais-lattice index     =            4
     lattice parameter (alat)  =       7.2400  a.u.
     unit-cell volume          =     535.8663 (a.u.)^3
     number of atoms/cell      =            2
     number of atomic types    =            1
     number of electrons       =        18.00
     number of Kohn-Sham states=           13
     kinetic-energy cutoff     =      40.0000  Ry
     charge density cutoff     =     320.0000  Ry
     convergence threshold     =      1.0E-10
     mixing beta               =       0.7000
     number of iterations used =            8  plain     mixing
     Exchange-correlation      = SLA  PW   PBE  PBE ( 1  4  3  4 0 0)

     celldm(1)=   7.240000  celldm(2)=   0.000000  celldm(3)=   1.630460
     celldm(4)=   0.000000  celldm(5)=   0.000000  celldm(6)=   0.000000

     crystal axes: (cart. coord. in units of alat)
               a(1) = (   1.000000   0.000000   0.000000 )  
               a(2) = (  -0.500000   0.866025   0.000000 )  
               a(3) = (   0.000000   0.000000   1.630460 )  

     reciprocal axes: (cart. coord. in units 2 pi/alat)
               b(1) = (  1.000000  0.577350  0.000000 )  
               b(2) = (  0.000000  1.154701  0.000000 )  
               b(3) = (  0.000000  0.000000  0.613324 )  


     PseudoPot. # 1 for Na read from file:
     ./Na_pbe_v1.uspp.F.UPF
     MD5 check sum: 76a99c7e9422403d3e93cbc85ab7bccb
     Pseudo is Ultrasoft, Zval =  9.0
     Generated by new atomic code, or converted to UPF format
     Using radial grid of  819 points,  5 beta functions with: 
                l(1) =   0
                l(2) =   0
                l(3) =   1
                l(4) =   1
                l(5) =   2
     Q(r) pseudized with  8 coefficients,  rinner =    1.250   1.250   1.250
                                                       1.250   1.250

     atomic species   valence    mass     pseudopotential
        Na             9.00    22.99000     Na( 1.00)

     24 Sym. Ops., with inversion, found (12 have fractional translation)



   Cartesian axes

     site n.     atom                  positions (alat units)
         1           Na  tau(   1) = (   0.0000000   0.0000000   0.0000000  )
         2           Na  tau(   2) = (   0.4999999   0.2886751   0.8152300  )

     number of k points=   366  Marzari-Vanderbilt smearing, width (Ry)=  0.0200

     Number of k-points >= 100: set verbosity='high' to print them.

     Dense  grid:    51805 G-vectors     FFT dimensions: (  45,  45,  72)

     Smooth grid:    18365 G-vectors     FFT dimensions: (  30,  30,  48)

     Largest allocated arrays     est. size (Mb)     dimensions
        Kohn-Sham Wavefunctions         0.02 Mb     (     102,   13)
        NL pseudopotentials             0.04 Mb     (     102,   26)
        Each V/rho on FFT grid          0.09 Mb     (    6075)
        Each G-vector array             0.02 Mb     (    2158)
        G-vector shells                 0.01 Mb     (     933)
     Largest temporary arrays     est. size (Mb)     dimensions
        Auxiliary wavefunctions         0.08 Mb     (     102,   52)
        Each subspace H/S matrix        0.00 Mb     (      17,   17)
        Each <psi_i|beta_j> matrix      0.01 Mb     (      26,   13)
        Arrays for rho mixing           0.74 Mb     (    6075,    8)

     Initial potential from superposition of free atoms

     starting charge   17.98742, renormalised to   18.00000
     Starting wfc are   10 randomized atomic wfcs +    3 random wfc

     total cpu time spent up to now is        1.2 secs

     per-process dynamical memory:    12.6 Mb

     Self-consistent Calculation

     iteration #  1     ecut=    40.00 Ry     beta=0.70
     Davidson diagonalization with overlap
     ethr =  1.00E-02,  avg # of iterations =  5.8

     Threshold (ethr) on eigenvalues was too large:
     Diagonalizing with lowered threshold

     Davidson diagonalization with overlap
     ethr =  9.17E-06,  avg # of iterations =  7.1

     total cpu time spent up to now is       15.4 secs

     total energy              =    -190.21240048 Ry
     Harris-Foulkes estimate   =    -190.21272405 Ry
     estimated scf accuracy    <       0.00170814 Ry

     iteration #  2     ecut=    40.00 Ry     beta=0.70
     Davidson diagonalization with overlap
     ethr =  9.49E-06,  avg # of iterations =  2.0

     total cpu time spent up to now is       18.8 secs

     total energy              =    -190.21258036 Ry
     Harris-Foulkes estimate   =    -190.21261321 Ry
     estimated scf accuracy    <       0.00018188 Ry

     iteration #  3     ecut=    40.00 Ry     beta=0.70
     Davidson diagonalization with overlap
     ethr =  1.01E-06,  avg # of iterations =  2.1

     total cpu time spent up to now is       22.3 secs

     total energy              =    -190.21259872 Ry
     Harris-Foulkes estimate   =    -190.21260082 Ry
     estimated scf accuracy    <       0.00001133 Ry

     iteration #  4     ecut=    40.00 Ry     beta=0.70
     Davidson diagonalization with overlap
     ethr =  6.29E-08,  avg # of iterations =  2.0

     total cpu time spent up to now is       25.6 secs

     total energy              =    -190.21259994 Ry
     Harris-Foulkes estimate   =    -190.21259984 Ry
     estimated scf accuracy    <       0.00000003 Ry

     iteration #  5     ecut=    40.00 Ry     beta=0.70
     Davidson diagonalization with overlap
     ethr =  1.50E-10,  avg # of iterations =  3.2

     total cpu time spent up to now is       30.2 secs

     total energy              =    -190.21260001 Ry
     Harris-Foulkes estimate   =    -190.21260000 Ry
     estimated scf accuracy    <          2.8E-09 Ry

     iteration #  6     ecut=    40.00 Ry     beta=0.70
     Davidson diagonalization with overlap
     ethr =  1.54E-11,  avg # of iterations =  1.8

     total cpu time spent up to now is       33.2 secs

     total energy              =    -190.21260001 Ry
     Harris-Foulkes estimate   =    -190.21260001 Ry
     estimated scf accuracy    <          1.3E-10 Ry

     iteration #  7     ecut=    40.00 Ry     beta=0.70
     Davidson diagonalization with overlap
     ethr =  7.41E-13,  avg # of iterations =  2.0

     total cpu time spent up to now is       36.5 secs

     End of self-consistent calculation

     Number of k-points >= 100: set verbosity='high' to print the bands.

     the Fermi energy is     1.3290 ev

!    total energy              =    -190.21260001 Ry
     Harris-Foulkes estimate   =    -190.21260001 Ry
     estimated scf accuracy    <          4.0E-12 Ry

     The total energy is the sum of the following terms:

     one-electron contribution =    -179.25055870 Ry
     hartree contribution      =      90.13424190 Ry
     xc contribution           =     -28.51985940 Ry
     ewald contribution        =     -72.57629672 Ry
     smearing contrib. (-TS)   =      -0.00012708 Ry

     convergence has been achieved in   7 iterations


     entering subroutine stress ...

          total   stress  (Ry/bohr**3)                   (kbar)     P=   -7.24
  -0.00004931   0.00000000  -0.00000000         -7.25      0.00     -0.00
   0.00000000  -0.00004931   0.00000000          0.00     -7.25      0.00
   0.00000000  -0.00000000  -0.00004898          0.00     -0.00     -7.21


     Writing output data file na_hcp_7.24.save
 
     init_run     :      0.99s CPU      1.04s WALL (       1 calls)
     electrons    :     34.37s CPU     35.45s WALL (       1 calls)
     stress       :      0.28s CPU      0.29s WALL (       1 calls)

     Called by init_run:
     wfcinit      :      0.93s CPU      0.97s WALL (       1 calls)
     potinit      :      0.02s CPU      0.01s WALL (       1 calls)

     Called by electrons:
     c_bands      :     32.04s CPU     33.00s WALL (       8 calls)
     sum_band     :      2.26s CPU      2.33s WALL (       8 calls)
     v_of_rho     :      0.03s CPU      0.03s WALL (       8 calls)
     newd         :      0.03s CPU      0.04s WALL (       8 calls)
     mix_rho      :      0.00s CPU      0.00s WALL (       8 calls)

     Called by c_bands:
     init_us_2    :      0.18s CPU      0.20s WALL (    6588 calls)
     cegterg      :     31.54s CPU     32.33s WALL (    2928 calls)

     Called by sum_band:
     sum_band:bec :      0.02s CPU      0.03s WALL (    2928 calls)
     addusdens    :      0.04s CPU      0.05s WALL (       8 calls)

     Called by *egterg:
     h_psi        :      9.82s CPU     10.58s WALL (   12799 calls)
     s_psi        :      0.33s CPU      0.28s WALL (   12799 calls)
     g_psi        :      0.06s CPU      0.05s WALL (    9505 calls)
     cdiaghg      :     18.87s CPU     19.03s WALL (   12067 calls)

     Called by h_psi:
     add_vuspsi   :      0.29s CPU      0.32s WALL (   12799 calls)

     General routines
     calbec       :      0.69s CPU      0.81s WALL (   16093 calls)
     fft          :      0.03s CPU      0.02s WALL (     133 calls)
     ffts         :      0.00s CPU      0.00s WALL (      16 calls)
     fftw         :      9.50s CPU     10.09s WALL (  243498 calls)
     interpolate  :      0.00s CPU      0.00s WALL (      16 calls)
 
     Parallel routines
     fft_scatter  :      5.46s CPU      5.83s WALL (  243647 calls)
 
     PWSCF        :    37.33s CPU        46.79s WALL

 
   This run was terminated on:  16: 8:20  29Mar2018            

=------------------------------------------------------------------------------=
   JOB DONE.
=------------------------------------------------------------------------------=
Application 30388251 resources: utime ~1097s, stime ~20s, Rss ~42232, inblocks ~180122, outblocks ~551205
