
     Program MATDYN v.6.1 (svn rev. 13369) starts on 28Mar2018 at 11:34:39 

     This program is part of the open-source Quantum ESPRESSO suite
     for quantum simulation of materials; please cite
         "P. Giannozzi et al., J. Phys.:Condens. Matter 21 395502 (2009);
          URL http://www.quantum-espresso.org", 
     in publications or presentations arising from this work. More details at
     http://www.quantum-espresso.org/quote

     Parallel version (MPI), running on     4 processors
     R & G space division:  proc/nbgrp/npool/nimage =       4
 mass for atomic type   1 not given; uses mass from file na_hcp_7.008.fc                                                                                                                                                                                                                                                 
     Message from routine matdyn:
     Z* not found in file na_hcp_7.008.fc, TO-LO splitting at q=0 will be absent!
     A direction for q was not specified:TO-LO splitting will be absent

     MATDYN       :    30.56s CPU        30.71s WALL


   This run was terminated on:  11:35:10  28Mar2018            

=------------------------------------------------------------------------------=
   JOB DONE.
=------------------------------------------------------------------------------=
