
     Program PHONON v.5.4.0 starts on 29Mar2018 at 12:24:35 

     This program is part of the open-source Quantum ESPRESSO suite
     for quantum simulation of materials; please cite
         "P. Giannozzi et al., J. Phys.:Condens. Matter 21 395502 (2009);
          URL http://www.quantum-espresso.org", 
     in publications or presentations arising from this work. More details at
     http://www.quantum-espresso.org/quote

     Parallel version (MPI & OpenMP), running on     192 processor cores
     Number of MPI processes:               192
     Threads/MPI process:                     1
     K-points division:     npool     =      24
     R & G space division:  proc/nbgrp/npool/nimage =       8

     Reading data from directory:
     ./na_hcp_7.19/na_hcp_7.19.save

   Info: using nr1, nr2, nr3 values from input

   Info: using nr1, nr2, nr3 values from input

     IMPORTANT: XC functional enforced from input :
     Exchange-correlation      = SLA  PW   PBE  PBE ( 1  4  3  4 0 0)
     Any further DFT definition will be discarded
     Please, verify this is what you really want

 
     Parallelization info
     --------------------
     sticks:   dense  smooth     PW     G-vecs:    dense   smooth      PW
     Min         143      72     20                 6353     2239     368
     Max         144      73     21                 6358     2255     377
     Sum        1147     583    163                50833    17969    2971
 


     Dynamical matrices for ( 4, 4, 4)  uniform grid of q-points
     (  12q-points):
       N         xq(1)         xq(2)         xq(3) 
       1   0.000000000   0.000000000   0.000000000
       2   0.000000000   0.000000000   0.153330962
       3   0.000000000   0.000000000  -0.306661924
       4   0.000000000   0.288675135   0.000000000
       5   0.000000000   0.288675135   0.153330962
       6   0.000000000   0.288675135  -0.306661924
       7   0.000000000  -0.577350269   0.000000000
       8   0.000000000  -0.577350269   0.153330962
       9   0.000000000  -0.577350269  -0.306661924
      10   0.250000000   0.433012702   0.000000000
      11   0.250000000   0.433012702   0.153330962
      12   0.250000000   0.433012702  -0.306661924

     Calculation of q =    0.0000000   0.0000000   0.0000000

                                                                                

     bravais-lattice index     =            4
     lattice parameter (alat)  =       7.1900  a.u.
     unit-cell volume          =     524.8406 (a.u.)^3
     number of atoms/cell      =            2
     number of atomic types    =            1
     kinetic-energy cut-off    =      40.0000  Ry
     charge density cut-off    =     320.0000  Ry
     convergence threshold     =      1.0E-15
     beta                      =       0.7000
     number of iterations used =            4
     Exchange-correlation      = SLA  PW   PBE  PBE ( 1  4  3  4 0 0)


     celldm(1)=    7.19000  celldm(2)=    0.00000  celldm(3)=    1.63046
     celldm(4)=    0.00000  celldm(5)=    0.00000  celldm(6)=    0.00000

     crystal axes: (cart. coord. in units of alat)
               a(1) = (  1.0000  0.0000  0.0000 )  
               a(2) = ( -0.5000  0.8660  0.0000 )  
               a(3) = (  0.0000  0.0000  1.6305 )  

     reciprocal axes: (cart. coord. in units 2 pi/alat)
               b(1) = (  1.0000  0.5774  0.0000 )  
               b(2) = (  0.0000  1.1547  0.0000 )  
               b(3) = (  0.0000  0.0000  0.6133 )  


     Atoms inside the unit cell: 

     Cartesian axes

     site n.  atom      mass           positions (alat units)
        1     Na  22.9900   tau(    1) = (    0.00000    0.00000    0.00000  )
        2     Na  22.9900   tau(    2) = (    0.50000    0.28868    0.81523  )

     Computing dynamical matrix for 
                    q = (   0.0000000   0.0000000   0.0000000 )
 
     25 Sym.Ops. (with q -> -q+G )


     G cutoff =  419.0328  (   6358 G-vectors)     FFT grid: ( 45, 45, 72)
     G cutoff =  209.5164  (   2241 G-vectors)  smooth grid: ( 30, 30, 48)

     number of k points=   366  Marzari-Vanderbilt smearing, width (Ry)=  0.0200

     PseudoPot. # 1 for Na read from file:
     ./Na_pbe_v1.uspp.F.UPF
     MD5 check sum: 76a99c7e9422403d3e93cbc85ab7bccb
     Pseudo is Ultrasoft, Zval =  9.0
     Generated by new atomic code, or converted to UPF format
     Using radial grid of  819 points,  5 beta functions with: 
                l(1) =   0
                l(2) =   0
                l(3) =   1
                l(4) =   1
                l(5) =   2
     Q(r) pseudized with  8 coefficients,  rinner =    1.250   1.250   1.250
                                                       1.250   1.250

     Mode symmetry, D_6h(6/mmm) point group:


     Atomic displacements:
     There are   4 irreducible representations

     Representation     1      1 modes -B_1g  To be done

     Representation     2      2 modes -E_2g  To be done

     Representation     3      1 modes -A_2u  To be done

     Representation     4      2 modes -E_1u  To be done



     Alpha used in Ewald sum =   2.8000
     PHONON       :     8.35s CPU        27.82s WALL



     Representation #  1 mode #   1

     Self-consistent Calculation
 
     Pert. #  1: Fermi energy shift (Ry) =     0.0000E+00     2.4489E-40

      iter #   1 total cpu time :    28.6 secs   av.it.:   5.4
      thresh= 1.000E-02 alpha_mix =  0.700 |ddv_scf|^2 =  2.687E-05
 
     Pert. #  1: Fermi energy shift (Ry) =     2.8234E-22    -2.4489E-40

      iter #   2 total cpu time :    30.1 secs   av.it.:   7.1
      thresh= 5.184E-04 alpha_mix =  0.700 |ddv_scf|^2 =  1.678E-05
 
     Pert. #  1: Fermi energy shift (Ry) =     2.8234E-22    -1.2245E-40

      iter #   3 total cpu time :    30.7 secs   av.it.:   6.9
      thresh= 4.097E-04 alpha_mix =  0.700 |ddv_scf|^2 =  2.134E-08
 
     Pert. #  1: Fermi energy shift (Ry) =    -1.4117E-22    -7.6530E-42

      iter #   4 total cpu time :    31.3 secs   av.it.:   8.3
      thresh= 1.461E-05 alpha_mix =  0.700 |ddv_scf|^2 =  8.783E-11
 
     Pert. #  1: Fermi energy shift (Ry) =     1.4117E-22    -5.9789E-44

      iter #   5 total cpu time :    31.9 secs   av.it.:   7.3
      thresh= 9.372E-07 alpha_mix =  0.700 |ddv_scf|^2 =  1.688E-12
 
     Pert. #  1: Fermi energy shift (Ry) =    -1.4117E-22    -1.1958E-43

      iter #   6 total cpu time :    33.0 secs   av.it.:   7.2
      thresh= 1.299E-07 alpha_mix =  0.700 |ddv_scf|^2 =  5.045E-15
 
     Pert. #  1: Fermi energy shift (Ry) =    -1.4117E-22    -1.1958E-43

      iter #   7 total cpu time :    33.6 secs   av.it.:   8.1
      thresh= 7.103E-09 alpha_mix =  0.700 |ddv_scf|^2 =  1.365E-17

     End of self-consistent calculation

     Convergence has been achieved 


     Representation #  2 modes #   2  3

     Self-consistent Calculation
 
     Pert. #  1: Fermi energy shift (Ry) =     5.7982E-20    -2.0851E-41
     Pert. #  2: Fermi energy shift (Ry) =     2.3491E-19    -1.9132E-41

      iter #   1 total cpu time :    35.8 secs   av.it.:   5.1
      thresh= 1.000E-02 alpha_mix =  0.700 |ddv_scf|^2 =  7.210E-07
 
     Pert. #  1: Fermi energy shift (Ry) =     8.4155E-21    -3.0223E-41
     Pert. #  2: Fermi energy shift (Ry) =     1.8070E-20     9.1835E-41

      iter #   2 total cpu time :    39.1 secs   av.it.:   8.6
      thresh= 8.491E-05 alpha_mix =  0.700 |ddv_scf|^2 =  1.242E-08
 
     Pert. #  1: Fermi energy shift (Ry) =     1.0686E-20    -9.7484E-43
     Pert. #  2: Fermi energy shift (Ry) =     1.1294E-21     6.6963E-42

      iter #   3 total cpu time :    43.1 secs   av.it.:   8.8
      thresh= 1.114E-05 alpha_mix =  0.700 |ddv_scf|^2 =  4.338E-10
 
     Pert. #  1: Fermi energy shift (Ry) =     8.4297E-21    -5.9182E-43
     Pert. #  2: Fermi energy shift (Ry) =     5.6469E-21    -2.3915E-43

      iter #   4 total cpu time :    55.0 secs   av.it.:   8.4
      thresh= 2.083E-06 alpha_mix =  0.700 |ddv_scf|^2 =  1.442E-12
 
     Pert. #  1: Fermi energy shift (Ry) =    -2.2980E-21     1.1059E-43
     Pert. #  2: Fermi energy shift (Ry) =     5.6469E-21     2.9894E-43

      iter #   5 total cpu time :    60.2 secs   av.it.:   8.9
      thresh= 1.201E-07 alpha_mix =  0.700 |ddv_scf|^2 =  2.074E-15
 
     Pert. #  1: Fermi energy shift (Ry) =     5.2548E-22     6.2766E-44
     Pert. #  2: Fermi energy shift (Ry) =     2.2588E-21    -5.9789E-44

      iter #   6 total cpu time :    66.7 secs   av.it.:   7.6
      thresh= 4.554E-09 alpha_mix =  0.700 |ddv_scf|^2 =  9.283E-17

     End of self-consistent calculation

     Convergence has been achieved 


     Representation #  3 mode #   4

     Self-consistent Calculation
 
     Pert. #  1: Fermi energy shift (Ry) =    -1.7233E-26     1.2539E-37

      iter #   1 total cpu time :    71.3 secs   av.it.:   5.1
      thresh= 1.000E-02 alpha_mix =  0.700 |ddv_scf|^2 =  2.705E-06
 
     Pert. #  1: Fermi energy shift (Ry) =     8.6165E-27     2.4489E-40

      iter #   2 total cpu time :    73.6 secs   av.it.:   8.0
      thresh= 1.645E-04 alpha_mix =  0.700 |ddv_scf|^2 =  5.066E-08
 
     Pert. #  1: Fermi energy shift (Ry) =    -8.6165E-27    -1.2245E-40

      iter #   3 total cpu time :    76.9 secs   av.it.:   8.2
      thresh= 2.251E-05 alpha_mix =  0.700 |ddv_scf|^2 =  1.139E-09
 
     Pert. #  1: Fermi energy shift (Ry) =    -6.4623E-27     3.0612E-41

      iter #   4 total cpu time :    79.0 secs   av.it.:   7.7
      thresh= 3.375E-06 alpha_mix =  0.700 |ddv_scf|^2 =  3.829E-12
 
     Pert. #  1: Fermi energy shift (Ry) =     2.1541E-27     1.9132E-42

      iter #   5 total cpu time :    84.9 secs   av.it.:   8.2
      thresh= 1.957E-07 alpha_mix =  0.700 |ddv_scf|^2 =  8.137E-15
 
     Pert. #  1: Fermi energy shift (Ry) =    -1.0771E-27     4.7831E-43

      iter #   6 total cpu time :    90.2 secs   av.it.:   7.6
      thresh= 9.020E-09 alpha_mix =  0.700 |ddv_scf|^2 =  2.049E-16

     End of self-consistent calculation

     Convergence has been achieved 


     Representation #  4 modes #   5  6

     Self-consistent Calculation
 
     Pert. #  1: Fermi energy shift (Ry) =     1.5800E-23    -4.7020E-37
     Pert. #  2: Fermi energy shift (Ry) =    -7.7204E-24     4.3885E-37

      iter #   1 total cpu time :    93.4 secs   av.it.:   5.2
      thresh= 1.000E-02 alpha_mix =  0.700 |ddv_scf|^2 =  6.787E-07
 
     Pert. #  1: Fermi energy shift (Ry) =     1.6435E-24     3.6734E-39
     Pert. #  2: Fermi energy shift (Ry) =    -6.8932E-26    -3.4285E-39

      iter #   2 total cpu time :   103.8 secs   av.it.:   8.8
      thresh= 8.238E-05 alpha_mix =  0.700 |ddv_scf|^2 =  1.262E-08
 
     Pert. #  1: Fermi energy shift (Ry) =    -6.5443E-27     2.2959E-40
     Pert. #  2: Fermi energy shift (Ry) =    -3.4466E-26    -2.1428E-40

      iter #   3 total cpu time :   107.1 secs   av.it.:   9.0
      thresh= 1.123E-05 alpha_mix =  0.700 |ddv_scf|^2 =  2.956E-10
 
     Pert. #  1: Fermi energy shift (Ry) =     3.1112E-25     1.7219E-41
     Pert. #  2: Fermi energy shift (Ry) =    -1.1029E-24    -7.6530E-42

      iter #   4 total cpu time :   110.8 secs   av.it.:   8.7
      thresh= 1.719E-06 alpha_mix =  0.700 |ddv_scf|^2 =  9.949E-13
 
     Pert. #  1: Fermi energy shift (Ry) =     2.0548E-25     1.4947E-44
     Pert. #  2: Fermi energy shift (Ry) =    -5.5145E-25     0.0000E+00

      iter #   5 total cpu time :   114.6 secs   av.it.:   9.1
      thresh= 9.975E-08 alpha_mix =  0.700 |ddv_scf|^2 =  1.984E-15
 
     Pert. #  1: Fermi energy shift (Ry) =    -6.5612E-25     1.4947E-44
     Pert. #  2: Fermi energy shift (Ry) =    -5.5145E-25     0.0000E+00

      iter #   6 total cpu time :   129.1 secs   av.it.:   8.6
      thresh= 4.454E-09 alpha_mix =  0.700 |ddv_scf|^2 =  5.078E-17

     End of self-consistent calculation

     Convergence has been achieved 
 
     Number of q in the star =    1
     List of q in the star:
          1   0.000000000   0.000000000   0.000000000

     Diagonalizing the dynamical matrix

     q = (    0.000000000   0.000000000   0.000000000 ) 

 **************************************************************************
     freq (    1) =      -0.474809 [THz] =     -15.837922 [cm-1]
     freq (    2) =      -0.414703 [THz] =     -13.833015 [cm-1]
     freq (    3) =      -0.414703 [THz] =     -13.833015 [cm-1]
     freq (    4) =       1.528879 [THz] =      50.997930 [cm-1]
     freq (    5) =       1.528879 [THz] =      50.997930 [cm-1]
     freq (    6) =       3.591700 [THz] =     119.806209 [cm-1]
 **************************************************************************

     Mode symmetry, D_6h(6/mmm) point group:

     freq (  1 -  1) =        -15.8  [cm-1]   --> A_2u            I  
     freq (  2 -  3) =        -13.8  [cm-1]   --> E_1u            I  
     freq (  4 -  5) =         51.0  [cm-1]   --> E_2g            R  
     freq (  6 -  6) =        119.8  [cm-1]   --> B_1g               

     Calculation of q =    0.0000000   0.0000000   0.1533310
 
     Parallelization info
     --------------------
     sticks:   dense  smooth     PW     G-vecs:    dense   smooth      PW
     Min         143      72     21                 6353     2239     375
     Max         144      73     22                 6358     2257     381
     Sum        1147     583    169                50833    17969    3027
 


     bravais-lattice index     =            4
     lattice parameter (alat)  =       7.1900  a.u.
     unit-cell volume          =     524.8406 (a.u.)^3
     number of atoms/cell      =            2
     number of atomic types    =            1
     number of electrons       =        18.00
     number of Kohn-Sham states=           13
     kinetic-energy cutoff     =      40.0000  Ry
     charge density cutoff     =     320.0000  Ry
     Exchange-correlation      = SLA  PW   PBE  PBE ( 1  4  3  4 0 0)

     celldm(1)=   7.190000  celldm(2)=   0.000000  celldm(3)=   1.630460
     celldm(4)=   0.000000  celldm(5)=   0.000000  celldm(6)=   0.000000

     crystal axes: (cart. coord. in units of alat)
               a(1) = (   1.000000   0.000000   0.000000 )  
               a(2) = (  -0.500000   0.866025   0.000000 )  
               a(3) = (   0.000000   0.000000   1.630460 )  

     reciprocal axes: (cart. coord. in units 2 pi/alat)
               b(1) = (  1.000000  0.577350  0.000000 )  
               b(2) = (  0.000000  1.154701  0.000000 )  
               b(3) = (  0.000000  0.000000  0.613324 )  


     PseudoPot. # 1 for Na read from file:
     ./Na_pbe_v1.uspp.F.UPF
     MD5 check sum: 76a99c7e9422403d3e93cbc85ab7bccb
     Pseudo is Ultrasoft, Zval =  9.0
     Generated by new atomic code, or converted to UPF format
     Using radial grid of  819 points,  5 beta functions with: 
                l(1) =   0
                l(2) =   0
                l(3) =   1
                l(4) =   1
                l(5) =   2
     Q(r) pseudized with  8 coefficients,  rinner =    1.250   1.250   1.250
                                                       1.250   1.250

     atomic species   valence    mass     pseudopotential
        Na             9.00    22.99000     Na( 1.00)

     24 Sym. Ops., with inversion, found



   Cartesian axes

     site n.     atom                  positions (alat units)
         1           Na  tau(   1) = (   0.0000000   0.0000000   0.0000000  )
         2           Na  tau(   2) = (   0.5000000   0.2886751   0.8152300  )

     number of k points=  1464  Marzari-Vanderbilt smearing, width (Ry)=  0.0200

     Number of k-points >= 100: set verbosity='high' to print them.

     Dense  grid:    50833 G-vectors     FFT dimensions: (  45,  45,  72)

     Smooth grid:    17969 G-vectors     FFT dimensions: (  30,  30,  48)

     Largest allocated arrays     est. size (Mb)     dimensions
        Kohn-Sham Wavefunctions         0.06 Mb     (     297,   13)
        NL pseudopotentials             0.12 Mb     (     297,   26)
        Each V/rho on FFT grid          0.28 Mb     (   18225)
        Each G-vector array             0.05 Mb     (    6358)
        G-vector shells                 0.01 Mb     (    1645)
     Largest temporary arrays     est. size (Mb)     dimensions
        Auxiliary wavefunctions         0.24 Mb     (     297,   52)
        Each subspace H/S matrix        0.01 Mb     (      26,   26)
        Each <psi_i|beta_j> matrix      0.01 Mb     (      26,   13)

     The potential is recalculated from file :
     ./na_hcp_7.19/_ph0/na_hcp_7.19.save/charge-density.dat

     Starting wfc are   10 atomic +    3 random wfc

     Band Structure Calculation
     Davidson diagonalization with overlap

     ethr =  5.56E-11,  avg # of iterations = 24.1

     total cpu time spent up to now is        4.7 secs

     End of band structure calculation

     Number of k-points >= 100: set verbosity='high' to print the bands.

     the Fermi energy is     1.4102 ev

     Writing output data file na_hcp_7.19.save

                                                                                

     bravais-lattice index     =            4
     lattice parameter (alat)  =       7.1900  a.u.
     unit-cell volume          =     524.8406 (a.u.)^3
     number of atoms/cell      =            2
     number of atomic types    =            1
     kinetic-energy cut-off    =      40.0000  Ry
     charge density cut-off    =     320.0000  Ry
     convergence threshold     =      1.0E-15
     beta                      =       0.7000
     number of iterations used =            4
     Exchange-correlation      = SLA  PW   PBE  PBE ( 1  4  3  4 0 0)


     celldm(1)=    7.19000  celldm(2)=    0.00000  celldm(3)=    1.63046
     celldm(4)=    0.00000  celldm(5)=    0.00000  celldm(6)=    0.00000

     crystal axes: (cart. coord. in units of alat)
               a(1) = (  1.0000  0.0000  0.0000 )  
               a(2) = ( -0.5000  0.8660  0.0000 )  
               a(3) = (  0.0000  0.0000  1.6305 )  

     reciprocal axes: (cart. coord. in units 2 pi/alat)
               b(1) = (  1.0000  0.5774  0.0000 )  
               b(2) = (  0.0000  1.1547  0.0000 )  
               b(3) = (  0.0000  0.0000  0.6133 )  


     Atoms inside the unit cell: 

     Cartesian axes

     site n.  atom      mass           positions (alat units)
        1     Na  22.9900   tau(    1) = (    0.00000    0.00000    0.00000  )
        2     Na  22.9900   tau(    2) = (    0.50000    0.28868    0.81523  )

     Computing dynamical matrix for 
                    q = (   0.0000000   0.0000000   0.1533310 )
 
     12 Sym.Ops. (no q -> -q+G )


     G cutoff =  419.0328  (   6358 G-vectors)     FFT grid: ( 45, 45, 72)
     G cutoff =  209.5164  (   2241 G-vectors)  smooth grid: ( 30, 30, 48)

     number of k points=  1464  Marzari-Vanderbilt smearing, width (Ry)=  0.0200

     PseudoPot. # 1 for Na read from file:
     ./Na_pbe_v1.uspp.F.UPF
     MD5 check sum: 76a99c7e9422403d3e93cbc85ab7bccb
     Pseudo is Ultrasoft, Zval =  9.0
     Generated by new atomic code, or converted to UPF format
     Using radial grid of  819 points,  5 beta functions with: 
                l(1) =   0
                l(2) =   0
                l(3) =   1
                l(4) =   1
                l(5) =   2
     Q(r) pseudized with  8 coefficients,  rinner =    1.250   1.250   1.250
                                                       1.250   1.250

     Mode symmetry, C_6v (6mm)  point group:


     Atomic displacements:
     There are   4 irreducible representations

     Representation     1      1 modes -A_1  To be done

     Representation     2      1 modes -B_2  To be done

     Representation     3      2 modes -E_1  To be done

     Representation     4      2 modes -E_2  To be done



     Alpha used in Ewald sum =   2.8000
     PHONON       :  1m51.85s CPU     2m18.20s WALL



     Representation #  1 mode #   1

     Self-consistent Calculation

      iter #   1 total cpu time :   139.2 secs   av.it.:   5.4
      thresh= 1.000E-02 alpha_mix =  0.700 |ddv_scf|^2 =  4.490E-02

      iter #   2 total cpu time :   140.8 secs   av.it.:   6.8
      thresh= 1.000E-02 alpha_mix =  0.700 |ddv_scf|^2 =  2.561E+01

      iter #   3 total cpu time :   148.3 secs   av.it.:   6.8
      thresh= 1.000E-02 alpha_mix =  0.700 |ddv_scf|^2 =  1.005E-04

      iter #   4 total cpu time :   161.7 secs   av.it.:   5.5
      thresh= 1.003E-03 alpha_mix =  0.700 |ddv_scf|^2 =  3.469E-08

      iter #   5 total cpu time :   165.1 secs   av.it.:   7.7
      thresh= 1.863E-05 alpha_mix =  0.700 |ddv_scf|^2 =  3.084E-09

      iter #   6 total cpu time :   167.8 secs   av.it.:   6.7
      thresh= 5.553E-06 alpha_mix =  0.700 |ddv_scf|^2 =  2.074E-07

      iter #   7 total cpu time :   170.7 secs   av.it.:   5.1
      thresh= 4.554E-05 alpha_mix =  0.700 |ddv_scf|^2 =  1.006E-11

      iter #   8 total cpu time :   188.4 secs   av.it.:   8.4
      thresh= 3.171E-07 alpha_mix =  0.700 |ddv_scf|^2 =  2.590E-13

      iter #   9 total cpu time :   190.6 secs   av.it.:   8.8
      thresh= 5.089E-08 alpha_mix =  0.700 |ddv_scf|^2 =  1.266E-14

      iter #  10 total cpu time :   192.5 secs   av.it.:   8.7
      thresh= 1.125E-08 alpha_mix =  0.700 |ddv_scf|^2 =  6.607E-14

      iter #  11 total cpu time :   194.6 secs   av.it.:   6.0
      thresh= 2.570E-08 alpha_mix =  0.700 |ddv_scf|^2 =  7.245E-14

      iter #  12 total cpu time :   197.5 secs   av.it.:   5.7
      thresh= 2.692E-08 alpha_mix =  0.700 |ddv_scf|^2 =  1.460E-15

      iter #  13 total cpu time :   199.8 secs   av.it.:   6.0
      thresh= 3.821E-09 alpha_mix =  0.700 |ddv_scf|^2 =  1.469E-15

      iter #  14 total cpu time :   202.1 secs   av.it.:   5.6
      thresh= 3.832E-09 alpha_mix =  0.700 |ddv_scf|^2 =  1.309E-18

     End of self-consistent calculation

     Convergence has been achieved 


     Representation #  2 mode #   2

     Self-consistent Calculation

      iter #   1 total cpu time :   204.0 secs   av.it.:   5.4
      thresh= 1.000E-02 alpha_mix =  0.700 |ddv_scf|^2 =  7.092E-05

      iter #   2 total cpu time :   207.7 secs   av.it.:   7.2
      thresh= 8.422E-04 alpha_mix =  0.700 |ddv_scf|^2 =  2.464E-04

      iter #   3 total cpu time :   210.2 secs   av.it.:   6.4
      thresh= 1.570E-03 alpha_mix =  0.700 |ddv_scf|^2 =  1.207E-07

      iter #   4 total cpu time :   212.5 secs   av.it.:   8.2
      thresh= 3.475E-05 alpha_mix =  0.700 |ddv_scf|^2 =  3.247E-09

      iter #   5 total cpu time :   214.9 secs   av.it.:   8.7
      thresh= 5.698E-06 alpha_mix =  0.700 |ddv_scf|^2 =  7.384E-11

      iter #   6 total cpu time :   218.0 secs   av.it.:   8.7
      thresh= 8.593E-07 alpha_mix =  0.700 |ddv_scf|^2 =  5.403E-12

      iter #   7 total cpu time :   222.5 secs   av.it.:   8.3
      thresh= 2.325E-07 alpha_mix =  0.700 |ddv_scf|^2 =  3.247E-13

      iter #   8 total cpu time :   234.1 secs   av.it.:   8.6
      thresh= 5.698E-08 alpha_mix =  0.700 |ddv_scf|^2 =  1.896E-14

      iter #   9 total cpu time :   240.2 secs   av.it.:   7.7
      thresh= 1.377E-08 alpha_mix =  0.700 |ddv_scf|^2 =  7.608E-16

     End of self-consistent calculation

     Convergence has been achieved 


     Representation #  3 modes #   3  4

     Self-consistent Calculation

      iter #   1 total cpu time :   253.5 secs   av.it.:   5.1
      thresh= 1.000E-02 alpha_mix =  0.700 |ddv_scf|^2 =  6.841E-07

      iter #   2 total cpu time :   259.3 secs   av.it.:   8.6
      thresh= 8.271E-05 alpha_mix =  0.700 |ddv_scf|^2 =  1.260E-08

      iter #   3 total cpu time :   265.0 secs   av.it.:   8.8
      thresh= 1.123E-05 alpha_mix =  0.700 |ddv_scf|^2 =  3.107E-10

      iter #   4 total cpu time :   284.0 secs   av.it.:   8.5
      thresh= 1.763E-06 alpha_mix =  0.700 |ddv_scf|^2 =  1.037E-12

      iter #   5 total cpu time :   291.4 secs   av.it.:   8.9
      thresh= 1.018E-07 alpha_mix =  0.700 |ddv_scf|^2 =  2.026E-15

      iter #   6 total cpu time :   296.2 secs   av.it.:   8.3
      thresh= 4.501E-09 alpha_mix =  0.700 |ddv_scf|^2 =  5.895E-17

     End of self-consistent calculation

     Convergence has been achieved 


     Representation #  4 modes #   5  6

     Self-consistent Calculation

      iter #   1 total cpu time :   304.6 secs   av.it.:   5.1
      thresh= 1.000E-02 alpha_mix =  0.700 |ddv_scf|^2 =  7.140E-07

      iter #   2 total cpu time :   314.7 secs   av.it.:   8.6
      thresh= 8.450E-05 alpha_mix =  0.700 |ddv_scf|^2 =  1.246E-08

      iter #   3 total cpu time :   328.9 secs   av.it.:   8.8
      thresh= 1.116E-05 alpha_mix =  0.700 |ddv_scf|^2 =  4.079E-10

      iter #   4 total cpu time :   336.6 secs   av.it.:   8.5
      thresh= 2.020E-06 alpha_mix =  0.700 |ddv_scf|^2 =  1.354E-12

      iter #   5 total cpu time :   344.7 secs   av.it.:   8.9
      thresh= 1.164E-07 alpha_mix =  0.700 |ddv_scf|^2 =  2.089E-15

      iter #   6 total cpu time :   359.4 secs   av.it.:   7.9
      thresh= 4.570E-09 alpha_mix =  0.700 |ddv_scf|^2 =  8.832E-17

     End of self-consistent calculation

     Convergence has been achieved 
 
     Number of q in the star =    2
     List of q in the star:
          1   0.000000000   0.000000000   0.153330962
          2   0.000000000   0.000000000  -0.153330962

     Diagonalizing the dynamical matrix

     q = (    0.000000000   0.000000000   0.153330962 ) 

 **************************************************************************
     freq (    1) =       0.434576 [THz] =      14.495891 [cm-1]
     freq (    2) =       0.434576 [THz] =      14.495891 [cm-1]
     freq (    3) =       1.402811 [THz] =      46.792753 [cm-1]
     freq (    4) =       1.402811 [THz] =      46.792753 [cm-1]
     freq (    5) =       1.445105 [THz] =      48.203520 [cm-1]
     freq (    6) =       3.351287 [THz] =     111.786913 [cm-1]
 **************************************************************************

     Mode symmetry, C_6v (6mm)  point group:

     freq (  1 -  2) =         14.5  [cm-1]   --> E_1                
     freq (  3 -  4) =         46.8  [cm-1]   --> E_2                
     freq (  5 -  5) =         48.2  [cm-1]   --> A_1                
     freq (  6 -  6) =        111.8  [cm-1]   --> B_2                

     Calculation of q =    0.0000000   0.0000000  -0.3066619
 
     Parallelization info
     --------------------
     sticks:   dense  smooth     PW     G-vecs:    dense   smooth      PW
     Min         143      72     20                 6353     2239     368
     Max         144      73     21                 6358     2255     377
     Sum        1147     583    163                50833    17969    2971
 


     bravais-lattice index     =            4
     lattice parameter (alat)  =       7.1900  a.u.
     unit-cell volume          =     524.8406 (a.u.)^3
     number of atoms/cell      =            2
     number of atomic types    =            1
     number of electrons       =        18.00
     number of Kohn-Sham states=           13
     kinetic-energy cutoff     =      40.0000  Ry
     charge density cutoff     =     320.0000  Ry
     Exchange-correlation      = SLA  PW   PBE  PBE ( 1  4  3  4 0 0)

     celldm(1)=   7.190000  celldm(2)=   0.000000  celldm(3)=   1.630460
     celldm(4)=   0.000000  celldm(5)=   0.000000  celldm(6)=   0.000000

     crystal axes: (cart. coord. in units of alat)
               a(1) = (   1.000000   0.000000   0.000000 )  
               a(2) = (  -0.500000   0.866025   0.000000 )  
               a(3) = (   0.000000   0.000000   1.630460 )  

     reciprocal axes: (cart. coord. in units 2 pi/alat)
               b(1) = (  1.000000  0.577350  0.000000 )  
               b(2) = (  0.000000  1.154701  0.000000 )  
               b(3) = (  0.000000  0.000000  0.613324 )  


     PseudoPot. # 1 for Na read from file:
     ./Na_pbe_v1.uspp.F.UPF
     MD5 check sum: 76a99c7e9422403d3e93cbc85ab7bccb
     Pseudo is Ultrasoft, Zval =  9.0
     Generated by new atomic code, or converted to UPF format
     Using radial grid of  819 points,  5 beta functions with: 
                l(1) =   0
                l(2) =   0
                l(3) =   1
                l(4) =   1
                l(5) =   2
     Q(r) pseudized with  8 coefficients,  rinner =    1.250   1.250   1.250
                                                       1.250   1.250

     atomic species   valence    mass     pseudopotential
        Na             9.00    22.99000     Na( 1.00)

     24 Sym. Ops., with inversion, found



   Cartesian axes

     site n.     atom                  positions (alat units)
         1           Na  tau(   1) = (   0.0000000   0.0000000   0.0000000  )
         2           Na  tau(   2) = (   0.5000000   0.2886751   0.8152300  )

     number of k points=   732  Marzari-Vanderbilt smearing, width (Ry)=  0.0200

     Number of k-points >= 100: set verbosity='high' to print them.

     Dense  grid:    50833 G-vectors     FFT dimensions: (  45,  45,  72)

     Smooth grid:    17969 G-vectors     FFT dimensions: (  30,  30,  48)

     Largest allocated arrays     est. size (Mb)     dimensions
        Kohn-Sham Wavefunctions         0.06 Mb     (     294,   13)
        NL pseudopotentials             0.12 Mb     (     294,   26)
        Each V/rho on FFT grid          0.28 Mb     (   18225)
        Each G-vector array             0.05 Mb     (    6358)
        G-vector shells                 0.01 Mb     (    1679)
     Largest temporary arrays     est. size (Mb)     dimensions
        Auxiliary wavefunctions         0.23 Mb     (     294,   52)
        Each subspace H/S matrix        0.01 Mb     (      26,   26)
        Each <psi_i|beta_j> matrix      0.01 Mb     (      26,   13)

     The potential is recalculated from file :
     ./na_hcp_7.19/_ph0/na_hcp_7.19.save/charge-density.dat

     Starting wfc are   10 atomic +    3 random wfc

     Band Structure Calculation
     Davidson diagonalization with overlap

     ethr =  5.56E-11,  avg # of iterations = 24.1

     total cpu time spent up to now is        9.0 secs

     End of band structure calculation

     Number of k-points >= 100: set verbosity='high' to print the bands.

     the Fermi energy is     1.4102 ev

     Writing output data file na_hcp_7.19.save

                                                                                

     bravais-lattice index     =            4
     lattice parameter (alat)  =       7.1900  a.u.
     unit-cell volume          =     524.8406 (a.u.)^3
     number of atoms/cell      =            2
     number of atomic types    =            1
     kinetic-energy cut-off    =      40.0000  Ry
     charge density cut-off    =     320.0000  Ry
     convergence threshold     =      1.0E-15
     beta                      =       0.7000
     number of iterations used =            4
     Exchange-correlation      = SLA  PW   PBE  PBE ( 1  4  3  4 0 0)


     celldm(1)=    7.19000  celldm(2)=    0.00000  celldm(3)=    1.63046
     celldm(4)=    0.00000  celldm(5)=    0.00000  celldm(6)=    0.00000

     crystal axes: (cart. coord. in units of alat)
               a(1) = (  1.0000  0.0000  0.0000 )  
               a(2) = ( -0.5000  0.8660  0.0000 )  
               a(3) = (  0.0000  0.0000  1.6305 )  

     reciprocal axes: (cart. coord. in units 2 pi/alat)
               b(1) = (  1.0000  0.5774  0.0000 )  
               b(2) = (  0.0000  1.1547  0.0000 )  
               b(3) = (  0.0000  0.0000  0.6133 )  


     Atoms inside the unit cell: 

     Cartesian axes

     site n.  atom      mass           positions (alat units)
        1     Na  22.9900   tau(    1) = (    0.00000    0.00000    0.00000  )
        2     Na  22.9900   tau(    2) = (    0.50000    0.28868    0.81523  )

     Computing dynamical matrix for 
                    q = (   0.0000000   0.0000000  -0.3066619 )
 
     25 Sym.Ops. (with q -> -q+G )


     G cutoff =  419.0328  (   6358 G-vectors)     FFT grid: ( 45, 45, 72)
     G cutoff =  209.5164  (   2241 G-vectors)  smooth grid: ( 30, 30, 48)

     number of k points=   732  Marzari-Vanderbilt smearing, width (Ry)=  0.0200

     PseudoPot. # 1 for Na read from file:
     ./Na_pbe_v1.uspp.F.UPF
     MD5 check sum: 76a99c7e9422403d3e93cbc85ab7bccb
     Pseudo is Ultrasoft, Zval =  9.0
     Generated by new atomic code, or converted to UPF format
     Using radial grid of  819 points,  5 beta functions with: 
                l(1) =   0
                l(2) =   0
                l(3) =   1
                l(4) =   1
                l(5) =   2
     Q(r) pseudized with  8 coefficients,  rinner =    1.250   1.250   1.250
                                                       1.250   1.250


     Atomic displacements:
     There are   2 irreducible representations

     Representation     1      4 modes -  To be done

     Representation     2      2 modes -  To be done



     Alpha used in Ewald sum =   2.8000
     PHONON       :  5m 4.22s CPU     6m 7.25s WALL



     Representation #  1 modes #   1  2  3  4

     Self-consistent Calculation

      iter #   1 total cpu time :   376.2 secs   av.it.:   5.2
      thresh= 1.000E-02 alpha_mix =  0.700 |ddv_scf|^2 =  1.746E-07

      iter #   2 total cpu time :   394.8 secs   av.it.:   9.4
      thresh= 4.178E-05 alpha_mix =  0.700 |ddv_scf|^2 =  3.131E-09

      iter #   3 total cpu time :   405.1 secs   av.it.:   9.7
      thresh= 5.595E-06 alpha_mix =  0.700 |ddv_scf|^2 =  8.819E-11

      iter #   4 total cpu time :   420.5 secs   av.it.:   9.2
      thresh= 9.391E-07 alpha_mix =  0.700 |ddv_scf|^2 =  2.936E-13

      iter #   5 total cpu time :   429.7 secs   av.it.:   9.5
      thresh= 5.419E-08 alpha_mix =  0.700 |ddv_scf|^2 =  5.238E-16

     End of self-consistent calculation

     Convergence has been achieved 


     Representation #  2 modes #   5  6

     Self-consistent Calculation

      iter #   1 total cpu time :   436.3 secs   av.it.:   5.7
      thresh= 1.000E-02 alpha_mix =  0.700 |ddv_scf|^2 =  1.789E-04

      iter #   2 total cpu time :   440.1 secs   av.it.:   7.7
      thresh= 1.338E-03 alpha_mix =  0.700 |ddv_scf|^2 =  5.010E-03

      iter #   3 total cpu time :   442.7 secs   av.it.:   6.1
      thresh= 7.078E-03 alpha_mix =  0.700 |ddv_scf|^2 =  1.221E-07

      iter #   4 total cpu time :   448.1 secs   av.it.:   8.6
      thresh= 3.494E-05 alpha_mix =  0.700 |ddv_scf|^2 =  6.671E-10

      iter #   5 total cpu time :   455.0 secs   av.it.:   9.5
      thresh= 2.583E-06 alpha_mix =  0.700 |ddv_scf|^2 =  4.840E-11

      iter #   6 total cpu time :   464.0 secs   av.it.:   9.4
      thresh= 6.957E-07 alpha_mix =  0.700 |ddv_scf|^2 =  1.312E-12

      iter #   7 total cpu time :   470.0 secs   av.it.:   9.7
      thresh= 1.146E-07 alpha_mix =  0.700 |ddv_scf|^2 =  1.889E-13

      iter #   8 total cpu time :   481.1 secs   av.it.:   8.3
      thresh= 4.346E-08 alpha_mix =  0.700 |ddv_scf|^2 =  2.519E-16

     End of self-consistent calculation

     Convergence has been achieved 
 
     Number of q in the star =    1
     List of q in the star:
          1   0.000000000   0.000000000  -0.306661924

     Diagonalizing the dynamical matrix

     q = (    0.000000000   0.000000000  -0.306661924 ) 

 **************************************************************************
     freq (    1) =       0.914458 [THz] =      30.503021 [cm-1]
     freq (    2) =       0.914458 [THz] =      30.503021 [cm-1]
     freq (    3) =       0.914458 [THz] =      30.503021 [cm-1]
     freq (    4) =       0.914458 [THz] =      30.503021 [cm-1]
     freq (    5) =       2.634633 [THz] =      87.881893 [cm-1]
     freq (    6) =       2.634633 [THz] =      87.881893 [cm-1]
 **************************************************************************

     Calculation of q =    0.0000000   0.2886751   0.0000000
 
     Parallelization info
     --------------------
     sticks:   dense  smooth     PW     G-vecs:    dense   smooth      PW
     Min         143      72     22                 6353     2237     407
     Max         144      73     24                 6358     2255     412
     Sum        1147     583    187                50833    17969    3285
 


     bravais-lattice index     =            4
     lattice parameter (alat)  =       7.1900  a.u.
     unit-cell volume          =     524.8406 (a.u.)^3
     number of atoms/cell      =            2
     number of atomic types    =            1
     number of electrons       =        18.00
     number of Kohn-Sham states=           13
     kinetic-energy cutoff     =      40.0000  Ry
     charge density cutoff     =     320.0000  Ry
     Exchange-correlation      = SLA  PW   PBE  PBE ( 1  4  3  4 0 0)

     celldm(1)=   7.190000  celldm(2)=   0.000000  celldm(3)=   1.630460
     celldm(4)=   0.000000  celldm(5)=   0.000000  celldm(6)=   0.000000

     crystal axes: (cart. coord. in units of alat)
               a(1) = (   1.000000   0.000000   0.000000 )  
               a(2) = (  -0.500000   0.866025   0.000000 )  
               a(3) = (   0.000000   0.000000   1.630460 )  

     reciprocal axes: (cart. coord. in units 2 pi/alat)
               b(1) = (  1.000000  0.577350  0.000000 )  
               b(2) = (  0.000000  1.154701  0.000000 )  
               b(3) = (  0.000000  0.000000  0.613324 )  


     PseudoPot. # 1 for Na read from file:
     ./Na_pbe_v1.uspp.F.UPF
     MD5 check sum: 76a99c7e9422403d3e93cbc85ab7bccb
     Pseudo is Ultrasoft, Zval =  9.0
     Generated by new atomic code, or converted to UPF format
     Using radial grid of  819 points,  5 beta functions with: 
                l(1) =   0
                l(2) =   0
                l(3) =   1
                l(4) =   1
                l(5) =   2
     Q(r) pseudized with  8 coefficients,  rinner =    1.250   1.250   1.250
                                                       1.250   1.250

     atomic species   valence    mass     pseudopotential
        Na             9.00    22.99000     Na( 1.00)

     24 Sym. Ops., with inversion, found



   Cartesian axes

     site n.     atom                  positions (alat units)
         1           Na  tau(   1) = (   0.0000000   0.0000000   0.0000000  )
         2           Na  tau(   2) = (   0.5000000   0.2886751   0.8152300  )

     number of k points=  3600  Marzari-Vanderbilt smearing, width (Ry)=  0.0200

     Number of k-points >= 100: set verbosity='high' to print them.

     Dense  grid:    50833 G-vectors     FFT dimensions: (  45,  45,  72)

     Smooth grid:    17969 G-vectors     FFT dimensions: (  30,  30,  48)

     Largest allocated arrays     est. size (Mb)     dimensions
        Kohn-Sham Wavefunctions         0.06 Mb     (     303,   13)
        NL pseudopotentials             0.12 Mb     (     303,   26)
        Each V/rho on FFT grid          0.28 Mb     (   18225)
        Each G-vector array             0.05 Mb     (    6358)
        G-vector shells                 0.01 Mb     (    1677)
     Largest temporary arrays     est. size (Mb)     dimensions
        Auxiliary wavefunctions         0.24 Mb     (     303,   52)
        Each subspace H/S matrix        0.01 Mb     (      26,   26)
        Each <psi_i|beta_j> matrix      0.01 Mb     (      26,   13)

     The potential is recalculated from file :
     ./na_hcp_7.19/_ph0/na_hcp_7.19.save/charge-density.dat

     Starting wfc are   10 atomic +    3 random wfc

     Band Structure Calculation
     Davidson diagonalization with overlap

     ethr =  5.56E-11,  avg # of iterations = 23.2

     total cpu time spent up to now is       32.9 secs

     End of band structure calculation

     Number of k-points >= 100: set verbosity='high' to print the bands.

     the Fermi energy is     1.4102 ev

     Writing output data file na_hcp_7.19.save

                                                                                

     bravais-lattice index     =            4
     lattice parameter (alat)  =       7.1900  a.u.
     unit-cell volume          =     524.8406 (a.u.)^3
     number of atoms/cell      =            2
     number of atomic types    =            1
     kinetic-energy cut-off    =      40.0000  Ry
     charge density cut-off    =     320.0000  Ry
     convergence threshold     =      1.0E-15
     beta                      =       0.7000
     number of iterations used =            4
     Exchange-correlation      = SLA  PW   PBE  PBE ( 1  4  3  4 0 0)


     celldm(1)=    7.19000  celldm(2)=    0.00000  celldm(3)=    1.63046
     celldm(4)=    0.00000  celldm(5)=    0.00000  celldm(6)=    0.00000

     crystal axes: (cart. coord. in units of alat)
               a(1) = (  1.0000  0.0000  0.0000 )  
               a(2) = ( -0.5000  0.8660  0.0000 )  
               a(3) = (  0.0000  0.0000  1.6305 )  

     reciprocal axes: (cart. coord. in units 2 pi/alat)
               b(1) = (  1.0000  0.5774  0.0000 )  
               b(2) = (  0.0000  1.1547  0.0000 )  
               b(3) = (  0.0000  0.0000  0.6133 )  


     Atoms inside the unit cell: 

     Cartesian axes

     site n.  atom      mass           positions (alat units)
        1     Na  22.9900   tau(    1) = (    0.00000    0.00000    0.00000  )
        2     Na  22.9900   tau(    2) = (    0.50000    0.28868    0.81523  )

     Computing dynamical matrix for 
                    q = (   0.0000000   0.2886751   0.0000000 )
 
      4 Sym.Ops. (no q -> -q+G )


     G cutoff =  419.0328  (   6358 G-vectors)     FFT grid: ( 45, 45, 72)
     G cutoff =  209.5164  (   2241 G-vectors)  smooth grid: ( 30, 30, 48)

     number of k points=  3600  Marzari-Vanderbilt smearing, width (Ry)=  0.0200

     PseudoPot. # 1 for Na read from file:
     ./Na_pbe_v1.uspp.F.UPF
     MD5 check sum: 76a99c7e9422403d3e93cbc85ab7bccb
     Pseudo is Ultrasoft, Zval =  9.0
     Generated by new atomic code, or converted to UPF format
     Using radial grid of  819 points,  5 beta functions with: 
                l(1) =   0
                l(2) =   0
                l(3) =   1
                l(4) =   1
                l(5) =   2
     Q(r) pseudized with  8 coefficients,  rinner =    1.250   1.250   1.250
                                                       1.250   1.250

     Mode symmetry, C_2v (mm2)  point group:


     Atomic displacements:
     There are   6 irreducible representations

     Representation     1      1 modes -A_1  D_1  S_1  To be done

     Representation     2      1 modes -A_1  D_1  S_1  To be done

     Representation     3      1 modes -B_1  D_3  S_3  To be done

     Representation     4      1 modes -B_1  D_3  S_3  To be done

     Representation     5      1 modes -B_2  D_4  S_4  To be done

     Representation     6      1 modes -B_2  D_4  S_4  To be done



     Alpha used in Ewald sum =   2.8000
     PHONON       :  7m17.10s CPU     8m31.08s WALL



     Representation #  1 mode #   1

     Self-consistent Calculation

      iter #   1 total cpu time :   513.0 secs   av.it.:   5.7
      thresh= 1.000E-02 alpha_mix =  0.700 |ddv_scf|^2 =  5.165E-04

      iter #   2 total cpu time :   519.2 secs   av.it.:   7.3
      thresh= 2.273E-03 alpha_mix =  0.700 |ddv_scf|^2 =  1.905E-02

      iter #   3 total cpu time :   538.0 secs   av.it.:   5.3
      thresh= 1.000E-02 alpha_mix =  0.700 |ddv_scf|^2 =  4.402E-07

      iter #   4 total cpu time :   547.6 secs   av.it.:   8.2
      thresh= 6.634E-05 alpha_mix =  0.700 |ddv_scf|^2 =  2.692E-08

      iter #   5 total cpu time :   555.2 secs   av.it.:   8.3
      thresh= 1.641E-05 alpha_mix =  0.700 |ddv_scf|^2 =  6.534E-10

      iter #   6 total cpu time :   576.4 secs   av.it.:   8.7
      thresh= 2.556E-06 alpha_mix =  0.700 |ddv_scf|^2 =  1.679E-10

      iter #   7 total cpu time :   582.8 secs   av.it.:   7.8
      thresh= 1.296E-06 alpha_mix =  0.700 |ddv_scf|^2 =  1.543E-09

      iter #   8 total cpu time :   588.3 secs   av.it.:   6.7
      thresh= 3.928E-06 alpha_mix =  0.700 |ddv_scf|^2 =  2.220E-12

      iter #   9 total cpu time :   592.8 secs   av.it.:   8.8
      thresh= 1.490E-07 alpha_mix =  0.700 |ddv_scf|^2 =  4.548E-13

      iter #  10 total cpu time :   597.4 secs   av.it.:   7.7
      thresh= 6.744E-08 alpha_mix =  0.700 |ddv_scf|^2 =  1.940E-12

      iter #  11 total cpu time :   603.6 secs   av.it.:   6.9
      thresh= 1.393E-07 alpha_mix =  0.700 |ddv_scf|^2 =  1.517E-15

      iter #  12 total cpu time :   609.4 secs   av.it.:   8.9
      thresh= 3.895E-09 alpha_mix =  0.700 |ddv_scf|^2 =  8.625E-17

     End of self-consistent calculation

     Convergence has been achieved 


     Representation #  2 mode #   2

     Self-consistent Calculation

      iter #   1 total cpu time :   617.3 secs   av.it.:   5.7
      thresh= 1.000E-02 alpha_mix =  0.700 |ddv_scf|^2 =  5.165E-04

      iter #   2 total cpu time :   621.6 secs   av.it.:   7.3
      thresh= 2.273E-03 alpha_mix =  0.700 |ddv_scf|^2 =  1.905E-02

      iter #   3 total cpu time :   626.0 secs   av.it.:   5.3
      thresh= 1.000E-02 alpha_mix =  0.700 |ddv_scf|^2 =  4.402E-07

      iter #   4 total cpu time :   631.2 secs   av.it.:   8.2
      thresh= 6.635E-05 alpha_mix =  0.700 |ddv_scf|^2 =  2.692E-08

      iter #   5 total cpu time :   636.3 secs   av.it.:   8.3
      thresh= 1.641E-05 alpha_mix =  0.700 |ddv_scf|^2 =  6.530E-10

      iter #   6 total cpu time :   641.8 secs   av.it.:   8.7
      thresh= 2.555E-06 alpha_mix =  0.700 |ddv_scf|^2 =  1.423E-10

      iter #   7 total cpu time :   646.4 secs   av.it.:   7.9
      thresh= 1.193E-06 alpha_mix =  0.700 |ddv_scf|^2 =  1.555E-09

      iter #   8 total cpu time :   651.7 secs   av.it.:   6.6
      thresh= 3.944E-06 alpha_mix =  0.700 |ddv_scf|^2 =  2.342E-12

      iter #   9 total cpu time :   664.1 secs   av.it.:   8.8
      thresh= 1.530E-07 alpha_mix =  0.700 |ddv_scf|^2 =  4.528E-13

      iter #  10 total cpu time :   680.9 secs   av.it.:   7.7
      thresh= 6.729E-08 alpha_mix =  0.700 |ddv_scf|^2 =  1.958E-12

      iter #  11 total cpu time :   686.9 secs   av.it.:   6.9
      thresh= 1.399E-07 alpha_mix =  0.700 |ddv_scf|^2 =  1.516E-15

      iter #  12 total cpu time :   692.7 secs   av.it.:   8.9
      thresh= 3.894E-09 alpha_mix =  0.700 |ddv_scf|^2 =  8.650E-17

     End of self-consistent calculation

     Convergence has been achieved 


     Representation #  3 mode #   3

     Self-consistent Calculation

      iter #   1 total cpu time :   697.3 secs   av.it.:   5.3
      thresh= 1.000E-02 alpha_mix =  0.700 |ddv_scf|^2 =  3.026E-06

      iter #   2 total cpu time :   701.4 secs   av.it.:   8.3
      thresh= 1.739E-04 alpha_mix =  0.700 |ddv_scf|^2 =  4.857E-08

      iter #   3 total cpu time :   705.7 secs   av.it.:   8.7
      thresh= 2.204E-05 alpha_mix =  0.700 |ddv_scf|^2 =  2.299E-09

      iter #   4 total cpu time :   710.9 secs   av.it.:   8.2
      thresh= 4.795E-06 alpha_mix =  0.700 |ddv_scf|^2 =  1.364E-11

      iter #   5 total cpu time :   716.0 secs   av.it.:   8.3
      thresh= 3.693E-07 alpha_mix =  0.700 |ddv_scf|^2 =  1.034E-13

      iter #   6 total cpu time :   721.8 secs   av.it.:   8.7
      thresh= 3.216E-08 alpha_mix =  0.700 |ddv_scf|^2 =  3.728E-16

     End of self-consistent calculation

     Convergence has been achieved 


     Representation #  4 mode #   4

     Self-consistent Calculation

      iter #   1 total cpu time :   726.3 secs   av.it.:   5.3
      thresh= 1.000E-02 alpha_mix =  0.700 |ddv_scf|^2 =  3.026E-06

      iter #   2 total cpu time :   730.7 secs   av.it.:   8.3
      thresh= 1.739E-04 alpha_mix =  0.700 |ddv_scf|^2 =  4.857E-08

      iter #   3 total cpu time :   735.0 secs   av.it.:   8.7
      thresh= 2.204E-05 alpha_mix =  0.700 |ddv_scf|^2 =  2.299E-09

      iter #   4 total cpu time :   739.2 secs   av.it.:   8.2
      thresh= 4.795E-06 alpha_mix =  0.700 |ddv_scf|^2 =  1.364E-11

      iter #   5 total cpu time :   746.4 secs   av.it.:   8.3
      thresh= 3.693E-07 alpha_mix =  0.700 |ddv_scf|^2 =  1.034E-13

      iter #   6 total cpu time :   758.8 secs   av.it.:   8.7
      thresh= 3.216E-08 alpha_mix =  0.700 |ddv_scf|^2 =  3.728E-16

     End of self-consistent calculation

     Convergence has been achieved 


     Representation #  5 mode #   5

     Self-consistent Calculation

      iter #   1 total cpu time :   764.4 secs   av.it.:   5.5
      thresh= 1.000E-02 alpha_mix =  0.700 |ddv_scf|^2 =  8.225E-06

      iter #   2 total cpu time :   771.3 secs   av.it.:   8.4
      thresh= 2.868E-04 alpha_mix =  0.700 |ddv_scf|^2 =  1.753E-06

      iter #   3 total cpu time :   784.7 secs   av.it.:   7.7
      thresh= 1.324E-04 alpha_mix =  0.700 |ddv_scf|^2 =  1.034E-08

      iter #   4 total cpu time :   792.0 secs   av.it.:   8.8
      thresh= 1.017E-05 alpha_mix =  0.700 |ddv_scf|^2 =  3.656E-10

      iter #   5 total cpu time :   796.7 secs   av.it.:   8.2
      thresh= 1.912E-06 alpha_mix =  0.700 |ddv_scf|^2 =  2.132E-12

      iter #   6 total cpu time :   803.0 secs   av.it.:   8.6
      thresh= 1.460E-07 alpha_mix =  0.700 |ddv_scf|^2 =  1.146E-14

      iter #   7 total cpu time :   808.1 secs   av.it.:   8.4
      thresh= 1.071E-08 alpha_mix =  0.700 |ddv_scf|^2 =  5.374E-16

     End of self-consistent calculation

     Convergence has been achieved 


     Representation #  6 mode #   6

     Self-consistent Calculation

      iter #   1 total cpu time :   819.2 secs   av.it.:   5.5
      thresh= 1.000E-02 alpha_mix =  0.700 |ddv_scf|^2 =  8.225E-06

      iter #   2 total cpu time :   825.3 secs   av.it.:   8.4
      thresh= 2.868E-04 alpha_mix =  0.700 |ddv_scf|^2 =  1.753E-06

      iter #   3 total cpu time :   828.4 secs   av.it.:   7.7
      thresh= 1.324E-04 alpha_mix =  0.700 |ddv_scf|^2 =  1.034E-08

      iter #   4 total cpu time :   833.3 secs   av.it.:   8.8
      thresh= 1.017E-05 alpha_mix =  0.700 |ddv_scf|^2 =  3.656E-10

      iter #   5 total cpu time :   838.2 secs   av.it.:   8.2
      thresh= 1.912E-06 alpha_mix =  0.700 |ddv_scf|^2 =  2.132E-12

      iter #   6 total cpu time :   843.2 secs   av.it.:   8.6
      thresh= 1.460E-07 alpha_mix =  0.700 |ddv_scf|^2 =  1.146E-14

      iter #   7 total cpu time :   848.1 secs   av.it.:   8.4
      thresh= 1.071E-08 alpha_mix =  0.700 |ddv_scf|^2 =  5.373E-16

     End of self-consistent calculation

     Convergence has been achieved 
 
     Number of q in the star =    6
     List of q in the star:
          1   0.000000000   0.288675135   0.000000000
          2  -0.250000000   0.144337567   0.000000000
          3   0.250000000  -0.144337567   0.000000000
          4  -0.250000000  -0.144337567   0.000000000
          5   0.250000000   0.144337567   0.000000000
          6   0.000000000  -0.288675135   0.000000000

     Diagonalizing the dynamical matrix

     q = (    0.000000000   0.288675135   0.000000000 ) 

 **************************************************************************
     freq (    1) =       1.105317 [THz] =      36.869404 [cm-1]
     freq (    2) =       1.337527 [THz] =      44.615096 [cm-1]
     freq (    3) =       2.244098 [THz] =      74.855056 [cm-1]
     freq (    4) =       2.327989 [THz] =      77.653355 [cm-1]
     freq (    5) =       2.839438 [THz] =      94.713442 [cm-1]
     freq (    6) =       3.357781 [THz] =     112.003524 [cm-1]
 **************************************************************************

     Mode symmetry, C_2v (mm2)  point group:

     freq (  1 -  1) =         36.9  [cm-1]   --> B_1  D_3  S_3      
     freq (  2 -  2) =         44.6  [cm-1]   --> B_2  D_4  S_4      
     freq (  3 -  3) =         74.9  [cm-1]   --> B_1  D_3  S_3      
     freq (  4 -  4) =         77.7  [cm-1]   --> A_1  D_1  S_1      
     freq (  5 -  5) =         94.7  [cm-1]   --> A_1  D_1  S_1      
     freq (  6 -  6) =        112.0  [cm-1]   --> B_2  D_4  S_4      

     Calculation of q =    0.0000000   0.2886751   0.1533310
 
     Parallelization info
     --------------------
     sticks:   dense  smooth     PW     G-vecs:    dense   smooth      PW
     Min         143      72     23                 6353     2239     417
     Max         144      73     24                 6358     2255     422
     Sum        1147     583    187                50833    17969    3357
 


     bravais-lattice index     =            4
     lattice parameter (alat)  =       7.1900  a.u.
     unit-cell volume          =     524.8406 (a.u.)^3
     number of atoms/cell      =            2
     number of atomic types    =            1
     number of electrons       =        18.00
     number of Kohn-Sham states=           13
     kinetic-energy cutoff     =      40.0000  Ry
     charge density cutoff     =     320.0000  Ry
     Exchange-correlation      = SLA  PW   PBE  PBE ( 1  4  3  4 0 0)

     celldm(1)=   7.190000  celldm(2)=   0.000000  celldm(3)=   1.630460
     celldm(4)=   0.000000  celldm(5)=   0.000000  celldm(6)=   0.000000

     crystal axes: (cart. coord. in units of alat)
               a(1) = (   1.000000   0.000000   0.000000 )  
               a(2) = (  -0.500000   0.866025   0.000000 )  
               a(3) = (   0.000000   0.000000   1.630460 )  

     reciprocal axes: (cart. coord. in units 2 pi/alat)
               b(1) = (  1.000000  0.577350  0.000000 )  
               b(2) = (  0.000000  1.154701  0.000000 )  
               b(3) = (  0.000000  0.000000  0.613324 )  


     PseudoPot. # 1 for Na read from file:
     ./Na_pbe_v1.uspp.F.UPF
     MD5 check sum: 76a99c7e9422403d3e93cbc85ab7bccb
     Pseudo is Ultrasoft, Zval =  9.0
     Generated by new atomic code, or converted to UPF format
     Using radial grid of  819 points,  5 beta functions with: 
                l(1) =   0
                l(2) =   0
                l(3) =   1
                l(4) =   1
                l(5) =   2
     Q(r) pseudized with  8 coefficients,  rinner =    1.250   1.250   1.250
                                                       1.250   1.250

     atomic species   valence    mass     pseudopotential
        Na             9.00    22.99000     Na( 1.00)

     24 Sym. Ops., with inversion, found



   Cartesian axes

     site n.     atom                  positions (alat units)
         1           Na  tau(   1) = (   0.0000000   0.0000000   0.0000000  )
         2           Na  tau(   2) = (   0.5000000   0.2886751   0.8152300  )

     number of k points=  7200  Marzari-Vanderbilt smearing, width (Ry)=  0.0200

     Number of k-points >= 100: set verbosity='high' to print them.

     Dense  grid:    50833 G-vectors     FFT dimensions: (  45,  45,  72)

     Smooth grid:    17969 G-vectors     FFT dimensions: (  30,  30,  48)

     Largest allocated arrays     est. size (Mb)     dimensions
        Kohn-Sham Wavefunctions         0.06 Mb     (     289,   13)
        NL pseudopotentials             0.11 Mb     (     289,   26)
        Each V/rho on FFT grid          0.28 Mb     (   18225)
        Each G-vector array             0.05 Mb     (    6358)
        G-vector shells                 0.01 Mb     (    1645)
     Largest temporary arrays     est. size (Mb)     dimensions
        Auxiliary wavefunctions         0.23 Mb     (     289,   52)
        Each subspace H/S matrix        0.01 Mb     (      26,   26)
        Each <psi_i|beta_j> matrix      0.01 Mb     (      26,   13)

     The potential is recalculated from file :
     ./na_hcp_7.19/_ph0/na_hcp_7.19.save/charge-density.dat

     Starting wfc are   10 atomic +    3 random wfc

     Band Structure Calculation
     Davidson diagonalization with overlap

     ethr =  5.56E-11,  avg # of iterations = 23.3

     total cpu time spent up to now is       62.1 secs

     End of band structure calculation

     Number of k-points >= 100: set verbosity='high' to print the bands.

     the Fermi energy is     1.4102 ev

     Writing output data file na_hcp_7.19.save

                                                                                

     bravais-lattice index     =            4
     lattice parameter (alat)  =       7.1900  a.u.
     unit-cell volume          =     524.8406 (a.u.)^3
     number of atoms/cell      =            2
     number of atomic types    =            1
     kinetic-energy cut-off    =      40.0000  Ry
     charge density cut-off    =     320.0000  Ry
     convergence threshold     =      1.0E-15
     beta                      =       0.7000
     number of iterations used =            4
     Exchange-correlation      = SLA  PW   PBE  PBE ( 1  4  3  4 0 0)


     celldm(1)=    7.19000  celldm(2)=    0.00000  celldm(3)=    1.63046
     celldm(4)=    0.00000  celldm(5)=    0.00000  celldm(6)=    0.00000

     crystal axes: (cart. coord. in units of alat)
               a(1) = (  1.0000  0.0000  0.0000 )  
               a(2) = ( -0.5000  0.8660  0.0000 )  
               a(3) = (  0.0000  0.0000  1.6305 )  

     reciprocal axes: (cart. coord. in units 2 pi/alat)
               b(1) = (  1.0000  0.5774  0.0000 )  
               b(2) = (  0.0000  1.1547  0.0000 )  
               b(3) = (  0.0000  0.0000  0.6133 )  


     Atoms inside the unit cell: 

     Cartesian axes

     site n.  atom      mass           positions (alat units)
        1     Na  22.9900   tau(    1) = (    0.00000    0.00000    0.00000  )
        2     Na  22.9900   tau(    2) = (    0.50000    0.28868    0.81523  )

     Computing dynamical matrix for 
                    q = (   0.0000000   0.2886751   0.1533310 )
 
      2 Sym.Ops. (no q -> -q+G )


     G cutoff =  419.0328  (   6358 G-vectors)     FFT grid: ( 45, 45, 72)
     G cutoff =  209.5164  (   2239 G-vectors)  smooth grid: ( 30, 30, 48)

     number of k points=  7200  Marzari-Vanderbilt smearing, width (Ry)=  0.0200

     PseudoPot. # 1 for Na read from file:
     ./Na_pbe_v1.uspp.F.UPF
     MD5 check sum: 76a99c7e9422403d3e93cbc85ab7bccb
     Pseudo is Ultrasoft, Zval =  9.0
     Generated by new atomic code, or converted to UPF format
     Using radial grid of  819 points,  5 beta functions with: 
                l(1) =   0
                l(2) =   0
                l(3) =   1
                l(4) =   1
                l(5) =   2
     Q(r) pseudized with  8 coefficients,  rinner =    1.250   1.250   1.250
                                                       1.250   1.250

     Mode symmetry, C_s (m)     point group:


     Atomic displacements:
     There are   6 irreducible representations

     Representation     1      1 modes -A'  To be done

     Representation     2      1 modes -A'  To be done

     Representation     3      1 modes -A'  To be done

     Representation     4      1 modes -A'  To be done

     Representation     5      1 modes -A''  To be done

     Representation     6      1 modes -A''  To be done



     Alpha used in Ewald sum =   2.8000
     PHONON       : 12m58.57s CPU    14m45.28s WALL



     Representation #  1 mode #   1

     Self-consistent Calculation

      iter #   1 total cpu time :   888.9 secs   av.it.:   5.7
      thresh= 1.000E-02 alpha_mix =  0.700 |ddv_scf|^2 =  2.020E-04

      iter #   2 total cpu time :   903.7 secs   av.it.:   7.6
      thresh= 1.421E-03 alpha_mix =  0.700 |ddv_scf|^2 =  4.123E-03

      iter #   3 total cpu time :   913.0 secs   av.it.:   5.5
      thresh= 6.421E-03 alpha_mix =  0.700 |ddv_scf|^2 =  1.889E-06

      iter #   4 total cpu time :   919.6 secs   av.it.:   7.8
      thresh= 1.374E-04 alpha_mix =  0.700 |ddv_scf|^2 =  2.750E-07

      iter #   5 total cpu time :   937.5 secs   av.it.:   7.8
      thresh= 5.244E-05 alpha_mix =  0.700 |ddv_scf|^2 =  1.205E-09

      iter #   6 total cpu time :   951.7 secs   av.it.:   8.7
      thresh= 3.472E-06 alpha_mix =  0.700 |ddv_scf|^2 =  5.653E-11

      iter #   7 total cpu time :   963.3 secs   av.it.:   8.7
      thresh= 7.518E-07 alpha_mix =  0.700 |ddv_scf|^2 =  9.628E-12

      iter #   8 total cpu time :   973.5 secs   av.it.:   8.3
      thresh= 3.103E-07 alpha_mix =  0.700 |ddv_scf|^2 =  4.582E-11

      iter #   9 total cpu time :   986.7 secs   av.it.:   7.2
      thresh= 6.769E-07 alpha_mix =  0.700 |ddv_scf|^2 =  2.200E-13

      iter #  10 total cpu time :  1000.2 secs   av.it.:   8.8
      thresh= 4.691E-08 alpha_mix =  0.700 |ddv_scf|^2 =  5.176E-14

      iter #  11 total cpu time :  1013.0 secs   av.it.:   7.7
      thresh= 2.275E-08 alpha_mix =  0.700 |ddv_scf|^2 =  2.670E-14

      iter #  12 total cpu time :  1022.5 secs   av.it.:   7.9
      thresh= 1.634E-08 alpha_mix =  0.700 |ddv_scf|^2 =  4.709E-14

      iter #  13 total cpu time :  1031.4 secs   av.it.:   7.0
      thresh= 2.170E-08 alpha_mix =  0.700 |ddv_scf|^2 =  2.631E-16

     End of self-consistent calculation

     Convergence has been achieved 


     Representation #  2 mode #   2

     Self-consistent Calculation

      iter #   1 total cpu time :  1042.7 secs   av.it.:   5.7
      thresh= 1.000E-02 alpha_mix =  0.700 |ddv_scf|^2 =  3.456E-05

      iter #   2 total cpu time :  1052.7 secs   av.it.:   8.0
      thresh= 5.879E-04 alpha_mix =  0.700 |ddv_scf|^2 =  4.306E-04

      iter #   3 total cpu time :  1058.6 secs   av.it.:   5.8
      thresh= 2.075E-03 alpha_mix =  0.700 |ddv_scf|^2 =  1.383E-05

      iter #   4 total cpu time :  1070.6 secs   av.it.:   7.2
      thresh= 3.719E-04 alpha_mix =  0.700 |ddv_scf|^2 =  6.811E-08

      iter #   5 total cpu time :  1087.6 secs   av.it.:   8.6
      thresh= 2.610E-05 alpha_mix =  0.700 |ddv_scf|^2 =  7.787E-10

      iter #   6 total cpu time :  1095.9 secs   av.it.:   8.9
      thresh= 2.791E-06 alpha_mix =  0.700 |ddv_scf|^2 =  6.310E-11

      iter #   7 total cpu time :  1105.1 secs   av.it.:   8.9
      thresh= 7.944E-07 alpha_mix =  0.700 |ddv_scf|^2 =  4.753E-11

      iter #   8 total cpu time :  1114.8 secs   av.it.:   7.7
      thresh= 6.895E-07 alpha_mix =  0.700 |ddv_scf|^2 =  1.392E-10

      iter #   9 total cpu time :  1128.2 secs   av.it.:   7.0
      thresh= 1.180E-06 alpha_mix =  0.700 |ddv_scf|^2 =  4.254E-12

      iter #  10 total cpu time :  1151.7 secs   av.it.:   7.6
      thresh= 2.062E-07 alpha_mix =  0.700 |ddv_scf|^2 =  2.666E-12

      iter #  11 total cpu time :  1162.2 secs   av.it.:   7.6
      thresh= 1.633E-07 alpha_mix =  0.700 |ddv_scf|^2 =  2.236E-14

      iter #  12 total cpu time :  1172.0 secs   av.it.:   7.9
      thresh= 1.495E-08 alpha_mix =  0.700 |ddv_scf|^2 =  2.962E-15

      iter #  13 total cpu time :  1188.7 secs   av.it.:   8.7
      thresh= 5.443E-09 alpha_mix =  0.700 |ddv_scf|^2 =  7.168E-17

     End of self-consistent calculation

     Convergence has been achieved 


     Representation #  3 mode #   3

     Self-consistent Calculation

      iter #   1 total cpu time :  1198.7 secs   av.it.:   5.8
      thresh= 1.000E-02 alpha_mix =  0.700 |ddv_scf|^2 =  2.314E-04

      iter #   2 total cpu time :  1212.1 secs   av.it.:   7.6
      thresh= 1.521E-03 alpha_mix =  0.700 |ddv_scf|^2 =  4.787E-03

      iter #   3 total cpu time :  1227.7 secs   av.it.:   5.5
      thresh= 6.918E-03 alpha_mix =  0.700 |ddv_scf|^2 =  6.076E-07

      iter #   4 total cpu time :  1234.0 secs   av.it.:   8.0
      thresh= 7.795E-05 alpha_mix =  0.700 |ddv_scf|^2 =  2.880E-07

      iter #   5 total cpu time :  1260.9 secs   av.it.:   7.7
      thresh= 5.367E-05 alpha_mix =  0.700 |ddv_scf|^2 =  1.496E-09

      iter #   6 total cpu time :  1269.5 secs   av.it.:   8.7
      thresh= 3.868E-06 alpha_mix =  0.700 |ddv_scf|^2 =  7.224E-11

      iter #   7 total cpu time :  1297.1 secs   av.it.:   8.6
      thresh= 8.499E-07 alpha_mix =  0.700 |ddv_scf|^2 =  2.890E-12

      iter #   8 total cpu time :  1304.2 secs   av.it.:   8.9
      thresh= 1.700E-07 alpha_mix =  0.700 |ddv_scf|^2 =  1.896E-11

      iter #   9 total cpu time :  1319.8 secs   av.it.:   7.0
      thresh= 4.354E-07 alpha_mix =  0.700 |ddv_scf|^2 =  1.109E-12

      iter #  10 total cpu time :  1333.3 secs   av.it.:   8.0
      thresh= 1.053E-07 alpha_mix =  0.700 |ddv_scf|^2 =  5.399E-13

      iter #  11 total cpu time :  1339.8 secs   av.it.:   7.3
      thresh= 7.348E-08 alpha_mix =  0.700 |ddv_scf|^2 =  1.627E-14

      iter #  12 total cpu time :  1348.6 secs   av.it.:   8.1
      thresh= 1.276E-08 alpha_mix =  0.700 |ddv_scf|^2 =  2.040E-15

      iter #  13 total cpu time :  1362.3 secs   av.it.:   8.1
      thresh= 4.516E-09 alpha_mix =  0.700 |ddv_scf|^2 =  1.746E-16

     End of self-consistent calculation

     Convergence has been achieved 


     Representation #  4 mode #   4

     Self-consistent Calculation

      iter #   1 total cpu time :  1373.2 secs   av.it.:   5.7
      thresh= 1.000E-02 alpha_mix =  0.700 |ddv_scf|^2 =  6.390E-05

      iter #   2 total cpu time :  1385.7 secs   av.it.:   7.8
      thresh= 7.994E-04 alpha_mix =  0.700 |ddv_scf|^2 =  1.094E-03

      iter #   3 total cpu time :  1399.4 secs   av.it.:   5.7
      thresh= 3.307E-03 alpha_mix =  0.700 |ddv_scf|^2 =  6.896E-06

      iter #   4 total cpu time :  1409.3 secs   av.it.:   7.5
      thresh= 2.626E-04 alpha_mix =  0.700 |ddv_scf|^2 =  1.070E-07

      iter #   5 total cpu time :  1420.7 secs   av.it.:   8.2
      thresh= 3.271E-05 alpha_mix =  0.700 |ddv_scf|^2 =  8.784E-10

      iter #   6 total cpu time :  1432.8 secs   av.it.:   8.9
      thresh= 2.964E-06 alpha_mix =  0.700 |ddv_scf|^2 =  7.402E-11

      iter #   7 total cpu time :  1443.5 secs   av.it.:   8.7
      thresh= 8.604E-07 alpha_mix =  0.700 |ddv_scf|^2 =  1.728E-11

      iter #   8 total cpu time :  1461.9 secs   av.it.:   8.4
      thresh= 4.157E-07 alpha_mix =  0.700 |ddv_scf|^2 =  1.843E-10

      iter #   9 total cpu time :  1471.1 secs   av.it.:   6.6
      thresh= 1.358E-06 alpha_mix =  0.700 |ddv_scf|^2 =  1.227E-12

      iter #  10 total cpu time :  1482.8 secs   av.it.:   7.9
      thresh= 1.108E-07 alpha_mix =  0.700 |ddv_scf|^2 =  3.984E-12

      iter #  11 total cpu time :  1508.1 secs   av.it.:   7.2
      thresh= 1.996E-07 alpha_mix =  0.700 |ddv_scf|^2 =  6.881E-15

      iter #  12 total cpu time :  1515.3 secs   av.it.:   8.8
      thresh= 8.295E-09 alpha_mix =  0.700 |ddv_scf|^2 =  3.403E-15

      iter #  13 total cpu time :  1537.2 secs   av.it.:   8.1
      thresh= 5.834E-09 alpha_mix =  0.700 |ddv_scf|^2 =  2.453E-16

     End of self-consistent calculation

     Convergence has been achieved 


     Representation #  5 mode #   5

     Self-consistent Calculation

      iter #   1 total cpu time :  1547.9 secs   av.it.:   5.3
      thresh= 1.000E-02 alpha_mix =  0.700 |ddv_scf|^2 =  3.019E-06

      iter #   2 total cpu time :  1556.8 secs   av.it.:   8.4
      thresh= 1.737E-04 alpha_mix =  0.700 |ddv_scf|^2 =  4.840E-08

      iter #   3 total cpu time :  1572.6 secs   av.it.:   8.7
      thresh= 2.200E-05 alpha_mix =  0.700 |ddv_scf|^2 =  2.312E-09

      iter #   4 total cpu time :  1581.9 secs   av.it.:   8.1
      thresh= 4.808E-06 alpha_mix =  0.700 |ddv_scf|^2 =  1.069E-11

      iter #   5 total cpu time :  1590.2 secs   av.it.:   8.4
      thresh= 3.269E-07 alpha_mix =  0.700 |ddv_scf|^2 =  7.578E-14

      iter #   6 total cpu time :  1599.1 secs   av.it.:   8.7
      thresh= 2.753E-08 alpha_mix =  0.700 |ddv_scf|^2 =  3.527E-16

     End of self-consistent calculation

     Convergence has been achieved 


     Representation #  6 mode #   6

     Self-consistent Calculation

      iter #   1 total cpu time :  1608.8 secs   av.it.:   5.3
      thresh= 1.000E-02 alpha_mix =  0.700 |ddv_scf|^2 =  3.019E-06

      iter #   2 total cpu time :  1617.5 secs   av.it.:   8.4
      thresh= 1.737E-04 alpha_mix =  0.700 |ddv_scf|^2 =  4.840E-08

      iter #   3 total cpu time :  1625.7 secs   av.it.:   8.7
      thresh= 2.200E-05 alpha_mix =  0.700 |ddv_scf|^2 =  2.312E-09

      iter #   4 total cpu time :  1634.5 secs   av.it.:   8.1
      thresh= 4.808E-06 alpha_mix =  0.700 |ddv_scf|^2 =  1.069E-11

      iter #   5 total cpu time :  1652.5 secs   av.it.:   8.4
      thresh= 3.269E-07 alpha_mix =  0.700 |ddv_scf|^2 =  7.578E-14

      iter #   6 total cpu time :  1662.4 secs   av.it.:   8.7
      thresh= 2.753E-08 alpha_mix =  0.700 |ddv_scf|^2 =  3.527E-16

     End of self-consistent calculation

     Convergence has been achieved 
 
     Number of q in the star =   12
     List of q in the star:
          1   0.000000000   0.288675135   0.153330962
          2   0.000000000   0.288675135  -0.153330962
          3  -0.250000000   0.144337567   0.153330962
          4   0.250000000  -0.144337567   0.153330962
          5  -0.250000000  -0.144337567   0.153330962
          6   0.250000000   0.144337567   0.153330962
          7   0.000000000  -0.288675135   0.153330962
          8   0.000000000  -0.288675135  -0.153330962
          9   0.250000000   0.144337567  -0.153330962
         10   0.250000000  -0.144337567  -0.153330962
         11  -0.250000000  -0.144337567  -0.153330962
         12  -0.250000000   0.144337567  -0.153330962

     Diagonalizing the dynamical matrix

     q = (    0.000000000   0.288675135   0.153330962 ) 

 **************************************************************************
     freq (    1) =       1.329277 [THz] =      44.339915 [cm-1]
     freq (    2) =       1.531597 [THz] =      51.088580 [cm-1]
     freq (    3) =       2.126962 [THz] =      70.947805 [cm-1]
     freq (    4) =       2.537623 [THz] =      84.646001 [cm-1]
     freq (    5) =       2.676925 [THz] =      89.292619 [cm-1]
     freq (    6) =       3.282697 [THz] =     109.498992 [cm-1]
 **************************************************************************

     Mode symmetry, C_s (m)     point group:

     freq (  1 -  1) =         44.3  [cm-1]   --> A''                
     freq (  2 -  2) =         51.1  [cm-1]   --> A'                 
     freq (  3 -  3) =         70.9  [cm-1]   --> A''                
     freq (  4 -  4) =         84.6  [cm-1]   --> A'                 
     freq (  5 -  5) =         89.3  [cm-1]   --> A'                 
     freq (  6 -  6) =        109.5  [cm-1]   --> A'                 

     Calculation of q =    0.0000000   0.2886751  -0.3066619
 
     Parallelization info
     --------------------
     sticks:   dense  smooth     PW     G-vecs:    dense   smooth      PW
     Min         143      72     22                 6353     2237     407
     Max         144      73     24                 6358     2255     412
     Sum        1147     583    187                50833    17969    3285
 


     bravais-lattice index     =            4
     lattice parameter (alat)  =       7.1900  a.u.
     unit-cell volume          =     524.8406 (a.u.)^3
     number of atoms/cell      =            2
     number of atomic types    =            1
     number of electrons       =        18.00
     number of Kohn-Sham states=           13
     kinetic-energy cutoff     =      40.0000  Ry
     charge density cutoff     =     320.0000  Ry
     Exchange-correlation      = SLA  PW   PBE  PBE ( 1  4  3  4 0 0)

     celldm(1)=   7.190000  celldm(2)=   0.000000  celldm(3)=   1.630460
     celldm(4)=   0.000000  celldm(5)=   0.000000  celldm(6)=   0.000000

     crystal axes: (cart. coord. in units of alat)
               a(1) = (   1.000000   0.000000   0.000000 )  
               a(2) = (  -0.500000   0.866025   0.000000 )  
               a(3) = (   0.000000   0.000000   1.630460 )  

     reciprocal axes: (cart. coord. in units 2 pi/alat)
               b(1) = (  1.000000  0.577350  0.000000 )  
               b(2) = (  0.000000  1.154701  0.000000 )  
               b(3) = (  0.000000  0.000000  0.613324 )  


     PseudoPot. # 1 for Na read from file:
     ./Na_pbe_v1.uspp.F.UPF
     MD5 check sum: 76a99c7e9422403d3e93cbc85ab7bccb
     Pseudo is Ultrasoft, Zval =  9.0
     Generated by new atomic code, or converted to UPF format
     Using radial grid of  819 points,  5 beta functions with: 
                l(1) =   0
                l(2) =   0
                l(3) =   1
                l(4) =   1
                l(5) =   2
     Q(r) pseudized with  8 coefficients,  rinner =    1.250   1.250   1.250
                                                       1.250   1.250

     atomic species   valence    mass     pseudopotential
        Na             9.00    22.99000     Na( 1.00)

     24 Sym. Ops., with inversion, found



   Cartesian axes

     site n.     atom                  positions (alat units)
         1           Na  tau(   1) = (   0.0000000   0.0000000   0.0000000  )
         2           Na  tau(   2) = (   0.5000000   0.2886751   0.8152300  )

     number of k points=  3600  Marzari-Vanderbilt smearing, width (Ry)=  0.0200

     Number of k-points >= 100: set verbosity='high' to print them.

     Dense  grid:    50833 G-vectors     FFT dimensions: (  45,  45,  72)

     Smooth grid:    17969 G-vectors     FFT dimensions: (  30,  30,  48)

     Largest allocated arrays     est. size (Mb)     dimensions
        Kohn-Sham Wavefunctions         0.06 Mb     (     303,   13)
        NL pseudopotentials             0.12 Mb     (     303,   26)
        Each V/rho on FFT grid          0.28 Mb     (   18225)
        Each G-vector array             0.05 Mb     (    6358)
        G-vector shells                 0.01 Mb     (    1677)
     Largest temporary arrays     est. size (Mb)     dimensions
        Auxiliary wavefunctions         0.24 Mb     (     303,   52)
        Each subspace H/S matrix        0.01 Mb     (      26,   26)
        Each <psi_i|beta_j> matrix      0.01 Mb     (      26,   13)

     The potential is recalculated from file :
     ./na_hcp_7.19/_ph0/na_hcp_7.19.save/charge-density.dat

     Starting wfc are   10 atomic +    3 random wfc

     Band Structure Calculation
     Davidson diagonalization with overlap

     ethr =  5.56E-11,  avg # of iterations = 23.2

     total cpu time spent up to now is       82.0 secs

     End of band structure calculation

     Number of k-points >= 100: set verbosity='high' to print the bands.

     the Fermi energy is     1.4102 ev

     Writing output data file na_hcp_7.19.save

                                                                                

     bravais-lattice index     =            4
     lattice parameter (alat)  =       7.1900  a.u.
     unit-cell volume          =     524.8406 (a.u.)^3
     number of atoms/cell      =            2
     number of atomic types    =            1
     kinetic-energy cut-off    =      40.0000  Ry
     charge density cut-off    =     320.0000  Ry
     convergence threshold     =      1.0E-15
     beta                      =       0.7000
     number of iterations used =            4
     Exchange-correlation      = SLA  PW   PBE  PBE ( 1  4  3  4 0 0)


     celldm(1)=    7.19000  celldm(2)=    0.00000  celldm(3)=    1.63046
     celldm(4)=    0.00000  celldm(5)=    0.00000  celldm(6)=    0.00000

     crystal axes: (cart. coord. in units of alat)
               a(1) = (  1.0000  0.0000  0.0000 )  
               a(2) = ( -0.5000  0.8660  0.0000 )  
               a(3) = (  0.0000  0.0000  1.6305 )  

     reciprocal axes: (cart. coord. in units 2 pi/alat)
               b(1) = (  1.0000  0.5774  0.0000 )  
               b(2) = (  0.0000  1.1547  0.0000 )  
               b(3) = (  0.0000  0.0000  0.6133 )  


     Atoms inside the unit cell: 

     Cartesian axes

     site n.  atom      mass           positions (alat units)
        1     Na  22.9900   tau(    1) = (    0.00000    0.00000    0.00000  )
        2     Na  22.9900   tau(    2) = (    0.50000    0.28868    0.81523  )

     Computing dynamical matrix for 
                    q = (   0.0000000   0.2886751  -0.3066619 )
 
      4 Sym.Ops. (no q -> -q+G )


     G cutoff =  419.0328  (   6358 G-vectors)     FFT grid: ( 45, 45, 72)
     G cutoff =  209.5164  (   2241 G-vectors)  smooth grid: ( 30, 30, 48)

     number of k points=  3600  Marzari-Vanderbilt smearing, width (Ry)=  0.0200

     PseudoPot. # 1 for Na read from file:
     ./Na_pbe_v1.uspp.F.UPF
     MD5 check sum: 76a99c7e9422403d3e93cbc85ab7bccb
     Pseudo is Ultrasoft, Zval =  9.0
     Generated by new atomic code, or converted to UPF format
     Using radial grid of  819 points,  5 beta functions with: 
                l(1) =   0
                l(2) =   0
                l(3) =   1
                l(4) =   1
                l(5) =   2
     Q(r) pseudized with  8 coefficients,  rinner =    1.250   1.250   1.250
                                                       1.250   1.250

     Mode symmetry, C_2v (mm2)  point group:


     Atomic displacements:
     There are   6 irreducible representations

     Representation     1      1 modes -A_1  D_1  S_1  To be done

     Representation     2      1 modes -A_1  D_1  S_1  To be done

     Representation     3      1 modes -A_2  D_2  S_2  To be done

     Representation     4      1 modes -B_1  D_3  S_3  To be done

     Representation     5      1 modes -B_2  D_4  S_4  To be done

     Representation     6      1 modes -B_2  D_4  S_4  To be done



     Alpha used in Ewald sum =   2.8000
     PHONON       : 25m24.25s CPU    27m59.25s WALL



     Representation #  1 mode #   1

     Self-consistent Calculation

      iter #   1 total cpu time :  1681.0 secs   av.it.:   5.6
      thresh= 1.000E-02 alpha_mix =  0.700 |ddv_scf|^2 =  5.524E-05

      iter #   2 total cpu time :  1686.8 secs   av.it.:   7.9
      thresh= 7.432E-04 alpha_mix =  0.700 |ddv_scf|^2 =  3.124E-04

      iter #   3 total cpu time :  1702.4 secs   av.it.:   6.6
      thresh= 1.768E-03 alpha_mix =  0.700 |ddv_scf|^2 =  3.725E-08

      iter #   4 total cpu time :  1721.1 secs   av.it.:   8.9
      thresh= 1.930E-05 alpha_mix =  0.700 |ddv_scf|^2 =  1.944E-09

      iter #   5 total cpu time :  1726.6 secs   av.it.:   8.9
      thresh= 4.409E-06 alpha_mix =  0.700 |ddv_scf|^2 =  6.965E-11

      iter #   6 total cpu time :  1735.5 secs   av.it.:   9.1
      thresh= 8.346E-07 alpha_mix =  0.700 |ddv_scf|^2 =  3.608E-12

      iter #   7 total cpu time :  1747.4 secs   av.it.:   8.8
      thresh= 1.900E-07 alpha_mix =  0.700 |ddv_scf|^2 =  2.936E-12

      iter #   8 total cpu time :  1752.1 secs   av.it.:   7.7
      thresh= 1.713E-07 alpha_mix =  0.700 |ddv_scf|^2 =  2.035E-12

      iter #   9 total cpu time :  1766.7 secs   av.it.:   7.6
      thresh= 1.427E-07 alpha_mix =  0.700 |ddv_scf|^2 =  6.257E-13

      iter #  10 total cpu time :  1774.8 secs   av.it.:   7.4
      thresh= 7.910E-08 alpha_mix =  0.700 |ddv_scf|^2 =  4.617E-16

     End of self-consistent calculation

     Convergence has been achieved 


     Representation #  2 mode #   2

     Self-consistent Calculation

      iter #   1 total cpu time :  1781.1 secs   av.it.:   5.7
      thresh= 1.000E-02 alpha_mix =  0.700 |ddv_scf|^2 =  6.196E-05

      iter #   2 total cpu time :  1784.6 secs   av.it.:   7.9
      thresh= 7.871E-04 alpha_mix =  0.700 |ddv_scf|^2 =  3.547E-04

      iter #   3 total cpu time :  1788.5 secs   av.it.:   6.6
      thresh= 1.883E-03 alpha_mix =  0.700 |ddv_scf|^2 =  4.819E-08

      iter #   4 total cpu time :  1794.8 secs   av.it.:   8.8
      thresh= 2.195E-05 alpha_mix =  0.700 |ddv_scf|^2 =  1.802E-09

      iter #   5 total cpu time :  1799.3 secs   av.it.:   8.9
      thresh= 4.245E-06 alpha_mix =  0.700 |ddv_scf|^2 =  8.913E-11

      iter #   6 total cpu time :  1803.7 secs   av.it.:   9.2
      thresh= 9.441E-07 alpha_mix =  0.700 |ddv_scf|^2 =  3.586E-12

      iter #   7 total cpu time :  1809.4 secs   av.it.:   8.8
      thresh= 1.894E-07 alpha_mix =  0.700 |ddv_scf|^2 =  3.134E-12

      iter #   8 total cpu time :  1814.3 secs   av.it.:   7.7
      thresh= 1.770E-07 alpha_mix =  0.700 |ddv_scf|^2 =  1.216E-12

      iter #   9 total cpu time :  1818.2 secs   av.it.:   7.7
      thresh= 1.103E-07 alpha_mix =  0.700 |ddv_scf|^2 =  3.789E-13

      iter #  10 total cpu time :  1822.8 secs   av.it.:   7.5
      thresh= 6.156E-08 alpha_mix =  0.700 |ddv_scf|^2 =  8.048E-16

     End of self-consistent calculation

     Convergence has been achieved 


     Representation #  3 mode #   3

     Self-consistent Calculation

[...]
      iter #   4 total cpu time :  4392.9 secs   av.it.:   8.5
      thresh= 1.179E-05 alpha_mix =  0.700 |ddv_scf|^2 =  1.144E-09

      iter #   5 total cpu time :  4415.5 secs   av.it.:   8.6
      thresh= 3.382E-06 alpha_mix =  0.700 |ddv_scf|^2 =  1.430E-11

      iter #   6 total cpu time :  4436.6 secs   av.it.:   8.5
      thresh= 3.781E-07 alpha_mix =  0.700 |ddv_scf|^2 =  8.141E-13

      iter #   7 total cpu time :  4452.1 secs   av.it.:   8.8
      thresh= 9.023E-08 alpha_mix =  0.700 |ddv_scf|^2 =  1.884E-14

      iter #   8 total cpu time :  4486.9 secs   av.it.:   8.9
      thresh= 1.373E-08 alpha_mix =  0.700 |ddv_scf|^2 =  4.149E-16

     End of self-consistent calculation

     Convergence has been achieved 
 
     Number of q in the star =   12
     List of q in the star:
          1   0.250000000   0.433012702   0.153330962
          2   0.250000000   0.433012702  -0.153330962
          3  -0.250000000   0.433012702   0.153330962
          4   0.250000000  -0.433012702  -0.153330962
          5  -0.250000000   0.433012702  -0.153330962
          6  -0.250000000  -0.433012702  -0.153330962
          7   0.500000000  -0.000000000   0.153330962
          8   0.250000000  -0.433012702   0.153330962
          9  -0.500000000   0.000000000   0.153330962
         10  -0.250000000  -0.433012702   0.153330962
         11  -0.500000000   0.000000000  -0.153330962
         12   0.500000000  -0.000000000  -0.153330962

     Diagonalizing the dynamical matrix

     q = (    0.250000000   0.433012702   0.153330962 ) 

 **************************************************************************
     freq (    1) =       1.840445 [THz] =      61.390638 [cm-1]
     freq (    2) =       2.263474 [THz] =      75.501372 [cm-1]
     freq (    3) =       2.799370 [THz] =      93.376918 [cm-1]
     freq (    4) =       2.803878 [THz] =      93.527310 [cm-1]
     freq (    5) =       3.257692 [THz] =     108.664906 [cm-1]
     freq (    6) =       3.407833 [THz] =     113.673087 [cm-1]
 **************************************************************************

     Mode symmetry, C_s (m)     point group:

     freq (  1 -  1) =         61.4  [cm-1]   --> A'                 
     freq (  2 -  2) =         75.5  [cm-1]   --> A''                
     freq (  3 -  3) =         93.4  [cm-1]   --> A'                 
     freq (  4 -  4) =         93.5  [cm-1]   --> A''                
     freq (  5 -  5) =        108.7  [cm-1]   --> A'                 
     freq (  6 -  6) =        113.7  [cm-1]   --> A''                

     Calculation of q =    0.2500000   0.4330127  -0.3066619
 
     Parallelization info
     --------------------
     sticks:   dense  smooth     PW     G-vecs:    dense   smooth      PW
     Min         143      72     24                 6353     2239     444
     Max         144      73     25                 6358     2253     449
     Sum        1147     583    199                50833    17969    3573
 


     bravais-lattice index     =            4
     lattice parameter (alat)  =       7.1900  a.u.
     unit-cell volume          =     524.8406 (a.u.)^3
     number of atoms/cell      =            2
     number of atomic types    =            1
     number of electrons       =        18.00
     number of Kohn-Sham states=           13
     kinetic-energy cutoff     =      40.0000  Ry
     charge density cutoff     =     320.0000  Ry
     Exchange-correlation      = SLA  PW   PBE  PBE ( 1  4  3  4 0 0)

     celldm(1)=   7.190000  celldm(2)=   0.000000  celldm(3)=   1.630460
     celldm(4)=   0.000000  celldm(5)=   0.000000  celldm(6)=   0.000000

     crystal axes: (cart. coord. in units of alat)
               a(1) = (   1.000000   0.000000   0.000000 )  
               a(2) = (  -0.500000   0.866025   0.000000 )  
               a(3) = (   0.000000   0.000000   1.630460 )  

     reciprocal axes: (cart. coord. in units 2 pi/alat)
               b(1) = (  1.000000  0.577350  0.000000 )  
               b(2) = (  0.000000  1.154701  0.000000 )  
               b(3) = (  0.000000  0.000000  0.613324 )  


     PseudoPot. # 1 for Na read from file:
     ./Na_pbe_v1.uspp.F.UPF
     MD5 check sum: 76a99c7e9422403d3e93cbc85ab7bccb
     Pseudo is Ultrasoft, Zval =  9.0
     Generated by new atomic code, or converted to UPF format
     Using radial grid of  819 points,  5 beta functions with: 
                l(1) =   0
                l(2) =   0
                l(3) =   1
                l(4) =   1
                l(5) =   2
     Q(r) pseudized with  8 coefficients,  rinner =    1.250   1.250   1.250
                                                       1.250   1.250

     atomic species   valence    mass     pseudopotential
        Na             9.00    22.99000     Na( 1.00)

     24 Sym. Ops., with inversion, found



   Cartesian axes

     site n.     atom                  positions (alat units)
         1           Na  tau(   1) = (   0.0000000   0.0000000   0.0000000  )
         2           Na  tau(   2) = (   0.5000000   0.2886751   0.8152300  )

     number of k points=  3600  Marzari-Vanderbilt smearing, width (Ry)=  0.0200

     Number of k-points >= 100: set verbosity='high' to print them.

     Dense  grid:    50833 G-vectors     FFT dimensions: (  45,  45,  72)

     Smooth grid:    17969 G-vectors     FFT dimensions: (  30,  30,  48)

     Largest allocated arrays     est. size (Mb)     dimensions
        Kohn-Sham Wavefunctions         0.06 Mb     (     299,   13)
        NL pseudopotentials             0.12 Mb     (     299,   26)
        Each V/rho on FFT grid          0.28 Mb     (   18225)
        Each G-vector array             0.05 Mb     (    6358)
        G-vector shells                 0.01 Mb     (    1738)
     Largest temporary arrays     est. size (Mb)     dimensions
        Auxiliary wavefunctions         0.24 Mb     (     299,   52)
        Each subspace H/S matrix        0.01 Mb     (      26,   26)
        Each <psi_i|beta_j> matrix      0.01 Mb     (      26,   13)

     The potential is recalculated from file :
     ./na_hcp_7.19/_ph0/na_hcp_7.19.save/charge-density.dat

     Starting wfc are   10 atomic +    3 random wfc

     Band Structure Calculation
     Davidson diagonalization with overlap

     ethr =  5.56E-11,  avg # of iterations = 23.0

     total cpu time spent up to now is      191.0 secs

     End of band structure calculation

     Number of k-points >= 100: set verbosity='high' to print the bands.

     the Fermi energy is     1.4102 ev

     Writing output data file na_hcp_7.19.save

                                                                                

     bravais-lattice index     =            4
     lattice parameter (alat)  =       7.1900  a.u.
     unit-cell volume          =     524.8406 (a.u.)^3
     number of atoms/cell      =            2
     number of atomic types    =            1
     kinetic-energy cut-off    =      40.0000  Ry
     charge density cut-off    =     320.0000  Ry
     convergence threshold     =      1.0E-15
     beta                      =       0.7000
     number of iterations used =            4
     Exchange-correlation      = SLA  PW   PBE  PBE ( 1  4  3  4 0 0)


     celldm(1)=    7.19000  celldm(2)=    0.00000  celldm(3)=    1.63046
     celldm(4)=    0.00000  celldm(5)=    0.00000  celldm(6)=    0.00000

     crystal axes: (cart. coord. in units of alat)
               a(1) = (  1.0000  0.0000  0.0000 )  
               a(2) = ( -0.5000  0.8660  0.0000 )  
               a(3) = (  0.0000  0.0000  1.6305 )  

     reciprocal axes: (cart. coord. in units 2 pi/alat)
               b(1) = (  1.0000  0.5774  0.0000 )  
               b(2) = (  0.0000  1.1547  0.0000 )  
               b(3) = (  0.0000  0.0000  0.6133 )  


     Atoms inside the unit cell: 

     Cartesian axes

     site n.  atom      mass           positions (alat units)
        1     Na  22.9900   tau(    1) = (    0.00000    0.00000    0.00000  )
        2     Na  22.9900   tau(    2) = (    0.50000    0.28868    0.81523  )

     Computing dynamical matrix for 
                    q = (   0.2500000   0.4330127  -0.3066619 )
 
      4 Sym.Ops. (no q -> -q+G )


     G cutoff =  419.0328  (   6358 G-vectors)     FFT grid: ( 45, 45, 72)
     G cutoff =  209.5164  (   2241 G-vectors)  smooth grid: ( 30, 30, 48)

     number of k points=  3600  Marzari-Vanderbilt smearing, width (Ry)=  0.0200

     PseudoPot. # 1 for Na read from file:
     ./Na_pbe_v1.uspp.F.UPF
     MD5 check sum: 76a99c7e9422403d3e93cbc85ab7bccb
     Pseudo is Ultrasoft, Zval =  9.0
     Generated by new atomic code, or converted to UPF format
     Using radial grid of  819 points,  5 beta functions with: 
                l(1) =   0
                l(2) =   0
                l(3) =   1
                l(4) =   1
                l(5) =   2
     Q(r) pseudized with  8 coefficients,  rinner =    1.250   1.250   1.250
                                                       1.250   1.250


     Atomic displacements:
     There are   3 irreducible representations

     Representation     1      2 modes -  To be done

     Representation     2      2 modes -  To be done

     Representation     3      2 modes -  To be done



     Alpha used in Ewald sum =   2.8000
     PHONON       :     1h 7m CPU        1h15m WALL



     Representation #  1 modes #   1  2

     Self-consistent Calculation

      iter #   1 total cpu time :  4521.4 secs   av.it.:   5.7
      thresh= 1.000E-02 alpha_mix =  0.700 |ddv_scf|^2 =  2.809E-06

      iter #   2 total cpu time :  4553.5 secs   av.it.:   9.0
      thresh= 1.676E-04 alpha_mix =  0.700 |ddv_scf|^2 =  1.609E-06

      iter #   3 total cpu time :  4587.7 secs   av.it.:   8.1
      thresh= 1.268E-04 alpha_mix =  0.700 |ddv_scf|^2 =  1.104E-08

      iter #   4 total cpu time :  4600.9 secs   av.it.:   9.3
      thresh= 1.051E-05 alpha_mix =  0.700 |ddv_scf|^2 =  2.946E-10

      iter #   5 total cpu time :  4630.7 secs   av.it.:   9.6
      thresh= 1.716E-06 alpha_mix =  0.700 |ddv_scf|^2 =  1.618E-11

      iter #   6 total cpu time :  4644.4 secs   av.it.:   9.7
      thresh= 4.022E-07 alpha_mix =  0.700 |ddv_scf|^2 =  1.082E-12

      iter #   7 total cpu time :  4664.1 secs   av.it.:   9.8
      thresh= 1.040E-07 alpha_mix =  0.700 |ddv_scf|^2 =  1.258E-14

      iter #   8 total cpu time :  4688.4 secs   av.it.:   9.6
      thresh= 1.121E-08 alpha_mix =  0.700 |ddv_scf|^2 =  3.161E-16

     End of self-consistent calculation

     Convergence has been achieved 


     Representation #  2 modes #   3  4

     Self-consistent Calculation

      iter #   1 total cpu time :  4721.4 secs   av.it.:   5.7
      thresh= 1.000E-02 alpha_mix =  0.700 |ddv_scf|^2 =  2.176E-06

      iter #   2 total cpu time :  4736.2 secs   av.it.:   9.0
      thresh= 1.475E-04 alpha_mix =  0.700 |ddv_scf|^2 =  1.114E-06

      iter #   3 total cpu time :  4751.1 secs   av.it.:   8.2
      thresh= 1.055E-04 alpha_mix =  0.700 |ddv_scf|^2 =  1.330E-08

      iter #   4 total cpu time :  4763.4 secs   av.it.:   9.2
      thresh= 1.153E-05 alpha_mix =  0.700 |ddv_scf|^2 =  2.816E-10

      iter #   5 total cpu time :  4779.2 secs   av.it.:   9.4
      thresh= 1.678E-06 alpha_mix =  0.700 |ddv_scf|^2 =  2.084E-11

      iter #   6 total cpu time :  4794.0 secs   av.it.:   9.5
      thresh= 4.565E-07 alpha_mix =  0.700 |ddv_scf|^2 =  7.558E-13

      iter #   7 total cpu time :  4808.1 secs   av.it.:  10.0
      thresh= 8.693E-08 alpha_mix =  0.700 |ddv_scf|^2 =  1.470E-14

      iter #   8 total cpu time :  4826.1 secs   av.it.:   9.8
      thresh= 1.212E-08 alpha_mix =  0.700 |ddv_scf|^2 =  8.752E-16

     End of self-consistent calculation

     Convergence has been achieved 


     Representation #  3 modes #   5  6

     Self-consistent Calculation

      iter #   1 total cpu time :  4841.0 secs   av.it.:   5.7
      thresh= 1.000E-02 alpha_mix =  0.700 |ddv_scf|^2 =  2.070E-06

      iter #   2 total cpu time :  4860.5 secs   av.it.:   9.0
      thresh= 1.439E-04 alpha_mix =  0.700 |ddv_scf|^2 =  8.441E-07

      iter #   3 total cpu time :  4874.6 secs   av.it.:   8.3
      thresh= 9.188E-05 alpha_mix =  0.700 |ddv_scf|^2 =  2.408E-08

      iter #   4 total cpu time :  4889.3 secs   av.it.:   8.9
      thresh= 1.552E-05 alpha_mix =  0.700 |ddv_scf|^2 =  3.893E-10

      iter #   5 total cpu time :  4907.5 secs   av.it.:   9.4
      thresh= 1.973E-06 alpha_mix =  0.700 |ddv_scf|^2 =  1.025E-11

      iter #   6 total cpu time :  4932.9 secs   av.it.:   9.7
      thresh= 3.201E-07 alpha_mix =  0.700 |ddv_scf|^2 =  7.824E-13

      iter #   7 total cpu time :  4955.8 secs   av.it.:   9.9
      thresh= 8.845E-08 alpha_mix =  0.700 |ddv_scf|^2 =  1.873E-14

      iter #   8 total cpu time :  4978.0 secs   av.it.:   9.9
      thresh= 1.369E-08 alpha_mix =  0.700 |ddv_scf|^2 =  2.127E-16

     End of self-consistent calculation

     Convergence has been achieved 
 
     Number of q in the star =    6
     List of q in the star:
          1   0.250000000   0.433012702  -0.306661924
          2  -0.250000000   0.433012702  -0.306661924
          3   0.250000000  -0.433012702   0.306661924
          4  -0.250000000  -0.433012702   0.306661924
          5   0.500000000  -0.000000000  -0.306661924
          6  -0.500000000   0.000000000  -0.306661924

     Diagonalizing the dynamical matrix

     q = (    0.250000000   0.433012702  -0.306661924 ) 

 **************************************************************************
     freq (    1) =       1.940753 [THz] =      64.736560 [cm-1]
     freq (    2) =       1.940753 [THz] =      64.736560 [cm-1]
     freq (    3) =       2.831025 [THz] =      94.432841 [cm-1]
     freq (    4) =       2.831025 [THz] =      94.432841 [cm-1]
     freq (    5) =       3.457126 [THz] =     115.317296 [cm-1]
     freq (    6) =       3.457126 [THz] =     115.317296 [cm-1]
 **************************************************************************
 
     init_run     :      1.56s CPU      1.73s WALL (      11 calls)
     electrons    :    143.06s CPU    146.41s WALL (      11 calls)

     Called by init_run:
     wfcinit      :      0.00s CPU      0.11s WALL (      11 calls)
     potinit      :      0.25s CPU      0.30s WALL (      11 calls)

     Called by electrons:
     c_bands      :    143.02s CPU    146.36s WALL (      11 calls)
     v_of_rho     :      0.12s CPU      0.12s WALL (      12 calls)
     newd         :      0.13s CPU      0.15s WALL (      12 calls)

     Called by c_bands:
     init_us_2    :      3.76s CPU      3.59s WALL (   48282 calls)
     cegterg      :     75.08s CPU     76.72s WALL (    3090 calls)

     Called by sum_band:

     Called by *egterg:
     h_psi        :     43.79s CPU     44.53s WALL (   49996 calls)
     s_psi        :     46.36s CPU     48.89s WALL ( 1186019 calls)
     g_psi        :      0.48s CPU      0.48s WALL (   45294 calls)
     cdiaghg      :     21.11s CPU     21.81s WALL (   46906 calls)

     Called by h_psi:
     add_vuspsi   :     28.31s CPU     29.55s WALL (  596749 calls)

     General routines
     calbec       :     70.08s CPU     71.79s WALL ( 1264704 calls)
     fft          :      2.94s CPU      3.02s WALL (    9006 calls)
     ffts         :      3.09s CPU      3.24s WALL (    7233 calls)
     fftw         :   1639.08s CPU   1668.39s WALL ( 9243950 calls)
     interpolate  :      0.83s CPU      0.86s WALL (    1241 calls)
     davcio       :      9.96s CPU    381.77s WALL (  216548 calls)
 
     Parallel routines
     fft_scatter  :   1265.63s CPU   1276.77s WALL ( 9260189 calls)
 
     PHONON       :     1h14m CPU        1h22m WALL

     INITIALIZATION: 
     phq_setup    :      0.37s CPU      0.61s WALL (      12 calls)
     phq_init     :     27.27s CPU     27.97s WALL (      12 calls)
 
     phq_init     :     27.27s CPU     27.97s WALL (      12 calls)
     init_vloc    :      0.11s CPU      0.12s WALL (      12 calls)
     init_us_1    :      0.46s CPU      0.45s WALL (      12 calls)
     newd         :      0.13s CPU      0.15s WALL (      12 calls)
     dvanqq       :      1.52s CPU      1.54s WALL (      12 calls)
     drho         :     19.92s CPU     20.16s WALL (      12 calls)
 
     DYNAMICAL MATRIX:
     dynmat0      :      4.32s CPU      4.64s WALL (      12 calls)
     phqscf       :   4257.79s CPU   4723.15s WALL (      12 calls)
     dynmatrix    :      3.47s CPU      3.62s WALL (      12 calls)
 
     phqscf       :   4257.79s CPU   4723.15s WALL (      12 calls)
     solve_linter :   4255.06s CPU   4718.04s WALL (      58 calls)
     drhodv       :      2.60s CPU      2.87s WALL (      58 calls)
 
     dynmat0      :      4.32s CPU      4.64s WALL (      12 calls)
     dynmat_us    :      4.27s CPU      4.33s WALL (      12 calls)
     d2ionq       :      0.03s CPU      0.03s WALL (      12 calls)
 
     dynmat_us    :      4.27s CPU      4.33s WALL (      12 calls)
     addusdynmat  :      0.00s CPU      0.00s WALL (      12 calls)
 
     phqscf       :   4257.79s CPU   4723.15s WALL (      12 calls)
     solve_linter :   4255.06s CPU   4718.04s WALL (      58 calls)
 
     solve_linter :   4255.06s CPU   4718.04s WALL (      58 calls)
     dvqpsi_us    :     14.42s CPU     15.22s WALL (    4932 calls)
     ortho        :     56.66s CPU     57.38s WALL (   42517 calls)
     cgsolve      :    687.12s CPU    713.48s WALL (   42517 calls)
     incdrhoscf   :   1165.76s CPU   1174.71s WALL (   42517 calls)
     addusddens   :      8.24s CPU      8.26s WALL (     536 calls)
     vpsifft      :     45.48s CPU     48.83s WALL (   37585 calls)
     dv_of_drho   :      3.86s CPU      3.95s WALL (     571 calls)
     mix_pot      :      2.82s CPU     14.21s WALL (     478 calls)
     ef_shift     :      0.06s CPU      1.54s WALL (      29 calls)
     localdos     :      1.19s CPU      1.20s WALL (       4 calls)
     psymdvscf    :     28.99s CPU     29.12s WALL (     478 calls)
     newdq        :      7.84s CPU      7.87s WALL (     478 calls)
     adddvscf     :      3.46s CPU      3.82s WALL (   37585 calls)
     drhodvus     :      0.08s CPU      0.07s WALL (      58 calls)
 
     dvqpsi_us    :     14.42s CPU     15.22s WALL (    4932 calls)
     dvqpsi_us_on :      3.67s CPU      3.85s WALL (    4932 calls)
 
     cgsolve      :    687.12s CPU    713.48s WALL (   42517 calls)
     ch_psi       :    661.77s CPU    687.67s WALL (  546753 calls)
 
     ch_psi       :    661.77s CPU    687.67s WALL (  546753 calls)
     h_psiq       :    573.37s CPU    595.76s WALL (  546753 calls)
     last         :     84.70s CPU     88.19s WALL (  546753 calls)
 
     h_psiq       :    573.37s CPU    595.76s WALL (  546753 calls)
     firstfft     :    268.97s CPU    280.31s WALL ( 3477757 calls)
     secondfft    :    198.27s CPU    205.72s WALL ( 3477757 calls)
     add_vuspsi   :     28.31s CPU     29.55s WALL (  596749 calls)
 
     incdrhoscf   :   1165.76s CPU   1174.71s WALL (   42517 calls)
     addusdbec    :      4.75s CPU      4.58s WALL (   47449 calls)
 
     drhodvus     :      0.08s CPU      0.07s WALL (      58 calls)
 
      General routines
     calbec       :     70.08s CPU     71.79s WALL ( 1264704 calls)
     fft          :      2.94s CPU      3.02s WALL (    9006 calls)
     ffts         :      3.09s CPU      3.24s WALL (    7233 calls)
     fftw         :   1639.08s CPU   1668.39s WALL ( 9243950 calls)
     davcio       :      9.96s CPU    381.77s WALL (  216548 calls)
     write_rec    :      0.92s CPU     36.18s WALL (     536 calls)
 
 
     PHONON       :     1h14m CPU        1h22m WALL

 
   This run was terminated on:  13:47:34  29Mar2018            

=------------------------------------------------------------------------------=
   JOB DONE.
=------------------------------------------------------------------------------=
Application 30386923 resources: utime ~897198s, stime ~8749s, Rss ~59028, inblocks ~4151738287, outblocks ~1428834608
