
     Program PHONON v.5.4.0 starts on 29Mar2018 at 16: 8:44 

     This program is part of the open-source Quantum ESPRESSO suite
     for quantum simulation of materials; please cite
         "P. Giannozzi et al., J. Phys.:Condens. Matter 21 395502 (2009);
          URL http://www.quantum-espresso.org", 
     in publications or presentations arising from this work. More details at
     http://www.quantum-espresso.org/quote

     Parallel version (MPI & OpenMP), running on     192 processor cores
     Number of MPI processes:               192
     Threads/MPI process:                     1
     K-points division:     npool     =      24
     R & G space division:  proc/nbgrp/npool/nimage =       8

     Reading data from directory:
     ./na_hcp_7.24/na_hcp_7.24.save

   Info: using nr1, nr2, nr3 values from input

   Info: using nr1, nr2, nr3 values from input

     IMPORTANT: XC functional enforced from input :
     Exchange-correlation      = SLA  PW   PBE  PBE ( 1  4  3  4 0 0)
     Any further DFT definition will be discarded
     Please, verify this is what you really want

 
     Parallelization info
     --------------------
     sticks:   dense  smooth     PW     G-vecs:    dense   smooth      PW
     Min         144      72     20                 6470     2287     374
     Max         145      73     22                 6477     2307     381
     Sum        1159     583    169                51805    18365    3015
 


     Dynamical matrices for ( 4, 4, 4)  uniform grid of q-points
     (  12q-points):
       N         xq(1)         xq(2)         xq(3) 
       1   0.000000000   0.000000000   0.000000000
       2   0.000000000   0.000000000   0.153330962
       3   0.000000000   0.000000000  -0.306661924
       4   0.000000000   0.288675135   0.000000000
       5   0.000000000   0.288675135   0.153330962
       6   0.000000000   0.288675135  -0.306661924
       7   0.000000000  -0.577350269   0.000000000
       8   0.000000000  -0.577350269   0.153330962
       9   0.000000000  -0.577350269  -0.306661924
      10   0.250000000   0.433012702   0.000000000
      11   0.250000000   0.433012702   0.153330962
      12   0.250000000   0.433012702  -0.306661924

     Calculation of q =    0.0000000   0.0000000   0.0000000

                                                                                

     bravais-lattice index     =            4
     lattice parameter (alat)  =       7.2400  a.u.
     unit-cell volume          =     535.8663 (a.u.)^3
     number of atoms/cell      =            2
     number of atomic types    =            1
     kinetic-energy cut-off    =      40.0000  Ry
     charge density cut-off    =     320.0000  Ry
     convergence threshold     =      1.0E-15
     beta                      =       0.7000
     number of iterations used =            4
     Exchange-correlation      = SLA  PW   PBE  PBE ( 1  4  3  4 0 0)


     celldm(1)=    7.24000  celldm(2)=    0.00000  celldm(3)=    1.63046
     celldm(4)=    0.00000  celldm(5)=    0.00000  celldm(6)=    0.00000

     crystal axes: (cart. coord. in units of alat)
               a(1) = (  1.0000  0.0000  0.0000 )  
               a(2) = ( -0.5000  0.8660  0.0000 )  
               a(3) = (  0.0000  0.0000  1.6305 )  

     reciprocal axes: (cart. coord. in units 2 pi/alat)
               b(1) = (  1.0000  0.5774  0.0000 )  
               b(2) = (  0.0000  1.1547  0.0000 )  
               b(3) = (  0.0000  0.0000  0.6133 )  


     Atoms inside the unit cell: 

     Cartesian axes

     site n.  atom      mass           positions (alat units)
        1     Na  22.9900   tau(    1) = (    0.00000    0.00000    0.00000  )
        2     Na  22.9900   tau(    2) = (    0.50000    0.28868    0.81523  )

     Computing dynamical matrix for 
                    q = (   0.0000000   0.0000000   0.0000000 )
 
     25 Sym.Ops. (with q -> -q+G )


     G cutoff =  424.8811  (   6477 G-vectors)     FFT grid: ( 45, 45, 72)
     G cutoff =  212.4405  (   2303 G-vectors)  smooth grid: ( 30, 30, 48)

     number of k points=   366  Marzari-Vanderbilt smearing, width (Ry)=  0.0200

     PseudoPot. # 1 for Na read from file:
     ./Na_pbe_v1.uspp.F.UPF
     MD5 check sum: 76a99c7e9422403d3e93cbc85ab7bccb
     Pseudo is Ultrasoft, Zval =  9.0
     Generated by new atomic code, or converted to UPF format
     Using radial grid of  819 points,  5 beta functions with: 
                l(1) =   0
                l(2) =   0
                l(3) =   1
                l(4) =   1
                l(5) =   2
     Q(r) pseudized with  8 coefficients,  rinner =    1.250   1.250   1.250
                                                       1.250   1.250

     Mode symmetry, D_6h(6/mmm) point group:


     Atomic displacements:
     There are   4 irreducible representations

     Representation     1      1 modes -B_1g  To be done

     Representation     2      2 modes -E_2g  To be done

     Representation     3      1 modes -A_2u  To be done

     Representation     4      2 modes -E_1u  To be done



     Alpha used in Ewald sum =   2.8000
     PHONON       :     5.35s CPU         9.56s WALL



     Representation #  1 mode #   1

     Self-consistent Calculation
 
     Pert. #  1: Fermi energy shift (Ry) =     0.0000E+00     3.9183E-39

      iter #   1 total cpu time :    10.8 secs   av.it.:   5.4
      thresh= 1.000E-02 alpha_mix =  0.700 |ddv_scf|^2 =  2.631E-05
 
     Pert. #  1: Fermi energy shift (Ry) =     0.0000E+00     0.0000E+00

      iter #   2 total cpu time :    11.5 secs   av.it.:   7.1
      thresh= 5.130E-04 alpha_mix =  0.700 |ddv_scf|^2 =  1.651E-05
 
     Pert. #  1: Fermi energy shift (Ry) =     0.0000E+00     0.0000E+00

      iter #   3 total cpu time :    12.2 secs   av.it.:   6.9
      thresh= 4.064E-04 alpha_mix =  0.700 |ddv_scf|^2 =  2.103E-08
 
     Pert. #  1: Fermi energy shift (Ry) =    -7.0586E-23    -3.8265E-42

      iter #   4 total cpu time :    13.0 secs   av.it.:   8.4
      thresh= 1.450E-05 alpha_mix =  0.700 |ddv_scf|^2 =  8.771E-11
 
     Pert. #  1: Fermi energy shift (Ry) =     1.4117E-22    -9.5662E-43

      iter #   5 total cpu time :    13.6 secs   av.it.:   7.3
      thresh= 9.365E-07 alpha_mix =  0.700 |ddv_scf|^2 =  1.641E-12
 
     Pert. #  1: Fermi energy shift (Ry) =     0.0000E+00    -1.1958E-43

      iter #   6 total cpu time :    14.5 secs   av.it.:   7.2
      thresh= 1.281E-07 alpha_mix =  0.700 |ddv_scf|^2 =  5.218E-15
 
     Pert. #  1: Fermi energy shift (Ry) =     0.0000E+00     0.0000E+00

      iter #   7 total cpu time :    15.1 secs   av.it.:   8.1
      thresh= 7.224E-09 alpha_mix =  0.700 |ddv_scf|^2 =  1.386E-17

     End of self-consistent calculation

     Convergence has been achieved 


     Representation #  2 modes #   2  3

     Self-consistent Calculation
 
     Pert. #  1: Fermi energy shift (Ry) =     1.3480E-20     2.1073E-41
     Pert. #  2: Fermi energy shift (Ry) =     1.6263E-19     1.5306E-41

      iter #   1 total cpu time :    18.8 secs   av.it.:   5.1
      thresh= 1.000E-02 alpha_mix =  0.700 |ddv_scf|^2 =  7.100E-07
 
     Pert. #  1: Fermi energy shift (Ry) =     2.6893E-22    -1.9214E-41
     Pert. #  2: Fermi energy shift (Ry) =     2.4846E-20     1.2245E-40

      iter #   2 total cpu time :    22.0 secs   av.it.:   8.5
      thresh= 8.426E-05 alpha_mix =  0.700 |ddv_scf|^2 =  1.223E-08
 
     Pert. #  1: Fermi energy shift (Ry) =     1.6881E-21     5.7423E-42
     Pert. #  2: Fermi energy shift (Ry) =     1.4682E-20    -1.0045E-41

      iter #   3 total cpu time :    26.3 secs   av.it.:   8.8
      thresh= 1.106E-05 alpha_mix =  0.700 |ddv_scf|^2 =  4.356E-10
 
     Pert. #  1: Fermi energy shift (Ry) =    -2.8294E-21     2.7348E-44
     Pert. #  2: Fermi energy shift (Ry) =    -1.1294E-21     6.2180E-42

      iter #   4 total cpu time :    30.0 secs   av.it.:   8.4
      thresh= 2.087E-06 alpha_mix =  0.700 |ddv_scf|^2 =  1.464E-12
 
     Pert. #  1: Fermi energy shift (Ry) =    -5.7046E-22    -7.5532E-45
     Pert. #  2: Fermi energy shift (Ry) =     0.0000E+00     1.4947E-43

      iter #   5 total cpu time :    32.8 secs   av.it.:   8.8
      thresh= 1.210E-07 alpha_mix =  0.700 |ddv_scf|^2 =  2.070E-15
 
     Pert. #  1: Fermi energy shift (Ry) =    -5.7691E-24    -8.2316E-44
     Pert. #  2: Fermi energy shift (Ry) =     7.9056E-21    -5.9789E-44

      iter #   6 total cpu time :    37.3 secs   av.it.:   7.3
      thresh= 4.549E-09 alpha_mix =  0.700 |ddv_scf|^2 =  9.428E-17

     End of self-consistent calculation

     Convergence has been achieved 


     Representation #  3 mode #   4

     Self-consistent Calculation
 
     Pert. #  1: Fermi energy shift (Ry) =     6.8932E-26    -1.0031E-36

      iter #   1 total cpu time :    42.7 secs   av.it.:   5.1
      thresh= 1.000E-02 alpha_mix =  0.700 |ddv_scf|^2 =  2.665E-06
 
     Pert. #  1: Fermi energy shift (Ry) =    -3.4466E-26    -9.7958E-40

      iter #   2 total cpu time :    45.6 secs   av.it.:   8.0
      thresh= 1.632E-04 alpha_mix =  0.700 |ddv_scf|^2 =  4.986E-08
 
     Pert. #  1: Fermi energy shift (Ry) =    -1.7233E-26    -4.8979E-40

      iter #   3 total cpu time :    46.4 secs   av.it.:   8.2
      thresh= 2.233E-05 alpha_mix =  0.700 |ddv_scf|^2 =  1.152E-09
 
     Pert. #  1: Fermi energy shift (Ry) =     8.6165E-27    -2.4489E-40

      iter #   4 total cpu time :    47.0 secs   av.it.:   7.7
      thresh= 3.394E-06 alpha_mix =  0.700 |ddv_scf|^2 =  3.903E-12
 
     Pert. #  1: Fermi energy shift (Ry) =    -2.5849E-26    -7.6530E-42

      iter #   5 total cpu time :    47.6 secs   av.it.:   8.2
      thresh= 1.976E-07 alpha_mix =  0.700 |ddv_scf|^2 =  8.081E-15
 
     Pert. #  1: Fermi energy shift (Ry) =     0.0000E+00     1.9132E-42

      iter #   6 total cpu time :    48.3 secs   av.it.:   7.5
      thresh= 8.990E-09 alpha_mix =  0.700 |ddv_scf|^2 =  2.116E-16

     End of self-consistent calculation

     Convergence has been achieved 


     Representation #  4 modes #   5  6

     Self-consistent Calculation
 
     Pert. #  1: Fermi energy shift (Ry) =     2.0927E-24     1.2539E-37
     Pert. #  2: Fermi energy shift (Ry) =    -8.8233E-24     2.3510E-37

      iter #   1 total cpu time :    50.7 secs   av.it.:   5.2
      thresh= 1.000E-02 alpha_mix =  0.700 |ddv_scf|^2 =  6.685E-07
 
     Pert. #  1: Fermi energy shift (Ry) =     2.5309E-25    -9.7958E-40
     Pert. #  2: Fermi energy shift (Ry) =     2.7573E-24    -1.8367E-39

      iter #   2 total cpu time :    55.6 secs   av.it.:   8.8
      thresh= 8.176E-05 alpha_mix =  0.700 |ddv_scf|^2 =  1.243E-08
 
     Pert. #  1: Fermi energy shift (Ry) =    -1.8186E-26     1.9132E-42
     Pert. #  2: Fermi energy shift (Ry) =    -1.0771E-25    -9.1835E-41

      iter #   3 total cpu time :    59.5 secs   av.it.:   9.0
      thresh= 1.115E-05 alpha_mix =  0.700 |ddv_scf|^2 =  2.990E-10
 
     Pert. #  1: Fermi energy shift (Ry) =     1.0638E-25    -1.9132E-42
     Pert. #  2: Fermi energy shift (Ry) =    -1.7233E-26    -3.5873E-42

      iter #   4 total cpu time :    61.7 secs   av.it.:   8.7
      thresh= 1.729E-06 alpha_mix =  0.700 |ddv_scf|^2 =  1.012E-12
 
     Pert. #  1: Fermi energy shift (Ry) =     7.4114E-26     4.8281E-43
     Pert. #  2: Fermi energy shift (Ry) =    -1.7233E-26     0.0000E+00

      iter #   5 total cpu time :    64.5 secs   av.it.:   9.1
      thresh= 1.006E-07 alpha_mix =  0.700 |ddv_scf|^2 =  1.971E-15
 
     Pert. #  1: Fermi energy shift (Ry) =     1.2797E-25    -1.1584E-43
     Pert. #  2: Fermi energy shift (Ry) =     1.0340E-25     4.4842E-44

      iter #   6 total cpu time :    67.3 secs   av.it.:   8.5
      thresh= 4.439E-09 alpha_mix =  0.700 |ddv_scf|^2 =  5.231E-17

     End of self-consistent calculation

     Convergence has been achieved 
 
     Number of q in the star =    1
     List of q in the star:
          1   0.000000000   0.000000000   0.000000000

     Diagonalizing the dynamical matrix

     q = (    0.000000000   0.000000000   0.000000000 ) 

 **************************************************************************
     freq (    1) =      -0.466807 [THz] =     -15.571022 [cm-1]
     freq (    2) =      -0.418956 [THz] =     -13.974870 [cm-1]
     freq (    3) =      -0.418956 [THz] =     -13.974870 [cm-1]
     freq (    4) =       1.497415 [THz] =      49.948388 [cm-1]
     freq (    5) =       1.497415 [THz] =      49.948388 [cm-1]
     freq (    6) =       3.469113 [THz] =     115.717167 [cm-1]
 **************************************************************************

     Mode symmetry, D_6h(6/mmm) point group:

     freq (  1 -  1) =        -15.6  [cm-1]   --> A_2u            I  
     freq (  2 -  3) =        -14.0  [cm-1]   --> E_1u            I  
     freq (  4 -  5) =         49.9  [cm-1]   --> E_2g            R  
     freq (  6 -  6) =        115.7  [cm-1]   --> B_1g               

     Calculation of q =    0.0000000   0.0000000   0.1533310
 
     Parallelization info
     --------------------
     sticks:   dense  smooth     PW     G-vecs:    dense   smooth      PW
     Min         144      72     21                 6470     2293     381
     Max         145      73     26                 6477     2301     383
     Sum        1159     583    187                51805    18365    3057
 


     bravais-lattice index     =            4
     lattice parameter (alat)  =       7.2400  a.u.
     unit-cell volume          =     535.8663 (a.u.)^3
     number of atoms/cell      =            2
     number of atomic types    =            1
     number of electrons       =        18.00
     number of Kohn-Sham states=           13
     kinetic-energy cutoff     =      40.0000  Ry
     charge density cutoff     =     320.0000  Ry
     Exchange-correlation      = SLA  PW   PBE  PBE ( 1  4  3  4 0 0)

     celldm(1)=   7.240000  celldm(2)=   0.000000  celldm(3)=   1.630460
     celldm(4)=   0.000000  celldm(5)=   0.000000  celldm(6)=   0.000000

     crystal axes: (cart. coord. in units of alat)
               a(1) = (   1.000000   0.000000   0.000000 )  
               a(2) = (  -0.500000   0.866025   0.000000 )  
               a(3) = (   0.000000   0.000000   1.630460 )  

     reciprocal axes: (cart. coord. in units 2 pi/alat)
               b(1) = (  1.000000  0.577350  0.000000 )  
               b(2) = (  0.000000  1.154701  0.000000 )  
               b(3) = (  0.000000  0.000000  0.613324 )  


     PseudoPot. # 1 for Na read from file:
     ./Na_pbe_v1.uspp.F.UPF
     MD5 check sum: 76a99c7e9422403d3e93cbc85ab7bccb
     Pseudo is Ultrasoft, Zval =  9.0
     Generated by new atomic code, or converted to UPF format
     Using radial grid of  819 points,  5 beta functions with: 
                l(1) =   0
                l(2) =   0
                l(3) =   1
                l(4) =   1
                l(5) =   2
     Q(r) pseudized with  8 coefficients,  rinner =    1.250   1.250   1.250
                                                       1.250   1.250

     atomic species   valence    mass     pseudopotential
        Na             9.00    22.99000     Na( 1.00)

     24 Sym. Ops., with inversion, found



   Cartesian axes

     site n.     atom                  positions (alat units)
         1           Na  tau(   1) = (   0.0000000   0.0000000   0.0000000  )
         2           Na  tau(   2) = (   0.4999999   0.2886751   0.8152300  )

     number of k points=  1464  Marzari-Vanderbilt smearing, width (Ry)=  0.0200

     Number of k-points >= 100: set verbosity='high' to print them.

     Dense  grid:    51805 G-vectors     FFT dimensions: (  45,  45,  72)

     Smooth grid:    18365 G-vectors     FFT dimensions: (  30,  30,  48)

     Largest allocated arrays     est. size (Mb)     dimensions
        Kohn-Sham Wavefunctions         0.06 Mb     (     299,   13)
        NL pseudopotentials             0.12 Mb     (     299,   26)
        Each V/rho on FFT grid          0.28 Mb     (   18225)
        Each G-vector array             0.05 Mb     (    6477)
        G-vector shells                 0.02 Mb     (    2001)
     Largest temporary arrays     est. size (Mb)     dimensions
        Auxiliary wavefunctions         0.24 Mb     (     299,   52)
        Each subspace H/S matrix        0.01 Mb     (      26,   26)
        Each <psi_i|beta_j> matrix      0.01 Mb     (      26,   13)

     The potential is recalculated from file :
     ./na_hcp_7.24/_ph0/na_hcp_7.24.save/charge-density.dat

     Starting wfc are   10 atomic +    3 random wfc

     Band Structure Calculation
     Davidson diagonalization with overlap

     ethr =  5.56E-11,  avg # of iterations = 24.3

     total cpu time spent up to now is        4.6 secs

     End of band structure calculation

     Number of k-points >= 100: set verbosity='high' to print the bands.

     the Fermi energy is     1.3290 ev

     Writing output data file na_hcp_7.24.save

                                                                                

     bravais-lattice index     =            4
     lattice parameter (alat)  =       7.2400  a.u.
     unit-cell volume          =     535.8663 (a.u.)^3
     number of atoms/cell      =            2
     number of atomic types    =            1
     kinetic-energy cut-off    =      40.0000  Ry
     charge density cut-off    =     320.0000  Ry
     convergence threshold     =      1.0E-15
     beta                      =       0.7000
     number of iterations used =            4
     Exchange-correlation      = SLA  PW   PBE  PBE ( 1  4  3  4 0 0)


     celldm(1)=    7.24000  celldm(2)=    0.00000  celldm(3)=    1.63046
     celldm(4)=    0.00000  celldm(5)=    0.00000  celldm(6)=    0.00000

     crystal axes: (cart. coord. in units of alat)
               a(1) = (  1.0000  0.0000  0.0000 )  
               a(2) = ( -0.5000  0.8660  0.0000 )  
               a(3) = (  0.0000  0.0000  1.6305 )  

     reciprocal axes: (cart. coord. in units 2 pi/alat)
               b(1) = (  1.0000  0.5774  0.0000 )  
               b(2) = (  0.0000  1.1547  0.0000 )  
               b(3) = (  0.0000  0.0000  0.6133 )  


     Atoms inside the unit cell: 

     Cartesian axes

     site n.  atom      mass           positions (alat units)
        1     Na  22.9900   tau(    1) = (    0.00000    0.00000    0.00000  )
        2     Na  22.9900   tau(    2) = (    0.50000    0.28868    0.81523  )

     Computing dynamical matrix for 
                    q = (   0.0000000   0.0000000   0.1533310 )
 
     12 Sym.Ops. (no q -> -q+G )


     G cutoff =  424.8811  (   6477 G-vectors)     FFT grid: ( 45, 45, 72)
     G cutoff =  212.4405  (   2301 G-vectors)  smooth grid: ( 30, 30, 48)

     number of k points=  1464  Marzari-Vanderbilt smearing, width (Ry)=  0.0200

     PseudoPot. # 1 for Na read from file:
     ./Na_pbe_v1.uspp.F.UPF
     MD5 check sum: 76a99c7e9422403d3e93cbc85ab7bccb
     Pseudo is Ultrasoft, Zval =  9.0
     Generated by new atomic code, or converted to UPF format
     Using radial grid of  819 points,  5 beta functions with: 
                l(1) =   0
                l(2) =   0
                l(3) =   1
                l(4) =   1
                l(5) =   2
     Q(r) pseudized with  8 coefficients,  rinner =    1.250   1.250   1.250
                                                       1.250   1.250

     Mode symmetry, C_6v (6mm)  point group:


     Atomic displacements:
     There are   4 irreducible representations

     Representation     1      1 modes -A_1  To be done

     Representation     2      1 modes -B_2  To be done

     Representation     3      2 modes -E_1  To be done

     Representation     4      2 modes -E_2  To be done



     Alpha used in Ewald sum =   2.8000
     PHONON       :  1m 3.82s CPU     1m15.82s WALL



     Representation #  1 mode #   1

     Self-consistent Calculation

      iter #   1 total cpu time :    76.8 secs   av.it.:   5.4
      thresh= 1.000E-02 alpha_mix =  0.700 |ddv_scf|^2 =  4.409E-02

      iter #   2 total cpu time :    79.6 secs   av.it.:   6.8
      thresh= 1.000E-02 alpha_mix =  0.700 |ddv_scf|^2 =  2.540E+01

      iter #   3 total cpu time :    82.1 secs   av.it.:   6.8
      thresh= 1.000E-02 alpha_mix =  0.700 |ddv_scf|^2 =  1.014E-04

      iter #   4 total cpu time :    84.5 secs   av.it.:   5.5
      thresh= 1.007E-03 alpha_mix =  0.700 |ddv_scf|^2 =  3.346E-08

      iter #   5 total cpu time :    87.9 secs   av.it.:   7.7
      thresh= 1.829E-05 alpha_mix =  0.700 |ddv_scf|^2 =  1.481E-09

      iter #   6 total cpu time :   112.1 secs   av.it.:   7.4
      thresh= 3.848E-06 alpha_mix =  0.700 |ddv_scf|^2 =  2.332E-07

      iter #   7 total cpu time :   125.4 secs   av.it.:   4.4
      thresh= 4.829E-05 alpha_mix =  0.700 |ddv_scf|^2 =  1.582E-11

      iter #   8 total cpu time :   130.1 secs   av.it.:   8.3
      thresh= 3.977E-07 alpha_mix =  0.700 |ddv_scf|^2 =  2.425E-13

      iter #   9 total cpu time :   135.9 secs   av.it.:   8.8
      thresh= 4.924E-08 alpha_mix =  0.700 |ddv_scf|^2 =  1.314E-14

      iter #  10 total cpu time :   141.7 secs   av.it.:   8.7
      thresh= 1.146E-08 alpha_mix =  0.700 |ddv_scf|^2 =  5.837E-14

      iter #  11 total cpu time :   146.9 secs   av.it.:   6.2
      thresh= 2.416E-08 alpha_mix =  0.700 |ddv_scf|^2 =  7.256E-14

      iter #  12 total cpu time :   153.7 secs   av.it.:   5.8
      thresh= 2.694E-08 alpha_mix =  0.700 |ddv_scf|^2 =  2.515E-16

     End of self-consistent calculation

     Convergence has been achieved 


     Representation #  2 mode #   2

     Self-consistent Calculation

      iter #   1 total cpu time :   159.5 secs   av.it.:   5.4
      thresh= 1.000E-02 alpha_mix =  0.700 |ddv_scf|^2 =  6.953E-05

      iter #   2 total cpu time :   162.5 secs   av.it.:   7.1
      thresh= 8.339E-04 alpha_mix =  0.700 |ddv_scf|^2 =  2.440E-04

      iter #   3 total cpu time :   165.4 secs   av.it.:   6.4
      thresh= 1.562E-03 alpha_mix =  0.700 |ddv_scf|^2 =  1.199E-07

      iter #   4 total cpu time :   167.9 secs   av.it.:   8.2
      thresh= 3.463E-05 alpha_mix =  0.700 |ddv_scf|^2 =  3.231E-09

      iter #   5 total cpu time :   170.2 secs   av.it.:   8.6
      thresh= 5.684E-06 alpha_mix =  0.700 |ddv_scf|^2 =  7.216E-11

      iter #   6 total cpu time :   172.2 secs   av.it.:   8.7
      thresh= 8.495E-07 alpha_mix =  0.700 |ddv_scf|^2 =  5.354E-12

      iter #   7 total cpu time :   174.4 secs   av.it.:   8.3
      thresh= 2.314E-07 alpha_mix =  0.700 |ddv_scf|^2 =  3.236E-13

      iter #   8 total cpu time :   177.1 secs   av.it.:   8.6
      thresh= 5.689E-08 alpha_mix =  0.700 |ddv_scf|^2 =  1.990E-14

      iter #   9 total cpu time :   180.8 secs   av.it.:   7.7
      thresh= 1.411E-08 alpha_mix =  0.700 |ddv_scf|^2 =  6.406E-16

     End of self-consistent calculation

     Convergence has been achieved 


     Representation #  3 modes #   3  4

     Self-consistent Calculation

      iter #   1 total cpu time :   186.0 secs   av.it.:   5.1
      thresh= 1.000E-02 alpha_mix =  0.700 |ddv_scf|^2 =  6.739E-07

      iter #   2 total cpu time :   191.7 secs   av.it.:   8.6
      thresh= 8.209E-05 alpha_mix =  0.700 |ddv_scf|^2 =  1.241E-08

      iter #   3 total cpu time :   197.4 secs   av.it.:   8.8
      thresh= 1.114E-05 alpha_mix =  0.700 |ddv_scf|^2 =  3.139E-10

      iter #   4 total cpu time :   202.5 secs   av.it.:   8.5
      thresh= 1.772E-06 alpha_mix =  0.700 |ddv_scf|^2 =  1.055E-12

      iter #   5 total cpu time :   207.1 secs   av.it.:   8.9
      thresh= 1.027E-07 alpha_mix =  0.700 |ddv_scf|^2 =  2.007E-15

      iter #   6 total cpu time :   213.5 secs   av.it.:   8.2
      thresh= 4.480E-09 alpha_mix =  0.700 |ddv_scf|^2 =  6.023E-17

     End of self-consistent calculation

     Convergence has been achieved 


     Representation #  4 modes #   5  6

     Self-consistent Calculation

      iter #   1 total cpu time :   220.2 secs   av.it.:   5.1
      thresh= 1.000E-02 alpha_mix =  0.700 |ddv_scf|^2 =  7.031E-07

      iter #   2 total cpu time :   224.9 secs   av.it.:   8.6
      thresh= 8.385E-05 alpha_mix =  0.700 |ddv_scf|^2 =  1.226E-08

      iter #   3 total cpu time :   229.6 secs   av.it.:   8.8
      thresh= 1.107E-05 alpha_mix =  0.700 |ddv_scf|^2 =  4.099E-10

      iter #   4 total cpu time :   245.2 secs   av.it.:   8.5
      thresh= 2.025E-06 alpha_mix =  0.700 |ddv_scf|^2 =  1.375E-12

      iter #   5 total cpu time :   250.3 secs   av.it.:   8.9
      thresh= 1.173E-07 alpha_mix =  0.700 |ddv_scf|^2 =  2.079E-15

      iter #   6 total cpu time :   254.4 secs   av.it.:   7.8
      thresh= 4.560E-09 alpha_mix =  0.700 |ddv_scf|^2 =  8.951E-17

     End of self-consistent calculation

     Convergence has been achieved 
 
     Number of q in the star =    2
     List of q in the star:
          1   0.000000000   0.000000000   0.153330962
          2   0.000000000   0.000000000  -0.153330962

     Diagonalizing the dynamical matrix

     q = (    0.000000000   0.000000000   0.153330962 ) 

 **************************************************************************
     freq (    1) =       0.414887 [THz] =      13.839138 [cm-1]
     freq (    2) =       0.414887 [THz] =      13.839138 [cm-1]
     freq (    3) =       1.372240 [THz] =      45.772999 [cm-1]
     freq (    4) =       1.372240 [THz] =      45.772999 [cm-1]
     freq (    5) =       1.399904 [THz] =      46.695766 [cm-1]
     freq (    6) =       3.239630 [THz] =     108.062423 [cm-1]
 **************************************************************************

     Mode symmetry, C_6v (6mm)  point group:

     freq (  1 -  2) =         13.8  [cm-1]   --> E_1                
     freq (  3 -  4) =         45.8  [cm-1]   --> E_2                
     freq (  5 -  5) =         46.7  [cm-1]   --> A_1                
     freq (  6 -  6) =        108.1  [cm-1]   --> B_2                

     Calculation of q =    0.0000000   0.0000000  -0.3066619
 
     Parallelization info
     --------------------
     sticks:   dense  smooth     PW     G-vecs:    dense   smooth      PW
     Min         144      72     20                 6470     2287     374
     Max         145      73     22                 6477     2307     381
     Sum        1159     583    169                51805    18365    3015
 


     bravais-lattice index     =            4
     lattice parameter (alat)  =       7.2400  a.u.
     unit-cell volume          =     535.8663 (a.u.)^3
     number of atoms/cell      =            2
     number of atomic types    =            1
     number of electrons       =        18.00
     number of Kohn-Sham states=           13
     kinetic-energy cutoff     =      40.0000  Ry
     charge density cutoff     =     320.0000  Ry
     Exchange-correlation      = SLA  PW   PBE  PBE ( 1  4  3  4 0 0)

     celldm(1)=   7.240000  celldm(2)=   0.000000  celldm(3)=   1.630460
     celldm(4)=   0.000000  celldm(5)=   0.000000  celldm(6)=   0.000000

     crystal axes: (cart. coord. in units of alat)
               a(1) = (   1.000000   0.000000   0.000000 )  
               a(2) = (  -0.500000   0.866025   0.000000 )  
               a(3) = (   0.000000   0.000000   1.630460 )  

     reciprocal axes: (cart. coord. in units 2 pi/alat)
               b(1) = (  1.000000  0.577350  0.000000 )  
               b(2) = (  0.000000  1.154701  0.000000 )  
               b(3) = (  0.000000  0.000000  0.613324 )  


     PseudoPot. # 1 for Na read from file:
     ./Na_pbe_v1.uspp.F.UPF
     MD5 check sum: 76a99c7e9422403d3e93cbc85ab7bccb
     Pseudo is Ultrasoft, Zval =  9.0
     Generated by new atomic code, or converted to UPF format
     Using radial grid of  819 points,  5 beta functions with: 
                l(1) =   0
                l(2) =   0
                l(3) =   1
                l(4) =   1
                l(5) =   2
     Q(r) pseudized with  8 coefficients,  rinner =    1.250   1.250   1.250
                                                       1.250   1.250

     atomic species   valence    mass     pseudopotential
        Na             9.00    22.99000     Na( 1.00)

     24 Sym. Ops., with inversion, found



   Cartesian axes

     site n.     atom                  positions (alat units)
         1           Na  tau(   1) = (   0.0000000   0.0000000   0.0000000  )
         2           Na  tau(   2) = (   0.4999999   0.2886751   0.8152300  )

     number of k points=   732  Marzari-Vanderbilt smearing, width (Ry)=  0.0200

     Number of k-points >= 100: set verbosity='high' to print them.

     Dense  grid:    51805 G-vectors     FFT dimensions: (  45,  45,  72)

     Smooth grid:    18365 G-vectors     FFT dimensions: (  30,  30,  48)

     Largest allocated arrays     est. size (Mb)     dimensions
        Kohn-Sham Wavefunctions         0.06 Mb     (     300,   13)
        NL pseudopotentials             0.12 Mb     (     300,   26)
        Each V/rho on FFT grid          0.28 Mb     (   18225)
        Each G-vector array             0.05 Mb     (    6477)
        G-vector shells                 0.02 Mb     (    2000)
     Largest temporary arrays     est. size (Mb)     dimensions
        Auxiliary wavefunctions         0.24 Mb     (     300,   52)
        Each subspace H/S matrix        0.01 Mb     (      26,   26)
        Each <psi_i|beta_j> matrix      0.01 Mb     (      26,   13)

     The potential is recalculated from file :
     ./na_hcp_7.24/_ph0/na_hcp_7.24.save/charge-density.dat

     Starting wfc are   10 atomic +    3 random wfc

     Band Structure Calculation
     Davidson diagonalization with overlap

     ethr =  5.56E-11,  avg # of iterations = 24.2

     total cpu time spent up to now is        8.7 secs

     End of band structure calculation

     Number of k-points >= 100: set verbosity='high' to print the bands.

     the Fermi energy is     1.3290 ev

     Writing output data file na_hcp_7.24.save

                                                                                

     bravais-lattice index     =            4
     lattice parameter (alat)  =       7.2400  a.u.
     unit-cell volume          =     535.8663 (a.u.)^3
     number of atoms/cell      =            2
     number of atomic types    =            1
     kinetic-energy cut-off    =      40.0000  Ry
     charge density cut-off    =     320.0000  Ry
     convergence threshold     =      1.0E-15
     beta                      =       0.7000
     number of iterations used =            4
     Exchange-correlation      = SLA  PW   PBE  PBE ( 1  4  3  4 0 0)


     celldm(1)=    7.24000  celldm(2)=    0.00000  celldm(3)=    1.63046
     celldm(4)=    0.00000  celldm(5)=    0.00000  celldm(6)=    0.00000

     crystal axes: (cart. coord. in units of alat)
               a(1) = (  1.0000  0.0000  0.0000 )  
               a(2) = ( -0.5000  0.8660  0.0000 )  
               a(3) = (  0.0000  0.0000  1.6305 )  

     reciprocal axes: (cart. coord. in units 2 pi/alat)
               b(1) = (  1.0000  0.5774  0.0000 )  
               b(2) = (  0.0000  1.1547  0.0000 )  
               b(3) = (  0.0000  0.0000  0.6133 )  


     Atoms inside the unit cell: 

     Cartesian axes

     site n.  atom      mass           positions (alat units)
        1     Na  22.9900   tau(    1) = (    0.00000    0.00000    0.00000  )
        2     Na  22.9900   tau(    2) = (    0.50000    0.28868    0.81523  )

     Computing dynamical matrix for 
                    q = (   0.0000000   0.0000000  -0.3066619 )
 
     25 Sym.Ops. (with q -> -q+G )


     G cutoff =  424.8811  (   6477 G-vectors)     FFT grid: ( 45, 45, 72)
     G cutoff =  212.4405  (   2303 G-vectors)  smooth grid: ( 30, 30, 48)

     number of k points=   732  Marzari-Vanderbilt smearing, width (Ry)=  0.0200

     PseudoPot. # 1 for Na read from file:
     ./Na_pbe_v1.uspp.F.UPF
     MD5 check sum: 76a99c7e9422403d3e93cbc85ab7bccb
     Pseudo is Ultrasoft, Zval =  9.0
     Generated by new atomic code, or converted to UPF format
     Using radial grid of  819 points,  5 beta functions with: 
                l(1) =   0
                l(2) =   0
                l(3) =   1
                l(4) =   1
                l(5) =   2
     Q(r) pseudized with  8 coefficients,  rinner =    1.250   1.250   1.250
                                                       1.250   1.250


     Atomic displacements:
     There are   2 irreducible representations

     Representation     1      4 modes -  To be done

     Representation     2      2 modes -  To be done



     Alpha used in Ewald sum =   2.8000
     PHONON       :  3m53.81s CPU     4m19.70s WALL



     Representation #  1 modes #   1  2  3  4

     Self-consistent Calculation

      iter #   1 total cpu time :   265.1 secs   av.it.:   5.2
      thresh= 1.000E-02 alpha_mix =  0.700 |ddv_scf|^2 =  1.720E-07

      iter #   2 total cpu time :   271.7 secs   av.it.:   9.4
      thresh= 4.147E-05 alpha_mix =  0.700 |ddv_scf|^2 =  3.082E-09

      iter #   3 total cpu time :   280.8 secs   av.it.:   9.7
      thresh= 5.552E-06 alpha_mix =  0.700 |ddv_scf|^2 =  8.886E-11

      iter #   4 total cpu time :   289.0 secs   av.it.:   9.1
      thresh= 9.427E-07 alpha_mix =  0.700 |ddv_scf|^2 =  2.983E-13

      iter #   5 total cpu time :   298.7 secs   av.it.:   9.5
      thresh= 5.462E-08 alpha_mix =  0.700 |ddv_scf|^2 =  5.199E-16

     End of self-consistent calculation

     Convergence has been achieved 


     Representation #  2 modes #   5  6

     Self-consistent Calculation

      iter #   1 total cpu time :   302.2 secs   av.it.:   5.7
      thresh= 1.000E-02 alpha_mix =  0.700 |ddv_scf|^2 =  1.757E-04

      iter #   2 total cpu time :   306.3 secs   av.it.:   7.7
      thresh= 1.325E-03 alpha_mix =  0.700 |ddv_scf|^2 =  4.974E-03

      iter #   3 total cpu time :   326.0 secs   av.it.:   6.1
      thresh= 7.053E-03 alpha_mix =  0.700 |ddv_scf|^2 =  1.184E-07

      iter #   4 total cpu time :   329.0 secs   av.it.:   8.6
      thresh= 3.441E-05 alpha_mix =  0.700 |ddv_scf|^2 =  6.616E-10

      iter #   5 total cpu time :   332.4 secs   av.it.:   9.5
      thresh= 2.572E-06 alpha_mix =  0.700 |ddv_scf|^2 =  4.609E-11

      iter #   6 total cpu time :   336.4 secs   av.it.:   9.4
      thresh= 6.789E-07 alpha_mix =  0.700 |ddv_scf|^2 =  1.314E-12

      iter #   7 total cpu time :   340.3 secs   av.it.:   9.7
      thresh= 1.146E-07 alpha_mix =  0.700 |ddv_scf|^2 =  1.847E-13

      iter #   8 total cpu time :   343.3 secs   av.it.:   8.2
      thresh= 4.298E-08 alpha_mix =  0.700 |ddv_scf|^2 =  2.270E-16

     End of self-consistent calculation

     Convergence has been achieved 
 
     Number of q in the star =    1
     List of q in the star:
          1   0.000000000   0.000000000  -0.306661924

     Diagonalizing the dynamical matrix

     q = (    0.000000000   0.000000000  -0.306661924 ) 

 **************************************************************************
     freq (    1) =       0.867165 [THz] =      28.925509 [cm-1]
     freq (    2) =       0.867165 [THz] =      28.925509 [cm-1]
     freq (    3) =       0.867165 [THz] =      28.925509 [cm-1]
     freq (    4) =       0.867165 [THz] =      28.925509 [cm-1]
     freq (    5) =       2.551745 [THz] =      85.117061 [cm-1]
     freq (    6) =       2.551745 [THz] =      85.117061 [cm-1]
 **************************************************************************

     Calculation of q =    0.0000000   0.2886751   0.0000000
 
     Parallelization info
     --------------------
     sticks:   dense  smooth     PW     G-vecs:    dense   smooth      PW
     Min         144      72     23                 6470     2283     417
     Max         145      73     24                 6477     2310     422
     Sum        1159     583    187                51805    18365    3357
 


     bravais-lattice index     =            4
     lattice parameter (alat)  =       7.2400  a.u.
     unit-cell volume          =     535.8663 (a.u.)^3
     number of atoms/cell      =            2
     number of atomic types    =            1
     number of electrons       =        18.00
     number of Kohn-Sham states=           13
     kinetic-energy cutoff     =      40.0000  Ry
     charge density cutoff     =     320.0000  Ry
     Exchange-correlation      = SLA  PW   PBE  PBE ( 1  4  3  4 0 0)

     celldm(1)=   7.240000  celldm(2)=   0.000000  celldm(3)=   1.630460
     celldm(4)=   0.000000  celldm(5)=   0.000000  celldm(6)=   0.000000

     crystal axes: (cart. coord. in units of alat)
               a(1) = (   1.000000   0.000000   0.000000 )  
               a(2) = (  -0.500000   0.866025   0.000000 )  
               a(3) = (   0.000000   0.000000   1.630460 )  

     reciprocal axes: (cart. coord. in units 2 pi/alat)
               b(1) = (  1.000000  0.577350  0.000000 )  
               b(2) = (  0.000000  1.154701  0.000000 )  
               b(3) = (  0.000000  0.000000  0.613324 )  


     PseudoPot. # 1 for Na read from file:
     ./Na_pbe_v1.uspp.F.UPF
     MD5 check sum: 76a99c7e9422403d3e93cbc85ab7bccb
     Pseudo is Ultrasoft, Zval =  9.0
     Generated by new atomic code, or converted to UPF format
     Using radial grid of  819 points,  5 beta functions with: 
                l(1) =   0
                l(2) =   0
                l(3) =   1
                l(4) =   1
                l(5) =   2
     Q(r) pseudized with  8 coefficients,  rinner =    1.250   1.250   1.250
                                                       1.250   1.250

     atomic species   valence    mass     pseudopotential
        Na             9.00    22.99000     Na( 1.00)

     24 Sym. Ops., with inversion, found



   Cartesian axes

     site n.     atom                  positions (alat units)
         1           Na  tau(   1) = (   0.0000000   0.0000000   0.0000000  )
         2           Na  tau(   2) = (   0.4999999   0.2886751   0.8152300  )

     number of k points=  3600  Marzari-Vanderbilt smearing, width (Ry)=  0.0200

     Number of k-points >= 100: set verbosity='high' to print them.

     Dense  grid:    51805 G-vectors     FFT dimensions: (  45,  45,  72)

     Smooth grid:    18365 G-vectors     FFT dimensions: (  30,  30,  48)

     Largest allocated arrays     est. size (Mb)     dimensions
        Kohn-Sham Wavefunctions         0.06 Mb     (     297,   13)
        NL pseudopotentials             0.12 Mb     (     297,   26)
        Each V/rho on FFT grid          0.28 Mb     (   18225)
        Each G-vector array             0.05 Mb     (    6477)
        G-vector shells                 0.01 Mb     (    1966)
     Largest temporary arrays     est. size (Mb)     dimensions
        Auxiliary wavefunctions         0.24 Mb     (     297,   52)
        Each subspace H/S matrix        0.01 Mb     (      26,   26)
        Each <psi_i|beta_j> matrix      0.01 Mb     (      26,   13)

     The potential is recalculated from file :
     ./na_hcp_7.24/_ph0/na_hcp_7.24.save/charge-density.dat

     Starting wfc are   10 atomic +    3 random wfc

     Band Structure Calculation
     Davidson diagonalization with overlap

     ethr =  5.56E-11,  avg # of iterations = 23.4

     total cpu time spent up to now is       20.9 secs

     End of band structure calculation

     Number of k-points >= 100: set verbosity='high' to print the bands.

     the Fermi energy is     1.3290 ev

     Writing output data file na_hcp_7.24.save

                                                                                

     bravais-lattice index     =            4
     lattice parameter (alat)  =       7.2400  a.u.
     unit-cell volume          =     535.8663 (a.u.)^3
     number of atoms/cell      =            2
     number of atomic types    =            1
     kinetic-energy cut-off    =      40.0000  Ry
     charge density cut-off    =     320.0000  Ry
     convergence threshold     =      1.0E-15
     beta                      =       0.7000
     number of iterations used =            4
     Exchange-correlation      = SLA  PW   PBE  PBE ( 1  4  3  4 0 0)


     celldm(1)=    7.24000  celldm(2)=    0.00000  celldm(3)=    1.63046
     celldm(4)=    0.00000  celldm(5)=    0.00000  celldm(6)=    0.00000

     crystal axes: (cart. coord. in units of alat)
               a(1) = (  1.0000  0.0000  0.0000 )  
               a(2) = ( -0.5000  0.8660  0.0000 )  
               a(3) = (  0.0000  0.0000  1.6305 )  

     reciprocal axes: (cart. coord. in units 2 pi/alat)
               b(1) = (  1.0000  0.5774  0.0000 )  
               b(2) = (  0.0000  1.1547  0.0000 )  
               b(3) = (  0.0000  0.0000  0.6133 )  


     Atoms inside the unit cell: 

     Cartesian axes

     site n.  atom      mass           positions (alat units)
        1     Na  22.9900   tau(    1) = (    0.00000    0.00000    0.00000  )
        2     Na  22.9900   tau(    2) = (    0.50000    0.28868    0.81523  )

     Computing dynamical matrix for 
                    q = (   0.0000000   0.2886751   0.0000000 )
 
      4 Sym.Ops. (no q -> -q+G )


     G cutoff =  424.8811  (   6477 G-vectors)     FFT grid: ( 45, 45, 72)
     G cutoff =  212.4405  (   2301 G-vectors)  smooth grid: ( 30, 30, 48)

     number of k points=  3600  Marzari-Vanderbilt smearing, width (Ry)=  0.0200

     PseudoPot. # 1 for Na read from file:
     ./Na_pbe_v1.uspp.F.UPF
     MD5 check sum: 76a99c7e9422403d3e93cbc85ab7bccb
     Pseudo is Ultrasoft, Zval =  9.0
     Generated by new atomic code, or converted to UPF format
     Using radial grid of  819 points,  5 beta functions with: 
                l(1) =   0
                l(2) =   0
                l(3) =   1
                l(4) =   1
                l(5) =   2
     Q(r) pseudized with  8 coefficients,  rinner =    1.250   1.250   1.250
                                                       1.250   1.250

     Mode symmetry, C_2v (mm2)  point group:


     Atomic displacements:
     There are   6 irreducible representations

     Representation     1      1 modes -A_1  D_1  S_1  To be done

     Representation     2      1 modes -A_1  D_1  S_1  To be done

     Representation     3      1 modes -B_1  D_3  S_3  To be done

     Representation     4      1 modes -B_1  D_3  S_3  To be done

     Representation     5      1 modes -B_2  D_4  S_4  To be done

     Representation     6      1 modes -B_2  D_4  S_4  To be done



     Alpha used in Ewald sum =   2.8000
     PHONON       :  5m27.29s CPU     6m 1.38s WALL



     Representation #  1 mode #   1

     Self-consistent Calculation

      iter #   1 total cpu time :   363.1 secs   av.it.:   5.7
      thresh= 1.000E-02 alpha_mix =  0.700 |ddv_scf|^2 =  5.071E-04

      iter #   2 total cpu time :   390.0 secs   av.it.:   7.3
      thresh= 2.252E-03 alpha_mix =  0.700 |ddv_scf|^2 =  1.890E-02

      iter #   3 total cpu time :   395.5 secs   av.it.:   5.3
      thresh= 1.000E-02 alpha_mix =  0.700 |ddv_scf|^2 =  4.318E-07

      iter #   4 total cpu time :   399.0 secs   av.it.:   8.2
      thresh= 6.571E-05 alpha_mix =  0.700 |ddv_scf|^2 =  2.702E-08

      iter #   5 total cpu time :   405.2 secs   av.it.:   8.3
      thresh= 1.644E-05 alpha_mix =  0.700 |ddv_scf|^2 =  6.545E-10

      iter #   6 total cpu time :   409.8 secs   av.it.:   8.7
      thresh= 2.558E-06 alpha_mix =  0.700 |ddv_scf|^2 =  1.482E-10

      iter #   7 total cpu time :   415.0 secs   av.it.:   7.9
      thresh= 1.217E-06 alpha_mix =  0.700 |ddv_scf|^2 =  1.577E-09

      iter #   8 total cpu time :   419.8 secs   av.it.:   6.6
      thresh= 3.971E-06 alpha_mix =  0.700 |ddv_scf|^2 =  2.133E-12

      iter #   9 total cpu time :   427.4 secs   av.it.:   8.9
      thresh= 1.461E-07 alpha_mix =  0.700 |ddv_scf|^2 =  3.830E-13

      iter #  10 total cpu time :   432.0 secs   av.it.:   7.9
      thresh= 6.189E-08 alpha_mix =  0.700 |ddv_scf|^2 =  2.003E-12

      iter #  11 total cpu time :   447.8 secs   av.it.:   6.8
      thresh= 1.415E-07 alpha_mix =  0.700 |ddv_scf|^2 =  1.448E-15

      iter #  12 total cpu time :   451.8 secs   av.it.:   8.9
      thresh= 3.805E-09 alpha_mix =  0.700 |ddv_scf|^2 =  8.500E-17

     End of self-consistent calculation

     Convergence has been achieved 


     Representation #  2 mode #   2

     Self-consistent Calculation

      iter #   1 total cpu time :   457.8 secs   av.it.:   5.7
      thresh= 1.000E-02 alpha_mix =  0.700 |ddv_scf|^2 =  5.071E-04

      iter #   2 total cpu time :   462.8 secs   av.it.:   7.3
      thresh= 2.252E-03 alpha_mix =  0.700 |ddv_scf|^2 =  1.890E-02

      iter #   3 total cpu time :   466.9 secs   av.it.:   5.3
      thresh= 1.000E-02 alpha_mix =  0.700 |ddv_scf|^2 =  4.318E-07

      iter #   4 total cpu time :   471.0 secs   av.it.:   8.2
      thresh= 6.571E-05 alpha_mix =  0.700 |ddv_scf|^2 =  2.702E-08

      iter #   5 total cpu time :   475.7 secs   av.it.:   8.3
      thresh= 1.644E-05 alpha_mix =  0.700 |ddv_scf|^2 =  6.549E-10

      iter #   6 total cpu time :   480.2 secs   av.it.:   8.7
      thresh= 2.559E-06 alpha_mix =  0.700 |ddv_scf|^2 =  1.753E-10

      iter #   7 total cpu time :   498.2 secs   av.it.:   7.7
      thresh= 1.324E-06 alpha_mix =  0.700 |ddv_scf|^2 =  1.554E-09

      iter #   8 total cpu time :   503.2 secs   av.it.:   6.7
      thresh= 3.942E-06 alpha_mix =  0.700 |ddv_scf|^2 =  2.025E-12

      iter #   9 total cpu time :   512.7 secs   av.it.:   8.9
      thresh= 1.423E-07 alpha_mix =  0.700 |ddv_scf|^2 =  3.849E-13

      iter #  10 total cpu time :   521.3 secs   av.it.:   7.9
      thresh= 6.204E-08 alpha_mix =  0.700 |ddv_scf|^2 =  1.985E-12

      iter #  11 total cpu time :   529.0 secs   av.it.:   6.8
      thresh= 1.409E-07 alpha_mix =  0.700 |ddv_scf|^2 =  1.450E-15

      iter #  12 total cpu time :   534.8 secs   av.it.:   8.9
      thresh= 3.807E-09 alpha_mix =  0.700 |ddv_scf|^2 =  8.479E-17

     End of self-consistent calculation

     Convergence has been achieved 


     Representation #  3 mode #   3

     Self-consistent Calculation

      iter #   1 total cpu time :   537.9 secs   av.it.:   5.3
      thresh= 1.000E-02 alpha_mix =  0.700 |ddv_scf|^2 =  2.979E-06

      iter #   2 total cpu time :   542.9 secs   av.it.:   8.3
      thresh= 1.726E-04 alpha_mix =  0.700 |ddv_scf|^2 =  4.784E-08

      iter #   3 total cpu time :   547.7 secs   av.it.:   8.7
      thresh= 2.187E-05 alpha_mix =  0.700 |ddv_scf|^2 =  2.293E-09

      iter #   4 total cpu time :   553.2 secs   av.it.:   8.2
      thresh= 4.788E-06 alpha_mix =  0.700 |ddv_scf|^2 =  1.363E-11

      iter #   5 total cpu time :   558.1 secs   av.it.:   8.3
      thresh= 3.691E-07 alpha_mix =  0.700 |ddv_scf|^2 =  1.039E-13

      iter #   6 total cpu time :   564.4 secs   av.it.:   8.7
      thresh= 3.224E-08 alpha_mix =  0.700 |ddv_scf|^2 =  3.779E-16

     End of self-consistent calculation

     Convergence has been achieved 


     Representation #  4 mode #   4

     Self-consistent Calculation

      iter #   1 total cpu time :   571.2 secs   av.it.:   5.3
      thresh= 1.000E-02 alpha_mix =  0.700 |ddv_scf|^2 =  2.979E-06

      iter #   2 total cpu time :   576.2 secs   av.it.:   8.3
      thresh= 1.726E-04 alpha_mix =  0.700 |ddv_scf|^2 =  4.784E-08

      iter #   3 total cpu time :   581.2 secs   av.it.:   8.7
      thresh= 2.187E-05 alpha_mix =  0.700 |ddv_scf|^2 =  2.293E-09

      iter #   4 total cpu time :   585.6 secs   av.it.:   8.2
      thresh= 4.788E-06 alpha_mix =  0.700 |ddv_scf|^2 =  1.363E-11

      iter #   5 total cpu time :   590.2 secs   av.it.:   8.3
      thresh= 3.691E-07 alpha_mix =  0.700 |ddv_scf|^2 =  1.039E-13

      iter #   6 total cpu time :   594.7 secs   av.it.:   8.7
      thresh= 3.224E-08 alpha_mix =  0.700 |ddv_scf|^2 =  3.779E-16

     End of self-consistent calculation

     Convergence has been achieved 


     Representation #  5 mode #   5

     Self-consistent Calculation

      iter #   1 total cpu time :   602.4 secs   av.it.:   5.5
      thresh= 1.000E-02 alpha_mix =  0.700 |ddv_scf|^2 =  8.066E-06

      iter #   2 total cpu time :   606.0 secs   av.it.:   8.4
      thresh= 2.840E-04 alpha_mix =  0.700 |ddv_scf|^2 =  1.725E-06

      iter #   3 total cpu time :   609.8 secs   av.it.:   7.7
      thresh= 1.313E-04 alpha_mix =  0.700 |ddv_scf|^2 =  1.021E-08

      iter #   4 total cpu time :   614.9 secs   av.it.:   8.8
      thresh= 1.010E-05 alpha_mix =  0.700 |ddv_scf|^2 =  3.643E-10

      iter #   5 total cpu time :   619.6 secs   av.it.:   8.2
      thresh= 1.909E-06 alpha_mix =  0.700 |ddv_scf|^2 =  2.131E-12

      iter #   6 total cpu time :   624.5 secs   av.it.:   8.6
      thresh= 1.460E-07 alpha_mix =  0.700 |ddv_scf|^2 =  1.159E-14

      iter #   7 total cpu time :   629.8 secs   av.it.:   8.4
      thresh= 1.077E-08 alpha_mix =  0.700 |ddv_scf|^2 =  5.450E-16

     End of self-consistent calculation

     Convergence has been achieved 


     Representation #  6 mode #   6

     Self-consistent Calculation

      iter #   1 total cpu time :   635.0 secs   av.it.:   5.5
      thresh= 1.000E-02 alpha_mix =  0.700 |ddv_scf|^2 =  8.066E-06

      iter #   2 total cpu time :   641.1 secs   av.it.:   8.4
      thresh= 2.840E-04 alpha_mix =  0.700 |ddv_scf|^2 =  1.725E-06

      iter #   3 total cpu time :   645.2 secs   av.it.:   7.7
      thresh= 1.313E-04 alpha_mix =  0.700 |ddv_scf|^2 =  1.021E-08

      iter #   4 total cpu time :   649.6 secs   av.it.:   8.8
      thresh= 1.010E-05 alpha_mix =  0.700 |ddv_scf|^2 =  3.643E-10

      iter #   5 total cpu time :   654.1 secs   av.it.:   8.2
      thresh= 1.909E-06 alpha_mix =  0.700 |ddv_scf|^2 =  2.131E-12

      iter #   6 total cpu time :   658.4 secs   av.it.:   8.6
      thresh= 1.460E-07 alpha_mix =  0.700 |ddv_scf|^2 =  1.159E-14

      iter #   7 total cpu time :   663.3 secs   av.it.:   8.4
      thresh= 1.077E-08 alpha_mix =  0.700 |ddv_scf|^2 =  5.450E-16

     End of self-consistent calculation

     Convergence has been achieved 
 
     Number of q in the star =    6
     List of q in the star:
          1   0.000000000   0.288675135   0.000000000
          2  -0.250000000   0.144337567   0.000000000
          3   0.250000000  -0.144337567   0.000000000
          4  -0.250000000  -0.144337567   0.000000000
          5   0.250000000   0.144337567   0.000000000
          6   0.000000000  -0.288675135   0.000000000

     Diagonalizing the dynamical matrix

     q = (    0.000000000   0.288675135   0.000000000 ) 

 **************************************************************************
     freq (    1) =       1.087541 [THz] =      36.276474 [cm-1]
     freq (    2) =       1.321442 [THz] =      44.078558 [cm-1]
     freq (    3) =       2.193028 [THz] =      73.151532 [cm-1]
     freq (    4) =       2.260158 [THz] =      75.390772 [cm-1]
     freq (    5) =       2.754708 [THz] =      91.887153 [cm-1]
     freq (    6) =       3.246631 [THz] =     108.295969 [cm-1]
 **************************************************************************

     Mode symmetry, C_2v (mm2)  point group:

     freq (  1 -  1) =         36.3  [cm-1]   --> B_1  D_3  S_3      
     freq (  2 -  2) =         44.1  [cm-1]   --> B_2  D_4  S_4      
     freq (  3 -  3) =         73.2  [cm-1]   --> B_1  D_3  S_3      
     freq (  4 -  4) =         75.4  [cm-1]   --> A_1  D_1  S_1      
     freq (  5 -  5) =         91.9  [cm-1]   --> A_1  D_1  S_1      
     freq (  6 -  6) =        108.3  [cm-1]   --> B_2  D_4  S_4      

     Calculation of q =    0.0000000   0.2886751   0.1533310
 
     Parallelization info
     --------------------
     sticks:   dense  smooth     PW     G-vecs:    dense   smooth      PW
     Min         144      72     23                 6470     2287     423
     Max         145      73     24                 6477     2311     428
     Sum        1159     583    187                51805    18365    3405
 


     bravais-lattice index     =            4
     lattice parameter (alat)  =       7.2400  a.u.
     unit-cell volume          =     535.8663 (a.u.)^3
     number of atoms/cell      =            2
     number of atomic types    =            1
     number of electrons       =        18.00
     number of Kohn-Sham states=           13
     kinetic-energy cutoff     =      40.0000  Ry
     charge density cutoff     =     320.0000  Ry
     Exchange-correlation      = SLA  PW   PBE  PBE ( 1  4  3  4 0 0)

     celldm(1)=   7.240000  celldm(2)=   0.000000  celldm(3)=   1.630460
     celldm(4)=   0.000000  celldm(5)=   0.000000  celldm(6)=   0.000000

     crystal axes: (cart. coord. in units of alat)
               a(1) = (   1.000000   0.000000   0.000000 )  
               a(2) = (  -0.500000   0.866025   0.000000 )  
               a(3) = (   0.000000   0.000000   1.630460 )  

     reciprocal axes: (cart. coord. in units 2 pi/alat)
               b(1) = (  1.000000  0.577350  0.000000 )  
               b(2) = (  0.000000  1.154701  0.000000 )  
               b(3) = (  0.000000  0.000000  0.613324 )  


     PseudoPot. # 1 for Na read from file:
     ./Na_pbe_v1.uspp.F.UPF
     MD5 check sum: 76a99c7e9422403d3e93cbc85ab7bccb
     Pseudo is Ultrasoft, Zval =  9.0
     Generated by new atomic code, or converted to UPF format
     Using radial grid of  819 points,  5 beta functions with: 
                l(1) =   0
                l(2) =   0
                l(3) =   1
                l(4) =   1
                l(5) =   2
     Q(r) pseudized with  8 coefficients,  rinner =    1.250   1.250   1.250
                                                       1.250   1.250

     atomic species   valence    mass     pseudopotential
        Na             9.00    22.99000     Na( 1.00)

     24 Sym. Ops., with inversion, found



   Cartesian axes

     site n.     atom                  positions (alat units)
         1           Na  tau(   1) = (   0.0000000   0.0000000   0.0000000  )
         2           Na  tau(   2) = (   0.4999999   0.2886751   0.8152300  )

     number of k points=  7200  Marzari-Vanderbilt smearing, width (Ry)=  0.0200

     Number of k-points >= 100: set verbosity='high' to print them.

     Dense  grid:    51805 G-vectors     FFT dimensions: (  45,  45,  72)

     Smooth grid:    18365 G-vectors     FFT dimensions: (  30,  30,  48)

     Largest allocated arrays     est. size (Mb)     dimensions
        Kohn-Sham Wavefunctions         0.06 Mb     (     300,   13)
        NL pseudopotentials             0.12 Mb     (     300,   26)
        Each V/rho on FFT grid          0.28 Mb     (   18225)
        Each G-vector array             0.05 Mb     (    6477)
        G-vector shells                 0.02 Mb     (    2056)
     Largest temporary arrays     est. size (Mb)     dimensions
        Auxiliary wavefunctions         0.24 Mb     (     300,   52)
        Each subspace H/S matrix        0.01 Mb     (      26,   26)
        Each <psi_i|beta_j> matrix      0.01 Mb     (      26,   13)

     The potential is recalculated from file :
     ./na_hcp_7.24/_ph0/na_hcp_7.24.save/charge-density.dat

     Starting wfc are   10 atomic +    3 random wfc

     Band Structure Calculation
     Davidson diagonalization with overlap

     ethr =  5.56E-11,  avg # of iterations = 23.4

     total cpu time spent up to now is       51.1 secs

     End of band structure calculation

     Number of k-points >= 100: set verbosity='high' to print the bands.

     the Fermi energy is     1.3290 ev

     Writing output data file na_hcp_7.24.save

                                                                                

     bravais-lattice index     =            4
     lattice parameter (alat)  =       7.2400  a.u.
     unit-cell volume          =     535.8663 (a.u.)^3
     number of atoms/cell      =            2
     number of atomic types    =            1
     kinetic-energy cut-off    =      40.0000  Ry
     charge density cut-off    =     320.0000  Ry
     convergence threshold     =      1.0E-15
     beta                      =       0.7000
     number of iterations used =            4
     Exchange-correlation      = SLA  PW   PBE  PBE ( 1  4  3  4 0 0)


     celldm(1)=    7.24000  celldm(2)=    0.00000  celldm(3)=    1.63046
     celldm(4)=    0.00000  celldm(5)=    0.00000  celldm(6)=    0.00000

     crystal axes: (cart. coord. in units of alat)
               a(1) = (  1.0000  0.0000  0.0000 )  
               a(2) = ( -0.5000  0.8660  0.0000 )  
               a(3) = (  0.0000  0.0000  1.6305 )  

     reciprocal axes: (cart. coord. in units 2 pi/alat)
               b(1) = (  1.0000  0.5774  0.0000 )  
               b(2) = (  0.0000  1.1547  0.0000 )  
               b(3) = (  0.0000  0.0000  0.6133 )  


     Atoms inside the unit cell: 

     Cartesian axes

     site n.  atom      mass           positions (alat units)
        1     Na  22.9900   tau(    1) = (    0.00000    0.00000    0.00000  )
        2     Na  22.9900   tau(    2) = (    0.50000    0.28868    0.81523  )

     Computing dynamical matrix for 
                    q = (   0.0000000   0.2886751   0.1533310 )
 
      2 Sym.Ops. (no q -> -q+G )


     G cutoff =  424.8811  (   6477 G-vectors)     FFT grid: ( 45, 45, 72)
     G cutoff =  212.4405  (   2311 G-vectors)  smooth grid: ( 30, 30, 48)

     number of k points=  7200  Marzari-Vanderbilt smearing, width (Ry)=  0.0200

     PseudoPot. # 1 for Na read from file:
     ./Na_pbe_v1.uspp.F.UPF
     MD5 check sum: 76a99c7e9422403d3e93cbc85ab7bccb
     Pseudo is Ultrasoft, Zval =  9.0
     Generated by new atomic code, or converted to UPF format
     Using radial grid of  819 points,  5 beta functions with: 
                l(1) =   0
                l(2) =   0
                l(3) =   1
                l(4) =   1
                l(5) =   2
     Q(r) pseudized with  8 coefficients,  rinner =    1.250   1.250   1.250
                                                       1.250   1.250

     Mode symmetry, C_s (m)     point group:


     Atomic displacements:
     There are   6 irreducible representations

     Representation     1      1 modes -A'  To be done

     Representation     2      1 modes -A'  To be done

     Representation     3      1 modes -A'  To be done

     Representation     4      1 modes -A'  To be done

     Representation     5      1 modes -A''  To be done

     Representation     6      1 modes -A''  To be done



     Alpha used in Ewald sum =   2.8000
     PHONON       : 10m39.76s CPU    11m43.26s WALL



     Representation #  1 mode #   1

     Self-consistent Calculation

      iter #   1 total cpu time :   707.1 secs   av.it.:   5.7
      thresh= 1.000E-02 alpha_mix =  0.700 |ddv_scf|^2 =  1.983E-04

      iter #   2 total cpu time :   719.0 secs   av.it.:   7.6
      thresh= 1.408E-03 alpha_mix =  0.700 |ddv_scf|^2 =  4.088E-03

      iter #   3 total cpu time :   727.6 secs   av.it.:   5.5
      thresh= 6.394E-03 alpha_mix =  0.700 |ddv_scf|^2 =  1.873E-06

      iter #   4 total cpu time :   738.1 secs   av.it.:   7.8
      thresh= 1.368E-04 alpha_mix =  0.700 |ddv_scf|^2 =  2.750E-07

      iter #   5 total cpu time :   768.0 secs   av.it.:   7.8
      thresh= 5.244E-05 alpha_mix =  0.700 |ddv_scf|^2 =  1.197E-09

      iter #   6 total cpu time :   781.7 secs   av.it.:   8.7
      thresh= 3.459E-06 alpha_mix =  0.700 |ddv_scf|^2 =  5.536E-11

      iter #   7 total cpu time :   807.7 secs   av.it.:   8.7
      thresh= 7.441E-07 alpha_mix =  0.700 |ddv_scf|^2 =  4.783E-12

      iter #   8 total cpu time :   842.0 secs   av.it.:   8.7
      thresh= 2.187E-07 alpha_mix =  0.700 |ddv_scf|^2 =  2.898E-11

      iter #   9 total cpu time :   853.9 secs   av.it.:   7.1
      thresh= 5.384E-07 alpha_mix =  0.700 |ddv_scf|^2 =  3.852E-13

      iter #  10 total cpu time :   880.0 secs   av.it.:   8.6
      thresh= 6.207E-08 alpha_mix =  0.700 |ddv_scf|^2 =  5.301E-14

      iter #  11 total cpu time :   913.6 secs   av.it.:   7.8
      thresh= 2.302E-08 alpha_mix =  0.700 |ddv_scf|^2 =  3.633E-14

      iter #  12 total cpu time :   948.4 secs   av.it.:   7.5
      thresh= 1.906E-08 alpha_mix =  0.700 |ddv_scf|^2 =  1.284E-14

      iter #  13 total cpu time :   966.1 secs   av.it.:   7.8
      thresh= 1.133E-08 alpha_mix =  0.700 |ddv_scf|^2 =  1.352E-16

     End of self-consistent calculation

     Convergence has been achieved 


     Representation #  2 mode #   2

     Self-consistent Calculation

      iter #   1 total cpu time :   985.9 secs   av.it.:   5.7
      thresh= 1.000E-02 alpha_mix =  0.700 |ddv_scf|^2 =  3.391E-05

      iter #   2 total cpu time :  1006.9 secs   av.it.:   8.1
      thresh= 5.823E-04 alpha_mix =  0.700 |ddv_scf|^2 =  4.269E-04

      iter #   3 total cpu time :  1021.1 secs   av.it.:   5.8
      thresh= 2.066E-03 alpha_mix =  0.700 |ddv_scf|^2 =  1.370E-05

      iter #   4 total cpu time :  1036.7 secs   av.it.:   7.2
      thresh= 3.701E-04 alpha_mix =  0.700 |ddv_scf|^2 =  6.813E-08

      iter #   5 total cpu time :  1049.5 secs   av.it.:   8.6
      thresh= 2.610E-05 alpha_mix =  0.700 |ddv_scf|^2 =  7.782E-10

      iter #   6 total cpu time :  1058.2 secs   av.it.:   8.9
      thresh= 2.790E-06 alpha_mix =  0.700 |ddv_scf|^2 =  6.274E-11

      iter #   7 total cpu time :  1071.9 secs   av.it.:   8.9
      thresh= 7.921E-07 alpha_mix =  0.700 |ddv_scf|^2 =  4.713E-11

      iter #   8 total cpu time :  1082.9 secs   av.it.:   7.7
      thresh= 6.865E-07 alpha_mix =  0.700 |ddv_scf|^2 =  1.379E-10

      iter #   9 total cpu time :  1091.9 secs   av.it.:   7.0
      thresh= 1.174E-06 alpha_mix =  0.700 |ddv_scf|^2 =  4.270E-12

      iter #  10 total cpu time :  1103.6 secs   av.it.:   7.6
      thresh= 2.066E-07 alpha_mix =  0.700 |ddv_scf|^2 =  2.712E-12

      iter #  11 total cpu time :  1114.0 secs   av.it.:   7.6
      thresh= 1.647E-07 alpha_mix =  0.700 |ddv_scf|^2 =  2.306E-14

      iter #  12 total cpu time :  1125.2 secs   av.it.:   7.9
      thresh= 1.519E-08 alpha_mix =  0.700 |ddv_scf|^2 =  3.043E-15

      iter #  13 total cpu time :  1158.4 secs   av.it.:   8.7
      thresh= 5.516E-09 alpha_mix =  0.700 |ddv_scf|^2 =  7.426E-17

     End of self-consistent calculation

     Convergence has been achieved 


     Representation #  3 mode #   3

     Self-consistent Calculation

      iter #   1 total cpu time :  1169.8 secs   av.it.:   5.8
      thresh= 1.000E-02 alpha_mix =  0.700 |ddv_scf|^2 =  2.271E-04

      iter #   2 total cpu time :  1182.0 secs   av.it.:   7.6
      thresh= 1.507E-03 alpha_mix =  0.700 |ddv_scf|^2 =  4.747E-03

      iter #   3 total cpu time :  1196.7 secs   av.it.:   5.4
      thresh= 6.890E-03 alpha_mix =  0.700 |ddv_scf|^2 =  6.004E-07

      iter #   4 total cpu time :  1233.0 secs   av.it.:   8.0
      thresh= 7.749E-05 alpha_mix =  0.700 |ddv_scf|^2 =  2.882E-07

      iter #   5 total cpu time :  1242.2 secs   av.it.:   7.7
      thresh= 5.368E-05 alpha_mix =  0.700 |ddv_scf|^2 =  1.485E-09

      iter #   6 total cpu time :  1269.2 secs   av.it.:   8.7
      thresh= 3.854E-06 alpha_mix =  0.700 |ddv_scf|^2 =  7.127E-11

      iter #   7 total cpu time :  1282.9 secs   av.it.:   8.6
      thresh= 8.442E-07 alpha_mix =  0.700 |ddv_scf|^2 =  2.772E-12

      iter #   8 total cpu time :  1298.9 secs   av.it.:   8.9
      thresh= 1.665E-07 alpha_mix =  0.700 |ddv_scf|^2 =  1.793E-11

      iter #   9 total cpu time :  1306.9 secs   av.it.:   7.0
      thresh= 4.234E-07 alpha_mix =  0.700 |ddv_scf|^2 =  1.131E-12

      iter #  10 total cpu time :  1333.2 secs   av.it.:   8.0
      thresh= 1.063E-07 alpha_mix =  0.700 |ddv_scf|^2 =  5.198E-13

      iter #  11 total cpu time :  1341.7 secs   av.it.:   7.2
      thresh= 7.209E-08 alpha_mix =  0.700 |ddv_scf|^2 =  1.714E-14

      iter #  12 total cpu time :  1352.7 secs   av.it.:   8.1
      thresh= 1.309E-08 alpha_mix =  0.700 |ddv_scf|^2 =  1.803E-15

      iter #  13 total cpu time :  1362.1 secs   av.it.:   8.1
      thresh= 4.246E-09 alpha_mix =  0.700 |ddv_scf|^2 =  1.794E-16

     End of self-consistent calculation

     Convergence has been achieved 


     Representation #  4 mode #   4

     Self-consistent Calculation

      iter #   1 total cpu time :  1373.7 secs   av.it.:   5.6
      thresh= 1.000E-02 alpha_mix =  0.700 |ddv_scf|^2 =  6.271E-05

      iter #   2 total cpu time :  1383.8 secs   av.it.:   7.8
      thresh= 7.919E-04 alpha_mix =  0.700 |ddv_scf|^2 =  1.085E-03

      iter #   3 total cpu time :  1393.4 secs   av.it.:   5.7
      thresh= 3.293E-03 alpha_mix =  0.700 |ddv_scf|^2 =  6.830E-06

      iter #   4 total cpu time :  1413.8 secs   av.it.:   7.5
      thresh= 2.614E-04 alpha_mix =  0.700 |ddv_scf|^2 =  1.068E-07

      iter #   5 total cpu time :  1437.3 secs   av.it.:   8.2
      thresh= 3.269E-05 alpha_mix =  0.700 |ddv_scf|^2 =  8.753E-10

      iter #   6 total cpu time :  1447.4 secs   av.it.:   8.9
      thresh= 2.959E-06 alpha_mix =  0.700 |ddv_scf|^2 =  7.398E-11

      iter #   7 total cpu time :  1466.8 secs   av.it.:   8.7
      thresh= 8.601E-07 alpha_mix =  0.700 |ddv_scf|^2 =  2.498E-11

      iter #   8 total cpu time :  1481.1 secs   av.it.:   8.1
      thresh= 4.998E-07 alpha_mix =  0.700 |ddv_scf|^2 =  2.197E-10

      iter #   9 total cpu time :  1495.6 secs   av.it.:   6.6
      thresh= 1.482E-06 alpha_mix =  0.700 |ddv_scf|^2 =  3.134E-12

      iter #  10 total cpu time :  1527.4 secs   av.it.:   7.7
      thresh= 1.770E-07 alpha_mix =  0.700 |ddv_scf|^2 =  2.949E-12

      iter #  11 total cpu time :  1544.4 secs   av.it.:   7.6
      thresh= 1.717E-07 alpha_mix =  0.700 |ddv_scf|^2 =  1.107E-14

      iter #  12 total cpu time :  1565.6 secs   av.it.:   8.5
      thresh= 1.052E-08 alpha_mix =  0.700 |ddv_scf|^2 =  3.274E-15

      iter #  13 total cpu time :  1584.4 secs   av.it.:   8.5
      thresh= 5.722E-09 alpha_mix =  0.700 |ddv_scf|^2 =  8.680E-17

     End of self-consistent calculation

     Convergence has been achieved 


     Representation #  5 mode #   5

     Self-consistent Calculation

      iter #   1 total cpu time :  1600.6 secs   av.it.:   5.3
      thresh= 1.000E-02 alpha_mix =  0.700 |ddv_scf|^2 =  2.972E-06

      iter #   2 total cpu time :  1632.3 secs   av.it.:   8.4
      thresh= 1.724E-04 alpha_mix =  0.700 |ddv_scf|^2 =  4.767E-08

      iter #   3 total cpu time :  1650.6 secs   av.it.:   8.7
      thresh= 2.183E-05 alpha_mix =  0.700 |ddv_scf|^2 =  2.306E-09

      iter #   4 total cpu time :  1670.4 secs   av.it.:   8.2
      thresh= 4.802E-06 alpha_mix =  0.700 |ddv_scf|^2 =  1.072E-11

      iter #   5 total cpu time :  1688.3 secs   av.it.:   8.4
      thresh= 3.273E-07 alpha_mix =  0.700 |ddv_scf|^2 =  7.576E-14

      iter #   6 total cpu time :  1706.9 secs   av.it.:   8.6
      thresh= 2.752E-08 alpha_mix =  0.700 |ddv_scf|^2 =  3.565E-16

     End of self-consistent calculation

     Convergence has been achieved 


     Representation #  6 mode #   6

     Self-consistent Calculation

      iter #   1 total cpu time :  1726.8 secs   av.it.:   5.3
      thresh= 1.000E-02 alpha_mix =  0.700 |ddv_scf|^2 =  2.972E-06

      iter #   2 total cpu time :  1745.6 secs   av.it.:   8.4
      thresh= 1.724E-04 alpha_mix =  0.700 |ddv_scf|^2 =  4.767E-08

      iter #   3 total cpu time :  1764.5 secs   av.it.:   8.7
      thresh= 2.183E-05 alpha_mix =  0.700 |ddv_scf|^2 =  2.306E-09

      iter #   4 total cpu time :  1784.9 secs   av.it.:   8.2
      thresh= 4.802E-06 alpha_mix =  0.700 |ddv_scf|^2 =  1.072E-11

      iter #   5 total cpu time :  1802.9 secs   av.it.:   8.4
      thresh= 3.273E-07 alpha_mix =  0.700 |ddv_scf|^2 =  7.576E-14

      iter #   6 total cpu time :  1819.5 secs   av.it.:   8.6
      thresh= 2.752E-08 alpha_mix =  0.700 |ddv_scf|^2 =  3.565E-16

     End of self-consistent calculation

     Convergence has been achieved 
 
     Number of q in the star =   12
     List of q in the star:
          1   0.000000000   0.288675135   0.153330962
          2   0.000000000   0.288675135  -0.153330962
          3  -0.250000000   0.144337567   0.153330962
          4   0.250000000  -0.144337567   0.153330962
          5  -0.250000000  -0.144337567   0.153330962
          6   0.250000000   0.144337567   0.153330962
          7   0.000000000  -0.288675135   0.153330962
          8   0.000000000  -0.288675135  -0.153330962
          9   0.250000000   0.144337567  -0.153330962
         10   0.250000000  -0.144337567  -0.153330962
         11  -0.250000000  -0.144337567  -0.153330962
         12  -0.250000000   0.144337567  -0.153330962

     Diagonalizing the dynamical matrix

     q = (    0.000000000   0.288675135   0.153330962 ) 

 **************************************************************************
     freq (    1) =       1.305214 [THz] =      43.537248 [cm-1]
     freq (    2) =       1.505369 [THz] =      50.213691 [cm-1]
     freq (    3) =       2.079587 [THz] =      69.367569 [cm-1]
     freq (    4) =       2.460692 [THz] =      82.079851 [cm-1]
     freq (    5) =       2.600482 [THz] =      86.742751 [cm-1]
     freq (    6) =       3.182054 [THz] =     106.141913 [cm-1]
 **************************************************************************

     Mode symmetry, C_s (m)     point group:

     freq (  1 -  1) =         43.5  [cm-1]   --> A''                
     freq (  2 -  2) =         50.2  [cm-1]   --> A'                 
     freq (  3 -  3) =         69.4  [cm-1]   --> A''                
     freq (  4 -  4) =         82.1  [cm-1]   --> A'                 
     freq (  5 -  5) =         86.7  [cm-1]   --> A'                 
     freq (  6 -  6) =        106.1  [cm-1]   --> A'                 

     Calculation of q =    0.0000000   0.2886751  -0.3066619
 
     Parallelization info
     --------------------
     sticks:   dense  smooth     PW     G-vecs:    dense   smooth      PW
     Min         144      72     23                 6470     2283     417
     Max         145      73     24                 6477     2310     422
     Sum        1159     583    187                51805    18365    3357
 


     bravais-lattice index     =            4
     lattice parameter (alat)  =       7.2400  a.u.
     unit-cell volume          =     535.8663 (a.u.)^3
     number of atoms/cell      =            2
     number of atomic types    =            1
     number of electrons       =        18.00
     number of Kohn-Sham states=           13
     kinetic-energy cutoff     =      40.0000  Ry
     charge density cutoff     =     320.0000  Ry
     Exchange-correlation      = SLA  PW   PBE  PBE ( 1  4  3  4 0 0)

     celldm(1)=   7.240000  celldm(2)=   0.000000  celldm(3)=   1.630460
     celldm(4)=   0.000000  celldm(5)=   0.000000  celldm(6)=   0.000000

     crystal axes: (cart. coord. in units of alat)
               a(1) = (   1.000000   0.000000   0.000000 )  
               a(2) = (  -0.500000   0.866025   0.000000 )  
               a(3) = (   0.000000   0.000000   1.630460 )  

     reciprocal axes: (cart. coord. in units 2 pi/alat)
               b(1) = (  1.000000  0.577350  0.000000 )  
               b(2) = (  0.000000  1.154701  0.000000 )  
               b(3) = (  0.000000  0.000000  0.613324 )  


     PseudoPot. # 1 for Na read from file:
     ./Na_pbe_v1.uspp.F.UPF
     MD5 check sum: 76a99c7e9422403d3e93cbc85ab7bccb
     Pseudo is Ultrasoft, Zval =  9.0
     Generated by new atomic code, or converted to UPF format
     Using radial grid of  819 points,  5 beta functions with: 
                l(1) =   0
                l(2) =   0
                l(3) =   1
                l(4) =   1
                l(5) =   2
     Q(r) pseudized with  8 coefficients,  rinner =    1.250   1.250   1.250
                                                       1.250   1.250

     atomic species   valence    mass     pseudopotential
        Na             9.00    22.99000     Na( 1.00)

     24 Sym. Ops., with inversion, found



   Cartesian axes

     site n.     atom                  positions (alat units)
         1           Na  tau(   1) = (   0.0000000   0.0000000   0.0000000  )
         2           Na  tau(   2) = (   0.4999999   0.2886751   0.8152300  )

     number of k points=  3600  Marzari-Vanderbilt smearing, width (Ry)=  0.0200

     Number of k-points >= 100: set verbosity='high' to print them.

     Dense  grid:    51805 G-vectors     FFT dimensions: (  45,  45,  72)

     Smooth grid:    18365 G-vectors     FFT dimensions: (  30,  30,  48)

     Largest allocated arrays     est. size (Mb)     dimensions
        Kohn-Sham Wavefunctions         0.06 Mb     (     297,   13)
        NL pseudopotentials             0.12 Mb     (     297,   26)
        Each V/rho on FFT grid          0.28 Mb     (   18225)
        Each G-vector array             0.05 Mb     (    6477)
        G-vector shells                 0.01 Mb     (    1966)
     Largest temporary arrays     est. size (Mb)     dimensions
        Auxiliary wavefunctions         0.24 Mb     (     297,   52)
        Each subspace H/S matrix        0.01 Mb     (      26,   26)
        Each <psi_i|beta_j> matrix      0.01 Mb     (      26,   13)

     The potential is recalculated from file :
     ./na_hcp_7.24/_ph0/na_hcp_7.24.save/charge-density.dat

     Starting wfc are   10 atomic +    3 random wfc

     Band Structure Calculation
     Davidson diagonalization with overlap

     ethr =  5.56E-11,  avg # of iterations = 23.4

     total cpu time spent up to now is       72.8 secs

     End of band structure calculation

     Number of k-points >= 100: set verbosity='high' to print the bands.

     the Fermi energy is     1.3290 ev

     Writing output data file na_hcp_7.24.save

                                                                                

     bravais-lattice index     =            4
     lattice parameter (alat)  =       7.2400  a.u.
     unit-cell volume          =     535.8663 (a.u.)^3
     number of atoms/cell      =            2
     number of atomic types    =            1
     kinetic-energy cut-off    =      40.0000  Ry
     charge density cut-off    =     320.0000  Ry
     convergence threshold     =      1.0E-15
     beta                      =       0.7000
     number of iterations used =            4
     Exchange-correlation      = SLA  PW   PBE  PBE ( 1  4  3  4 0 0)


     celldm(1)=    7.24000  celldm(2)=    0.00000  celldm(3)=    1.63046
     celldm(4)=    0.00000  celldm(5)=    0.00000  celldm(6)=    0.00000

     crystal axes: (cart. coord. in units of alat)
               a(1) = (  1.0000  0.0000  0.0000 )  
               a(2) = ( -0.5000  0.8660  0.0000 )  
               a(3) = (  0.0000  0.0000  1.6305 )  

     reciprocal axes: (cart. coord. in units 2 pi/alat)
               b(1) = (  1.0000  0.5774  0.0000 )  
               b(2) = (  0.0000  1.1547  0.0000 )  
               b(3) = (  0.0000  0.0000  0.6133 )  


     Atoms inside the unit cell: 

     Cartesian axes

     site n.  atom      mass           positions (alat units)
        1     Na  22.9900   tau(    1) = (    0.00000    0.00000    0.00000  )
        2     Na  22.9900   tau(    2) = (    0.50000    0.28868    0.81523  )

     Computing dynamical matrix for 
                    q = (   0.0000000   0.2886751  -0.3066619 )
 
      4 Sym.Ops. (no q -> -q+G )


     G cutoff =  424.8811  (   6477 G-vectors)     FFT grid: ( 45, 45, 72)
     G cutoff =  212.4405  (   2301 G-vectors)  smooth grid: ( 30, 30, 48)

     number of k points=  3600  Marzari-Vanderbilt smearing, width (Ry)=  0.0200

     PseudoPot. # 1 for Na read from file:
     ./Na_pbe_v1.uspp.F.UPF
     MD5 check sum: 76a99c7e9422403d3e93cbc85ab7bccb
     Pseudo is Ultrasoft, Zval =  9.0
     Generated by new atomic code, or converted to UPF format
     Using radial grid of  819 points,  5 beta functions with: 
                l(1) =   0
                l(2) =   0
                l(3) =   1
                l(4) =   1
                l(5) =   2
     Q(r) pseudized with  8 coefficients,  rinner =    1.250   1.250   1.250
                                                       1.250   1.250

     Mode symmetry, C_2v (mm2)  point group:


     Atomic displacements:
     There are   6 irreducible representations

     Representation     1      1 modes -A_1  D_1  S_1  To be done

     Representation     2      1 modes -A_1  D_1  S_1  To be done

     Representation     3      1 modes -A_2  D_2  S_2  To be done

     Representation     4      1 modes -B_1  D_3  S_3  To be done

     Representation     5      1 modes -B_2  D_4  S_4  To be done

     Representation     6      1 modes -B_2  D_4  S_4  To be done



     Alpha used in Ewald sum =   2.8000
     PHONON       : 28m 1.81s CPU    30m38.70s WALL



     Representation #  1 mode #   1

     Self-consistent Calculation

      iter #   1 total cpu time :  1840.9 secs   av.it.:   5.6
      thresh= 1.000E-02 alpha_mix =  0.700 |ddv_scf|^2 =  5.419E-05

      iter #   2 total cpu time :  1848.8 secs   av.it.:   7.9
      thresh= 7.361E-04 alpha_mix =  0.700 |ddv_scf|^2 =  3.095E-04

      iter #   3 total cpu time :  1855.7 secs   av.it.:   6.6
      thresh= 1.759E-03 alpha_mix =  0.700 |ddv_scf|^2 =  3.653E-08

      iter #   4 total cpu time :  1863.2 secs   av.it.:   8.9
      thresh= 1.911E-05 alpha_mix =  0.700 |ddv_scf|^2 =  1.931E-09

      iter #   5 total cpu time :  1871.1 secs   av.it.:   8.9
      thresh= 4.395E-06 alpha_mix =  0.700 |ddv_scf|^2 =  6.797E-11

      iter #   6 total cpu time :  1876.3 secs   av.it.:   9.1
      thresh= 8.244E-07 alpha_mix =  0.700 |ddv_scf|^2 =  3.646E-12

      iter #   7 total cpu time :  1883.2 secs   av.it.:   8.8
      thresh= 1.909E-07 alpha_mix =  0.700 |ddv_scf|^2 =  3.103E-12

      iter #   8 total cpu time :  1890.8 secs   av.it.:   7.7
      thresh= 1.762E-07 alpha_mix =  0.700 |ddv_scf|^2 =  2.078E-12

      iter #   9 total cpu time :  1899.1 secs   av.it.:   7.6
      thresh= 1.442E-07 alpha_mix =  0.700 |ddv_scf|^2 =  6.833E-13

      iter #  10 total cpu time :  1904.8 secs   av.it.:   7.4
      thresh= 8.266E-08 alpha_mix =  0.700 |ddv_scf|^2 =  4.643E-16

     End of self-consistent calculation

     Convergence has been achieved 


     Representation #  2 mode #   2

     Self-consistent Calculation

      iter #   1 total cpu time :  1908.3 secs   av.it.:   5.7
      thresh= 1.000E-02 alpha_mix =  0.700 |ddv_scf|^2 =  6.077E-05

      iter #   2 total cpu time :  1915.7 secs   av.it.:   7.9
      thresh= 7.795E-04 alpha_mix =  0.700 |ddv_scf|^2 =  3.513E-04

      iter #   3 total cpu time :  1919.8 secs   av.it.:   6.6
      thresh= 1.874E-03 alpha_mix =  0.700 |ddv_scf|^2 =  4.696E-08

      iter #   4 total cpu time :  1926.3 secs   av.it.:   8.8
      thresh= 2.167E-05 alpha_mix =  0.700 |ddv_scf|^2 =  1.795E-09

      iter #   5 total cpu time :  1932.5 secs   av.it.:   8.9
      thresh= 4.236E-06 alpha_mix =  0.700 |ddv_scf|^2 =  8.642E-11

      iter #   6 total cpu time :  1940.3 secs   av.it.:   9.2
      thresh= 9.296E-07 alpha_mix =  0.700 |ddv_scf|^2 =  3.651E-12

      iter #   7 total cpu time :  1945.2 secs   av.it.:   8.8
      thresh= 1.911E-07 alpha_mix =  0.700 |ddv_scf|^2 =  3.287E-12

      iter #   8 total cpu time :  1952.7 secs   av.it.:   7.7
      thresh= 1.813E-07 alpha_mix =  0.700 |ddv_scf|^2 =  1.241E-12

      iter #   9 total cpu time :  1957.2 secs   av.it.:   7.6
      thresh= 1.114E-07 alpha_mix =  0.700 |ddv_scf|^2 =  4.146E-13

      iter #  10 total cpu time :  1965.5 secs   av.it.:   7.5
      thresh= 6.439E-08 alpha_mix =  0.700 |ddv_scf|^2 =  8.156E-16

     End of self-consistent calculation

     Convergence has been achieved 


     Representation #  3 mode #   3

     Self-consistent Calculation

      iter #   1 total cpu time :  1970.8 secs   av.it.:   5.3
      thresh= 1.000E-02 alpha_mix =  0.700 |ddv_scf|^2 =  2.967E-06

      iter #   2 total cpu time :  1975.9 secs   av.it.:   8.4
      thresh= 1.722E-04 alpha_mix =  0.700 |ddv_scf|^2 =  4.742E-08

[...]
      iter #   4 total cpu time :  4151.8 secs   av.it.:   8.5
      thresh= 1.176E-05 alpha_mix =  0.700 |ddv_scf|^2 =  1.134E-09

      iter #   5 total cpu time :  4160.3 secs   av.it.:   8.6
      thresh= 3.367E-06 alpha_mix =  0.700 |ddv_scf|^2 =  1.429E-11

      iter #   6 total cpu time :  4173.0 secs   av.it.:   8.6
      thresh= 3.781E-07 alpha_mix =  0.700 |ddv_scf|^2 =  8.209E-13

      iter #   7 total cpu time :  4181.1 secs   av.it.:   8.8
      thresh= 9.061E-08 alpha_mix =  0.700 |ddv_scf|^2 =  1.869E-14

      iter #   8 total cpu time :  4191.6 secs   av.it.:   8.9
      thresh= 1.367E-08 alpha_mix =  0.700 |ddv_scf|^2 =  4.183E-16

     End of self-consistent calculation

     Convergence has been achieved 
 
     Number of q in the star =   12
     List of q in the star:
          1   0.250000000   0.433012702   0.153330962
          2   0.250000000   0.433012702  -0.153330962
          3  -0.250000000   0.433012702   0.153330962
          4   0.250000000  -0.433012702  -0.153330962
          5  -0.250000000   0.433012702  -0.153330962
          6  -0.250000000  -0.433012702  -0.153330962
          7   0.500000000   0.000000000   0.153330962
          8   0.250000000  -0.433012702   0.153330962
          9  -0.500000000   0.000000000   0.153330962
         10  -0.250000000  -0.433012702   0.153330962
         11  -0.500000000   0.000000000  -0.153330962
         12   0.500000000   0.000000000  -0.153330962

     Diagonalizing the dynamical matrix

     q = (    0.250000000   0.433012702   0.153330962 ) 

 **************************************************************************
     freq (    1) =       1.808110 [THz] =      60.312063 [cm-1]
     freq (    2) =       2.206159 [THz] =      73.589558 [cm-1]
     freq (    3) =       2.718626 [THz] =      90.683616 [cm-1]
     freq (    4) =       2.731667 [THz] =      91.118604 [cm-1]
     freq (    5) =       3.155747 [THz] =     105.264387 [cm-1]
     freq (    6) =       3.299486 [THz] =     110.058998 [cm-1]
 **************************************************************************

     Mode symmetry, C_s (m)     point group:

     freq (  1 -  1) =         60.3  [cm-1]   --> A'                 
     freq (  2 -  2) =         73.6  [cm-1]   --> A''                
     freq (  3 -  3) =         90.7  [cm-1]   --> A'                 
     freq (  4 -  4) =         91.1  [cm-1]   --> A''                
     freq (  5 -  5) =        105.3  [cm-1]   --> A'                 
     freq (  6 -  6) =        110.1  [cm-1]   --> A''                

     Calculation of q =    0.2500000   0.4330127  -0.3066619
 
     Parallelization info
     --------------------
     sticks:   dense  smooth     PW     G-vecs:    dense   smooth      PW
     Min         144      72     24                 6470     2287     454
     Max         145      73     25                 6477     2303     459
     Sum        1159     583    199                51805    18365    3657
 


     bravais-lattice index     =            4
     lattice parameter (alat)  =       7.2400  a.u.
     unit-cell volume          =     535.8663 (a.u.)^3
     number of atoms/cell      =            2
     number of atomic types    =            1
     number of electrons       =        18.00
     number of Kohn-Sham states=           13
     kinetic-energy cutoff     =      40.0000  Ry
     charge density cutoff     =     320.0000  Ry
     Exchange-correlation      = SLA  PW   PBE  PBE ( 1  4  3  4 0 0)

     celldm(1)=   7.240000  celldm(2)=   0.000000  celldm(3)=   1.630460
     celldm(4)=   0.000000  celldm(5)=   0.000000  celldm(6)=   0.000000

     crystal axes: (cart. coord. in units of alat)
               a(1) = (   1.000000   0.000000   0.000000 )  
               a(2) = (  -0.500000   0.866025   0.000000 )  
               a(3) = (   0.000000   0.000000   1.630460 )  

     reciprocal axes: (cart. coord. in units 2 pi/alat)
               b(1) = (  1.000000  0.577350  0.000000 )  
               b(2) = (  0.000000  1.154701  0.000000 )  
               b(3) = (  0.000000  0.000000  0.613324 )  


     PseudoPot. # 1 for Na read from file:
     ./Na_pbe_v1.uspp.F.UPF
     MD5 check sum: 76a99c7e9422403d3e93cbc85ab7bccb
     Pseudo is Ultrasoft, Zval =  9.0
     Generated by new atomic code, or converted to UPF format
     Using radial grid of  819 points,  5 beta functions with: 
                l(1) =   0
                l(2) =   0
                l(3) =   1
                l(4) =   1
                l(5) =   2
     Q(r) pseudized with  8 coefficients,  rinner =    1.250   1.250   1.250
                                                       1.250   1.250

     atomic species   valence    mass     pseudopotential
        Na             9.00    22.99000     Na( 1.00)

     24 Sym. Ops., with inversion, found



   Cartesian axes

     site n.     atom                  positions (alat units)
         1           Na  tau(   1) = (   0.0000000   0.0000000   0.0000000  )
         2           Na  tau(   2) = (   0.4999999   0.2886751   0.8152300  )

     number of k points=  3600  Marzari-Vanderbilt smearing, width (Ry)=  0.0200

     Number of k-points >= 100: set verbosity='high' to print them.

     Dense  grid:    51805 G-vectors     FFT dimensions: (  45,  45,  72)

     Smooth grid:    18365 G-vectors     FFT dimensions: (  30,  30,  48)

     Largest allocated arrays     est. size (Mb)     dimensions
        Kohn-Sham Wavefunctions         0.06 Mb     (     307,   13)
        NL pseudopotentials             0.12 Mb     (     307,   26)
        Each V/rho on FFT grid          0.28 Mb     (   18225)
        Each G-vector array             0.05 Mb     (    6477)
        G-vector shells                 0.02 Mb     (    1998)
     Largest temporary arrays     est. size (Mb)     dimensions
        Auxiliary wavefunctions         0.24 Mb     (     307,   52)
        Each subspace H/S matrix        0.01 Mb     (      26,   26)
        Each <psi_i|beta_j> matrix      0.01 Mb     (      26,   13)

     The potential is recalculated from file :
     ./na_hcp_7.24/_ph0/na_hcp_7.24.save/charge-density.dat

     Starting wfc are   10 atomic +    3 random wfc

     Band Structure Calculation
     Davidson diagonalization with overlap

     ethr =  5.56E-11,  avg # of iterations = 23.2

     total cpu time spent up to now is      182.8 secs

     End of band structure calculation

     Number of k-points >= 100: set verbosity='high' to print the bands.

     the Fermi energy is     1.3290 ev

     Writing output data file na_hcp_7.24.save

                                                                                

     bravais-lattice index     =            4
     lattice parameter (alat)  =       7.2400  a.u.
     unit-cell volume          =     535.8663 (a.u.)^3
     number of atoms/cell      =            2
     number of atomic types    =            1
     kinetic-energy cut-off    =      40.0000  Ry
     charge density cut-off    =     320.0000  Ry
     convergence threshold     =      1.0E-15
     beta                      =       0.7000
     number of iterations used =            4
     Exchange-correlation      = SLA  PW   PBE  PBE ( 1  4  3  4 0 0)


     celldm(1)=    7.24000  celldm(2)=    0.00000  celldm(3)=    1.63046
     celldm(4)=    0.00000  celldm(5)=    0.00000  celldm(6)=    0.00000

     crystal axes: (cart. coord. in units of alat)
               a(1) = (  1.0000  0.0000  0.0000 )  
               a(2) = ( -0.5000  0.8660  0.0000 )  
               a(3) = (  0.0000  0.0000  1.6305 )  

     reciprocal axes: (cart. coord. in units 2 pi/alat)
               b(1) = (  1.0000  0.5774  0.0000 )  
               b(2) = (  0.0000  1.1547  0.0000 )  
               b(3) = (  0.0000  0.0000  0.6133 )  


     Atoms inside the unit cell: 

     Cartesian axes

     site n.  atom      mass           positions (alat units)
        1     Na  22.9900   tau(    1) = (    0.00000    0.00000    0.00000  )
        2     Na  22.9900   tau(    2) = (    0.50000    0.28868    0.81523  )

     Computing dynamical matrix for 
                    q = (   0.2500000   0.4330127  -0.3066619 )
 
      4 Sym.Ops. (no q -> -q+G )


     G cutoff =  424.8811  (   6477 G-vectors)     FFT grid: ( 45, 45, 72)
     G cutoff =  212.4405  (   2297 G-vectors)  smooth grid: ( 30, 30, 48)

     number of k points=  3600  Marzari-Vanderbilt smearing, width (Ry)=  0.0200

     PseudoPot. # 1 for Na read from file:
     ./Na_pbe_v1.uspp.F.UPF
     MD5 check sum: 76a99c7e9422403d3e93cbc85ab7bccb
     Pseudo is Ultrasoft, Zval =  9.0
     Generated by new atomic code, or converted to UPF format
     Using radial grid of  819 points,  5 beta functions with: 
                l(1) =   0
                l(2) =   0
                l(3) =   1
                l(4) =   1
                l(5) =   2
     Q(r) pseudized with  8 coefficients,  rinner =    1.250   1.250   1.250
                                                       1.250   1.250


     Atomic displacements:
     There are   3 irreducible representations

     Representation     1      2 modes -  To be done

     Representation     2      2 modes -  To be done

     Representation     3      2 modes -  To be done



     Alpha used in Ewald sum =   2.8000
     PHONON       :     1h 3m CPU        1h10m WALL



     Representation #  1 modes #   1  2

     Self-consistent Calculation

      iter #   1 total cpu time :  4223.8 secs   av.it.:   5.7
      thresh= 1.000E-02 alpha_mix =  0.700 |ddv_scf|^2 =  2.756E-06

      iter #   2 total cpu time :  4248.6 secs   av.it.:   9.0
      thresh= 1.660E-04 alpha_mix =  0.700 |ddv_scf|^2 =  1.591E-06

      iter #   3 total cpu time :  4262.9 secs   av.it.:   8.1
      thresh= 1.261E-04 alpha_mix =  0.700 |ddv_scf|^2 =  1.107E-08

      iter #   4 total cpu time :  4276.6 secs   av.it.:   9.3
      thresh= 1.052E-05 alpha_mix =  0.700 |ddv_scf|^2 =  2.926E-10

      iter #   5 total cpu time :  4286.8 secs   av.it.:   9.5
      thresh= 1.711E-06 alpha_mix =  0.700 |ddv_scf|^2 =  1.609E-11

      iter #   6 total cpu time :  4298.7 secs   av.it.:   9.7
      thresh= 4.012E-07 alpha_mix =  0.700 |ddv_scf|^2 =  1.070E-12

      iter #   7 total cpu time :  4309.8 secs   av.it.:   9.8
      thresh= 1.034E-07 alpha_mix =  0.700 |ddv_scf|^2 =  1.285E-14

      iter #   8 total cpu time :  4319.9 secs   av.it.:   9.6
      thresh= 1.134E-08 alpha_mix =  0.700 |ddv_scf|^2 =  3.193E-16

     End of self-consistent calculation

     Convergence has been achieved 


     Representation #  2 modes #   3  4

     Self-consistent Calculation

      iter #   1 total cpu time :  4333.9 secs   av.it.:   5.7
      thresh= 1.000E-02 alpha_mix =  0.700 |ddv_scf|^2 =  2.135E-06

      iter #   2 total cpu time :  4346.4 secs   av.it.:   9.0
      thresh= 1.461E-04 alpha_mix =  0.700 |ddv_scf|^2 =  1.102E-06

      iter #   3 total cpu time :  4356.4 secs   av.it.:   8.2
      thresh= 1.050E-04 alpha_mix =  0.700 |ddv_scf|^2 =  1.333E-08

      iter #   4 total cpu time :  4367.5 secs   av.it.:   9.2
      thresh= 1.155E-05 alpha_mix =  0.700 |ddv_scf|^2 =  2.791E-10

      iter #   5 total cpu time :  4380.3 secs   av.it.:   9.3
      thresh= 1.671E-06 alpha_mix =  0.700 |ddv_scf|^2 =  2.070E-11

      iter #   6 total cpu time :  4389.6 secs   av.it.:   9.5
      thresh= 4.549E-07 alpha_mix =  0.700 |ddv_scf|^2 =  7.450E-13

      iter #   7 total cpu time :  4401.9 secs   av.it.:  10.0
      thresh= 8.632E-08 alpha_mix =  0.700 |ddv_scf|^2 =  1.472E-14

      iter #   8 total cpu time :  4412.9 secs   av.it.:   9.8
      thresh= 1.213E-08 alpha_mix =  0.700 |ddv_scf|^2 =  8.716E-16

     End of self-consistent calculation

     Convergence has been achieved 


     Representation #  3 modes #   5  6

     Self-consistent Calculation

      iter #   1 total cpu time :  4452.7 secs   av.it.:   5.7
      thresh= 1.000E-02 alpha_mix =  0.700 |ddv_scf|^2 =  2.029E-06

      iter #   2 total cpu time :  4472.2 secs   av.it.:   9.0
      thresh= 1.425E-04 alpha_mix =  0.700 |ddv_scf|^2 =  8.329E-07

      iter #   3 total cpu time :  4498.0 secs   av.it.:   8.3
      thresh= 9.126E-05 alpha_mix =  0.700 |ddv_scf|^2 =  2.413E-08

      iter #   4 total cpu time :  4518.0 secs   av.it.:   8.9
      thresh= 1.553E-05 alpha_mix =  0.700 |ddv_scf|^2 =  3.868E-10

      iter #   5 total cpu time :  4535.8 secs   av.it.:   9.4
      thresh= 1.967E-06 alpha_mix =  0.700 |ddv_scf|^2 =  1.015E-11

      iter #   6 total cpu time :  4548.0 secs   av.it.:   9.7
      thresh= 3.186E-07 alpha_mix =  0.700 |ddv_scf|^2 =  7.681E-13

      iter #   7 total cpu time :  4560.2 secs   av.it.:  10.0
      thresh= 8.764E-08 alpha_mix =  0.700 |ddv_scf|^2 =  1.840E-14

      iter #   8 total cpu time :  4575.0 secs   av.it.:   9.9
      thresh= 1.356E-08 alpha_mix =  0.700 |ddv_scf|^2 =  2.140E-16

     End of self-consistent calculation

     Convergence has been achieved 
 
     Number of q in the star =    6
     List of q in the star:
          1   0.250000000   0.433012702  -0.306661924
          2  -0.250000000   0.433012702  -0.306661924
          3   0.250000000  -0.433012702   0.306661924
          4  -0.250000000  -0.433012702   0.306661924
          5   0.500000000   0.000000000  -0.306661924
          6  -0.500000000   0.000000000  -0.306661924

     Diagonalizing the dynamical matrix

     q = (    0.250000000   0.433012702  -0.306661924 ) 

 **************************************************************************
     freq (    1) =       1.904784 [THz] =      63.536744 [cm-1]
     freq (    2) =       1.904784 [THz] =      63.536744 [cm-1]
     freq (    3) =       2.757713 [THz] =      91.987403 [cm-1]
     freq (    4) =       2.757713 [THz] =      91.987403 [cm-1]
     freq (    5) =       3.347527 [THz] =     111.661482 [cm-1]
     freq (    6) =       3.347527 [THz] =     111.661482 [cm-1]
 **************************************************************************
 
     init_run     :      1.64s CPU      1.81s WALL (      11 calls)
     electrons    :    132.61s CPU    135.22s WALL (      11 calls)

     Called by init_run:
     wfcinit      :      0.00s CPU      0.11s WALL (      11 calls)
     potinit      :      0.27s CPU      0.32s WALL (      11 calls)

     Called by electrons:
     c_bands      :    132.56s CPU    135.17s WALL (      11 calls)
     v_of_rho     :      0.11s CPU      0.12s WALL (      12 calls)
     newd         :      0.14s CPU      0.15s WALL (      12 calls)

     Called by c_bands:
     init_us_2    :      3.53s CPU      3.65s WALL (   48220 calls)
     cegterg      :     76.17s CPU     77.48s WALL (    3113 calls)

     Called by sum_band:

     Called by *egterg:
     h_psi        :     43.81s CPU     44.75s WALL (   50214 calls)
     s_psi        :     47.84s CPU     49.63s WALL ( 1183149 calls)
     g_psi        :      0.41s CPU      0.49s WALL (   45489 calls)
     cdiaghg      :     21.55s CPU     21.98s WALL (   47101 calls)

     Called by h_psi:
     add_vuspsi   :     28.17s CPU     29.74s WALL (  595454 calls)

     General routines
     calbec       :     69.83s CPU     72.71s WALL ( 1261772 calls)
     fft          :      2.99s CPU      3.00s WALL (    8976 calls)
     ffts         :      1.31s CPU      1.37s WALL (    7229 calls)
     fftw         :   1623.70s CPU   1650.06s WALL ( 9240094 calls)
     interpolate  :      0.70s CPU      0.72s WALL (    1237 calls)
     davcio       :     10.16s CPU    324.77s WALL (  216212 calls)
 
     Parallel routines
     fft_scatter  :   1246.47s CPU   1258.05s WALL ( 9256299 calls)
 
     PHONON       :     1h 8m CPU        1h16m WALL

     INITIALIZATION: 
     phq_setup    :      0.38s CPU      0.60s WALL (      12 calls)
     phq_init     :     28.49s CPU     29.18s WALL (      12 calls)
 
     phq_init     :     28.49s CPU     29.18s WALL (      12 calls)
     init_vloc    :      0.14s CPU      0.14s WALL (      12 calls)
     init_us_1    :      0.44s CPU      0.45s WALL (      12 calls)
     newd         :      0.14s CPU      0.15s WALL (      12 calls)
     dvanqq       :      1.57s CPU      1.58s WALL (      12 calls)
     drho         :     23.67s CPU     24.02s WALL (      12 calls)
 
     DYNAMICAL MATRIX:
     dynmat0      :      2.18s CPU      2.39s WALL (      12 calls)
     phqscf       :   3943.53s CPU   4342.63s WALL (      12 calls)
     dynmatrix    :      3.84s CPU      4.01s WALL (      12 calls)
 
     phqscf       :   3943.53s CPU   4342.63s WALL (      12 calls)
     solve_linter :   3940.69s CPU   4337.77s WALL (      58 calls)
     drhodv       :      2.72s CPU      2.99s WALL (      58 calls)
 
     dynmat0      :      2.18s CPU      2.39s WALL (      12 calls)
     dynmat_us    :      2.12s CPU      2.15s WALL (      12 calls)
     d2ionq       :      0.04s CPU      0.03s WALL (      12 calls)
 
     dynmat_us    :      2.12s CPU      2.15s WALL (      12 calls)
     addusdynmat  :      0.00s CPU      0.00s WALL (      12 calls)
 
     phqscf       :   3943.53s CPU   4342.63s WALL (      12 calls)
     solve_linter :   3940.69s CPU   4337.77s WALL (      58 calls)
 
     solve_linter :   3940.69s CPU   4337.77s WALL (      58 calls)
     dvqpsi_us    :     12.72s CPU     13.46s WALL (    4932 calls)
     ortho        :     40.57s CPU     41.21s WALL (   42455 calls)
     cgsolve      :    690.33s CPU    714.79s WALL (   42455 calls)
     incdrhoscf   :   1149.28s CPU   1158.03s WALL (   42455 calls)
     addusddens   :      8.26s CPU      8.38s WALL (     534 calls)
     vpsifft      :     46.09s CPU     48.61s WALL (   37523 calls)
     dv_of_drho   :      3.92s CPU      3.93s WALL (     569 calls)
     mix_pot      :      2.42s CPU     14.03s WALL (     476 calls)
     ef_shift     :      0.02s CPU      1.15s WALL (      29 calls)
     localdos     :      0.30s CPU      0.31s WALL (       4 calls)
     psymdvscf    :     28.36s CPU     28.44s WALL (     476 calls)
     newdq        :      7.88s CPU      7.98s WALL (     476 calls)
     adddvscf     :      3.65s CPU      3.92s WALL (   37523 calls)
     drhodvus     :      0.04s CPU      0.07s WALL (      58 calls)
 
     dvqpsi_us    :     12.72s CPU     13.46s WALL (    4932 calls)
     dvqpsi_us_on :      3.83s CPU      3.88s WALL (    4932 calls)
 
     cgsolve      :    690.33s CPU    714.79s WALL (   42455 calls)
     ch_psi       :    664.62s CPU    688.29s WALL (  545240 calls)
 
     ch_psi       :    664.62s CPU    688.29s WALL (  545240 calls)
     h_psiq       :    572.12s CPU    594.25s WALL (  545240 calls)
     last         :     88.55s CPU     90.30s WALL (  545240 calls)
 
     h_psiq       :    572.12s CPU    594.25s WALL (  545240 calls)
     firstfft     :    269.94s CPU    279.14s WALL ( 3474900 calls)
     secondfft    :    197.02s CPU    204.93s WALL ( 3474900 calls)
     add_vuspsi   :     28.17s CPU     29.74s WALL (  595454 calls)
 
     incdrhoscf   :   1149.28s CPU   1158.03s WALL (   42455 calls)
     addusdbec    :      4.43s CPU      4.69s WALL (   47387 calls)
 
     drhodvus     :      0.04s CPU      0.07s WALL (      58 calls)
 
      General routines
     calbec       :     69.83s CPU     72.71s WALL ( 1261772 calls)
     fft          :      2.99s CPU      3.00s WALL (    8976 calls)
     ffts         :      1.31s CPU      1.37s WALL (    7229 calls)
     fftw         :   1623.70s CPU   1650.06s WALL ( 9240094 calls)
     davcio       :     10.16s CPU    324.77s WALL (  216212 calls)
     write_rec    :      0.88s CPU     31.40s WALL (     534 calls)
 
 
     PHONON       :     1h 8m CPU        1h16m WALL

 
   This run was terminated on:  17:25: 0  29Mar2018            

=------------------------------------------------------------------------------=
   JOB DONE.
=------------------------------------------------------------------------------=
Application 30388275 resources: utime ~819826s, stime ~8611s, Rss ~52320, inblocks ~4255127048, outblocks ~1459755926
