
     Program PWSCF v.5.4.0 starts on 26Mar2018 at 12: 7: 7 

     This program is part of the open-source Quantum ESPRESSO suite
     for quantum simulation of materials; please cite
         "P. Giannozzi et al., J. Phys.:Condens. Matter 21 395502 (2009);
          URL http://www.quantum-espresso.org", 
     in publications or presentations arising from this work. More details at
     http://www.quantum-espresso.org/quote

     Parallel version (MPI & OpenMP), running on      24 processor cores
     Number of MPI processes:                24
     Threads/MPI process:                     1
     R & G space division:  proc/nbgrp/npool/nimage =      24
     Waiting for input...
     Reading input from standard input

     Current dimensions of program PWSCF are:
     Max number of different atomic species (ntypx) = 10
     Max number of k-points (npk) =  40000
     Max angular momentum in pseudopotentials (lmaxx) =  3

     Subspace diagonalization in iterative solution of the eigenvalue problem:
     one sub-group per band group will be used
     scalapack distributed-memory algorithm (size of sub-group:  3*  3 procs)

 
     Parallelization info
     --------------------
     sticks:   dense  smooth     PW     G-vecs:    dense   smooth      PW
     Min          44      22      6                 1942      682     112
     Max          45      23      7                 1951      695     119
     Sum        1069     547    163                46721    16503    2779
 


     bravais-lattice index     =            4
     lattice parameter (alat)  =       6.9939  a.u.
     unit-cell volume          =     483.0474 (a.u.)^3
     number of atoms/cell      =            2
     number of atomic types    =            1
     number of electrons       =        18.00
     number of Kohn-Sham states=           13
     kinetic-energy cutoff     =      40.0000  Ry
     charge density cutoff     =     320.0000  Ry
     convergence threshold     =      1.0E-10
     mixing beta               =       0.7000
     number of iterations used =            8  plain     mixing
     Exchange-correlation      = SLA  PW   PBE  PBE ( 1  4  3  4 0 0)

     celldm(1)=   6.993850  celldm(2)=   0.000000  celldm(3)=   1.630460
     celldm(4)=   0.000000  celldm(5)=   0.000000  celldm(6)=   0.000000

     crystal axes: (cart. coord. in units of alat)
               a(1) = (   1.000000   0.000000   0.000000 )  
               a(2) = (  -0.500000   0.866025   0.000000 )  
               a(3) = (   0.000000   0.000000   1.630460 )  

     reciprocal axes: (cart. coord. in units 2 pi/alat)
               b(1) = (  1.000000  0.577350  0.000000 )  
               b(2) = (  0.000000  1.154701  0.000000 )  
               b(3) = (  0.000000  0.000000  0.613324 )  


     PseudoPot. # 1 for Na read from file:
     ./Na_pbe_v1.uspp.F.UPF
     MD5 check sum: 76a99c7e9422403d3e93cbc85ab7bccb
     Pseudo is Ultrasoft, Zval =  9.0
     Generated by new atomic code, or converted to UPF format
     Using radial grid of  819 points,  5 beta functions with: 
                l(1) =   0
                l(2) =   0
                l(3) =   1
                l(4) =   1
                l(5) =   2
     Q(r) pseudized with  8 coefficients,  rinner =    1.250   1.250   1.250
                                                       1.250   1.250

     atomic species   valence    mass     pseudopotential
        Na             9.00    22.99000     Na( 1.00)

     12 Sym. Ops. (no inversion) found
          (note: 12 additional sym.ops. were found but ignored
           their fractional translations are incommensurate with FFT grid)


   Cartesian axes

     site n.     atom                  positions (alat units)
         1           Na  tau(   1) = (   0.0000000   0.0000000   0.0000000  )
         2           Na  tau(   2) = (   0.4999999   0.2886751   0.8152300  )

     number of k points=   366  Marzari-Vanderbilt smearing, width (Ry)=  0.0200

     Number of k-points >= 100: set verbosity='high' to print them.

     Dense  grid:    46721 G-vectors     FFT dimensions: (  40,  40,  72)

     Smooth grid:    16503 G-vectors     FFT dimensions: (  30,  30,  45)

     Largest allocated arrays     est. size (Mb)     dimensions
        Kohn-Sham Wavefunctions         0.02 Mb     (     102,   13)
        NL pseudopotentials             0.04 Mb     (     102,   26)
        Each V/rho on FFT grid          0.07 Mb     (    4800)
        Each G-vector array             0.01 Mb     (    1946)
        G-vector shells                 0.01 Mb     (     895)
     Largest temporary arrays     est. size (Mb)     dimensions
        Auxiliary wavefunctions         0.08 Mb     (     102,   52)
        Each subspace H/S matrix        0.00 Mb     (      17,   17)
        Each <psi_i|beta_j> matrix      0.01 Mb     (      26,   13)
        Arrays for rho mixing           0.59 Mb     (    4800,    8)

     Initial potential from superposition of free atoms

     starting charge   17.98742, renormalised to   18.00000
     Starting wfc are   10 randomized atomic wfcs +    3 random wfc

     total cpu time spent up to now is        1.1 secs

     per-process dynamical memory:    12.5 Mb

     Self-consistent Calculation

     iteration #  1     ecut=    40.00 Ry     beta=0.70
     Davidson diagonalization with overlap
     ethr =  1.00E-02,  avg # of iterations =  5.9

     Threshold (ethr) on eigenvalues was too large:
     Diagonalizing with lowered threshold

     Davidson diagonalization with overlap
     ethr =  9.45E-06,  avg # of iterations =  6.6

     total cpu time spent up to now is       14.5 secs

     total energy              =    -190.21279690 Ry
     Harris-Foulkes estimate   =    -190.21322624 Ry
     estimated scf accuracy    <       0.00175369 Ry

     iteration #  2     ecut=    40.00 Ry     beta=0.70
     Davidson diagonalization with overlap
     ethr =  9.74E-06,  avg # of iterations =  2.0

     total cpu time spent up to now is       17.8 secs

     total energy              =    -190.21299070 Ry
     Harris-Foulkes estimate   =    -190.21302946 Ry
     estimated scf accuracy    <       0.00018727 Ry

     iteration #  3     ecut=    40.00 Ry     beta=0.70
     Davidson diagonalization with overlap
     ethr =  1.04E-06,  avg # of iterations =  2.1

     total cpu time spent up to now is       21.2 secs

     total energy              =    -190.21300908 Ry
     Harris-Foulkes estimate   =    -190.21301155 Ry
     estimated scf accuracy    <       0.00001176 Ry

     iteration #  4     ecut=    40.00 Ry     beta=0.70
     Davidson diagonalization with overlap
     ethr =  6.54E-08,  avg # of iterations =  2.0

     total cpu time spent up to now is       24.3 secs

     total energy              =    -190.21301032 Ry
     Harris-Foulkes estimate   =    -190.21301022 Ry
     estimated scf accuracy    <       0.00000002 Ry

     iteration #  5     ecut=    40.00 Ry     beta=0.70
     Davidson diagonalization with overlap
     ethr =  1.20E-10,  avg # of iterations =  3.2

     total cpu time spent up to now is       28.8 secs

     total energy              =    -190.21301038 Ry
     Harris-Foulkes estimate   =    -190.21301037 Ry
     estimated scf accuracy    <          2.5E-09 Ry

     iteration #  6     ecut=    40.00 Ry     beta=0.70
     Davidson diagonalization with overlap
     ethr =  1.42E-11,  avg # of iterations =  1.8

     total cpu time spent up to now is       31.7 secs

     End of self-consistent calculation

     Number of k-points >= 100: set verbosity='high' to print the bands.

     the Fermi energy is     1.7529 ev

!    total energy              =    -190.21301038 Ry
     Harris-Foulkes estimate   =    -190.21301038 Ry
     estimated scf accuracy    <          8.0E-11 Ry

     The total energy is the sum of the following terms:

     one-electron contribution =    -174.76131589 Ry
     hartree contribution      =      88.22526246 Ry
     xc contribution           =     -28.54619463 Ry
     ewald contribution        =     -75.13063452 Ry
     smearing contrib. (-TS)   =      -0.00012781 Ry

     convergence has been achieved in   6 iterations


     entering subroutine stress ...

          total   stress  (Ry/bohr**3)                   (kbar)     P=    0.03
  -0.00000014   0.00000000   0.00000000         -0.02      0.00      0.00
   0.00000000  -0.00000014   0.00000000          0.00     -0.02      0.00
  -0.00000000  -0.00000000   0.00000084         -0.00     -0.00      0.12


     Writing output data file na_hcp.save
 
     init_run     :      0.94s CPU      1.04s WALL (       1 calls)
     electrons    :     29.77s CPU     30.62s WALL (       1 calls)
     stress       :      0.28s CPU      0.28s WALL (       1 calls)

     Called by init_run:
     wfcinit      :      0.90s CPU      0.93s WALL (       1 calls)
     potinit      :      0.01s CPU      0.06s WALL (       1 calls)

     Called by electrons:
     c_bands      :     27.86s CPU     28.59s WALL (       7 calls)
     sum_band     :      1.86s CPU      1.91s WALL (       7 calls)
     v_of_rho     :      0.02s CPU      0.02s WALL (       7 calls)
     newd         :      0.02s CPU      0.03s WALL (       7 calls)
     mix_rho      :      0.00s CPU      0.00s WALL (       7 calls)

     Called by c_bands:
     init_us_2    :      0.14s CPU      0.17s WALL (    5856 calls)
     cegterg      :     27.39s CPU     27.99s WALL (    2562 calls)

     Called by sum_band:
     sum_band:bec :      0.02s CPU      0.02s WALL (    2562 calls)
     addusdens    :      0.03s CPU      0.04s WALL (       7 calls)

     Called by *egterg:
     h_psi        :      8.69s CPU      8.94s WALL (   11539 calls)
     s_psi        :      0.22s CPU      0.24s WALL (   11539 calls)
     g_psi        :      0.06s CPU      0.04s WALL (    8611 calls)
     cdiaghg      :     16.57s CPU     16.86s WALL (   10807 calls)

     Called by h_psi:
     add_vuspsi   :      0.28s CPU      0.27s WALL (   11539 calls)

     General routines
     calbec       :      0.72s CPU      0.66s WALL (   14467 calls)
     fft          :      0.00s CPU      0.02s WALL (     117 calls)
     ffts         :      0.00s CPU      0.00s WALL (      14 calls)
     fftw         :      8.30s CPU      8.58s WALL (  216904 calls)
     interpolate  :      0.00s CPU      0.00s WALL (      14 calls)
 
     Parallel routines
     fft_scatter  :      4.86s CPU      4.87s WALL (  217035 calls)
 
     PWSCF        :  0m32.73s CPU     1m27.63s WALL

 
   This run was terminated on:  12: 8:34  26Mar2018            

=------------------------------------------------------------------------------=
   JOB DONE.
=------------------------------------------------------------------------------=
Application 30363941 resources: utime ~2034s, stime ~17s, Rss ~40556, inblocks ~180122, outblocks ~513752
