
     Program PHONON v.5.4.0 starts on 28Mar2018 at  1:47: 1 

     This program is part of the open-source Quantum ESPRESSO suite
     for quantum simulation of materials; please cite
         "P. Giannozzi et al., J. Phys.:Condens. Matter 21 395502 (2009);
          URL http://www.quantum-espresso.org", 
     in publications or presentations arising from this work. More details at
     http://www.quantum-espresso.org/quote

     Parallel version (MPI & OpenMP), running on     192 processor cores
     Number of MPI processes:               192
     Threads/MPI process:                     1
     K-points division:     npool     =      24
     R & G space division:  proc/nbgrp/npool/nimage =       8

     Reading data from directory:
     ./na_hcp_7.008/na_hcp_7.008.save

   Info: using nr1, nr2, nr3 values from input

   Info: using nr1, nr2, nr3 values from input

     IMPORTANT: XC functional enforced from input :
     Exchange-correlation      = SLA  PW   PBE  PBE ( 1  4  3  4 0 0)
     Any further DFT definition will be discarded
     Please, verify this is what you really want

 
     Parallelization info
     --------------------
     sticks:   dense  smooth     PW     G-vecs:    dense   smooth      PW
     Min         133      68     20                 5855     2066     346
     Max         134      69     21                 5864     2081     351
     Sum        1069     547    163                46889    16577    2779
 


     Dynamical matrices for ( 4, 4, 4)  uniform grid of q-points
     (  12q-points):
       N         xq(1)         xq(2)         xq(3) 
       1   0.000000000   0.000000000   0.000000000
       2   0.000000000   0.000000000   0.153330962
       3   0.000000000   0.000000000  -0.306661924
       4   0.000000000   0.288675135   0.000000000
       5   0.000000000   0.288675135   0.153330962
       6   0.000000000   0.288675135  -0.306661924
       7   0.000000000  -0.577350269   0.000000000
       8   0.000000000  -0.577350269   0.153330962
       9   0.000000000  -0.577350269  -0.306661924
      10   0.250000000   0.433012702   0.000000000
      11   0.250000000   0.433012702   0.153330962
      12   0.250000000   0.433012702  -0.306661924

     Calculation of q =    0.0000000   0.0000000   0.0000000

                                                                                

     bravais-lattice index     =            4
     lattice parameter (alat)  =       7.0080  a.u.
     unit-cell volume          =     485.9852 (a.u.)^3
     number of atoms/cell      =            2
     number of atomic types    =            1
     kinetic-energy cut-off    =      40.0000  Ry
     charge density cut-off    =     320.0000  Ry
     convergence threshold     =      1.0E-15
     beta                      =       0.7000
     number of iterations used =            4
     Exchange-correlation      = SLA  PW   PBE  PBE ( 1  4  3  4 0 0)


     celldm(1)=    7.00800  celldm(2)=    0.00000  celldm(3)=    1.63046
     celldm(4)=    0.00000  celldm(5)=    0.00000  celldm(6)=    0.00000

     crystal axes: (cart. coord. in units of alat)
               a(1) = (  1.0000  0.0000  0.0000 )  
               a(2) = ( -0.5000  0.8660  0.0000 )  
               a(3) = (  0.0000  0.0000  1.6305 )  

     reciprocal axes: (cart. coord. in units 2 pi/alat)
               b(1) = (  1.0000  0.5774  0.0000 )  
               b(2) = (  0.0000  1.1547  0.0000 )  
               b(3) = (  0.0000  0.0000  0.6133 )  


     Atoms inside the unit cell: 

     Cartesian axes

     site n.  atom      mass           positions (alat units)
        1     Na  22.9900   tau(    1) = (    0.00000    0.00000    0.00000  )
        2     Na  22.9900   tau(    2) = (    0.50000    0.28868    0.81523  )

     Computing dynamical matrix for 
                    q = (   0.0000000   0.0000000   0.0000000 )
 
     13 Sym.Ops. (with q -> -q+G )


     G cutoff =  398.0874  (   5857 G-vectors)     FFT grid: ( 40, 40, 72)
     G cutoff =  199.0437  (   2078 G-vectors)  smooth grid: ( 30, 30, 48)

     number of k points=   366  Marzari-Vanderbilt smearing, width (Ry)=  0.0200

     PseudoPot. # 1 for Na read from file:
     ./Na_pbe_v1.uspp.F.UPF
     MD5 check sum: 76a99c7e9422403d3e93cbc85ab7bccb
     Pseudo is Ultrasoft, Zval =  9.0
     Generated by new atomic code, or converted to UPF format
     Using radial grid of  819 points,  5 beta functions with: 
                l(1) =   0
                l(2) =   0
                l(3) =   1
                l(4) =   1
                l(5) =   2
     Q(r) pseudized with  8 coefficients,  rinner =    1.250   1.250   1.250
                                                       1.250   1.250

     Mode symmetry, D_3h (-62m) point group:


     Atomic displacements:
     There are   4 irreducible representations

     Representation     1      2 modes -E'  To be done

     Representation     2      2 modes -E'  To be done

     Representation     3      1 modes -A''2  To be done

     Representation     4      1 modes -A''2  To be done



     Alpha used in Ewald sum =   2.8000
     PHONON       :     6.45s CPU         9.62s WALL



     Representation #  1 modes #   1  2

     Self-consistent Calculation
 
     Pert. #  1: Fermi energy shift (Ry) =     0.0000E+00     0.0000E+00
     Pert. #  2: Fermi energy shift (Ry) =     2.1684E-19     0.0000E+00

      iter #   1 total cpu time :    11.3 secs   av.it.:   5.2
      thresh= 1.000E-02 alpha_mix =  0.700 |ddv_scf|^2 =  9.367E-07
 
     Pert. #  1: Fermi energy shift (Ry) =     0.0000E+00     0.0000E+00
     Pert. #  2: Fermi energy shift (Ry) =    -4.5175E-20     0.0000E+00

      iter #   2 total cpu time :    14.3 secs   av.it.:   8.7
      thresh= 9.679E-05 alpha_mix =  0.700 |ddv_scf|^2 =  1.678E-08
 
     Pert. #  1: Fermi energy shift (Ry) =     1.1294E-21     0.0000E+00
     Pert. #  2: Fermi energy shift (Ry) =    -7.9056E-21     0.0000E+00

      iter #   3 total cpu time :    17.1 secs   av.it.:   8.9
      thresh= 1.295E-05 alpha_mix =  0.700 |ddv_scf|^2 =  4.451E-10
 
     Pert. #  1: Fermi energy shift (Ry) =     0.0000E+00     0.0000E+00
     Pert. #  2: Fermi energy shift (Ry) =    -5.6469E-22     0.0000E+00

      iter #   4 total cpu time :    20.4 secs   av.it.:   8.4
      thresh= 2.110E-06 alpha_mix =  0.700 |ddv_scf|^2 =  1.565E-12
 
     Pert. #  1: Fermi energy shift (Ry) =     0.0000E+00     0.0000E+00
     Pert. #  2: Fermi energy shift (Ry) =     3.3881E-21     0.0000E+00

      iter #   5 total cpu time :    22.8 secs   av.it.:   8.9
      thresh= 1.251E-07 alpha_mix =  0.700 |ddv_scf|^2 =  5.858E-15
 
     Pert. #  1: Fermi energy shift (Ry) =     0.0000E+00     0.0000E+00
     Pert. #  2: Fermi energy shift (Ry) =    -6.2116E-21     0.0000E+00

      iter #   6 total cpu time :    25.3 secs   av.it.:   8.6
      thresh= 7.654E-09 alpha_mix =  0.700 |ddv_scf|^2 =  1.055E-16

     End of self-consistent calculation

     Convergence has been achieved 


     Representation #  2 modes #   3  4

     Self-consistent Calculation
 
     Pert. #  1: Fermi energy shift (Ry) =    -2.8912E-19     3.1347E-37
     Pert. #  2: Fermi energy shift (Ry) =     1.0842E-19     0.0000E+00

      iter #   1 total cpu time :    28.1 secs   av.it.:   5.2
      thresh= 1.000E-02 alpha_mix =  0.700 |ddv_scf|^2 =  9.367E-07
 
     Pert. #  1: Fermi energy shift (Ry) =    -2.7105E-20    -6.1224E-40
     Pert. #  2: Fermi energy shift (Ry) =     1.3553E-20     0.0000E+00

      iter #   2 total cpu time :    30.4 secs   av.it.:   8.7
      thresh= 9.678E-05 alpha_mix =  0.700 |ddv_scf|^2 =  1.678E-08
 
     Pert. #  1: Fermi energy shift (Ry) =    -4.5175E-21    -3.8265E-41
     Pert. #  2: Fermi energy shift (Ry) =     2.8234E-21     0.0000E+00

      iter #   3 total cpu time :    32.7 secs   av.it.:   8.9
      thresh= 1.295E-05 alpha_mix =  0.700 |ddv_scf|^2 =  4.465E-10
 
     Pert. #  1: Fermi energy shift (Ry) =    -3.3881E-21     7.6530E-41
     Pert. #  2: Fermi energy shift (Ry) =    -8.4703E-21     0.0000E+00

      iter #   4 total cpu time :    34.8 secs   av.it.:   8.5
      thresh= 2.113E-06 alpha_mix =  0.700 |ddv_scf|^2 =  1.557E-12
 
     Pert. #  1: Fermi energy shift (Ry) =    -4.5175E-21    -5.9789E-43
     Pert. #  2: Fermi energy shift (Ry) =    -8.4703E-21     0.0000E+00

      iter #   5 total cpu time :    36.5 secs   av.it.:   8.9
      thresh= 1.248E-07 alpha_mix =  0.700 |ddv_scf|^2 =  5.859E-15
 
     Pert. #  1: Fermi energy shift (Ry) =    -6.7763E-21    -2.3915E-42
     Pert. #  2: Fermi energy shift (Ry) =    -3.3881E-21     0.0000E+00

      iter #   6 total cpu time :    39.3 secs   av.it.:   8.7
      thresh= 7.654E-09 alpha_mix =  0.700 |ddv_scf|^2 =  1.055E-16

     End of self-consistent calculation

     Convergence has been achieved 


     Representation #  3 mode #   5

     Self-consistent Calculation
 
     Pert. #  1: Fermi energy shift (Ry) =     9.0350E-21     0.0000E+00

      iter #   1 total cpu time :    41.2 secs   av.it.:   5.5
      thresh= 1.000E-02 alpha_mix =  0.700 |ddv_scf|^2 =  2.019E-05
 
     Pert. #  1: Fermi energy shift (Ry) =    -1.1294E-21     0.0000E+00

      iter #   2 total cpu time :    42.3 secs   av.it.:   8.0
      thresh= 4.494E-04 alpha_mix =  0.700 |ddv_scf|^2 =  1.131E-05
 
     Pert. #  1: Fermi energy shift (Ry) =     0.0000E+00     0.0000E+00

      iter #   3 total cpu time :    43.4 secs   av.it.:   7.0
      thresh= 3.363E-04 alpha_mix =  0.700 |ddv_scf|^2 =  1.903E-08
 
     Pert. #  1: Fermi energy shift (Ry) =    -1.4117E-22     0.0000E+00

      iter #   4 total cpu time :    44.8 secs   av.it.:   8.4
      thresh= 1.379E-05 alpha_mix =  0.700 |ddv_scf|^2 =  4.007E-10
 
     Pert. #  1: Fermi energy shift (Ry) =     0.0000E+00     0.0000E+00

      iter #   5 total cpu time :    45.4 secs   av.it.:   7.9
      thresh= 2.002E-06 alpha_mix =  0.700 |ddv_scf|^2 =  3.071E-12
 
     Pert. #  1: Fermi energy shift (Ry) =     0.0000E+00     0.0000E+00

      iter #   6 total cpu time :    45.9 secs   av.it.:   8.0
      thresh= 1.752E-07 alpha_mix =  0.700 |ddv_scf|^2 =  3.133E-14
 
     Pert. #  1: Fermi energy shift (Ry) =     0.0000E+00     0.0000E+00

      iter #   7 total cpu time :    46.5 secs   av.it.:   8.2
      thresh= 1.770E-08 alpha_mix =  0.700 |ddv_scf|^2 =  6.053E-16

     End of self-consistent calculation

     Convergence has been achieved 


     Representation #  4 mode #   6

     Self-consistent Calculation
 
     Pert. #  1: Fermi energy shift (Ry) =     9.0350E-21     0.0000E+00

      iter #   1 total cpu time :    47.0 secs   av.it.:   5.5
      thresh= 1.000E-02 alpha_mix =  0.700 |ddv_scf|^2 =  2.019E-05
 
     Pert. #  1: Fermi energy shift (Ry) =     0.0000E+00     0.0000E+00

      iter #   2 total cpu time :    47.6 secs   av.it.:   8.0
      thresh= 4.494E-04 alpha_mix =  0.700 |ddv_scf|^2 =  1.131E-05
 
     Pert. #  1: Fermi energy shift (Ry) =    -5.6469E-22     0.0000E+00

      iter #   3 total cpu time :    48.0 secs   av.it.:   7.0
      thresh= 3.363E-04 alpha_mix =  0.700 |ddv_scf|^2 =  1.903E-08
 
     Pert. #  1: Fermi energy shift (Ry) =    -1.4117E-22     0.0000E+00

      iter #   4 total cpu time :    48.5 secs   av.it.:   8.4
      thresh= 1.379E-05 alpha_mix =  0.700 |ddv_scf|^2 =  4.008E-10
 
     Pert. #  1: Fermi energy shift (Ry) =    -2.8234E-22     0.0000E+00

      iter #   5 total cpu time :    49.0 secs   av.it.:   7.9
      thresh= 2.002E-06 alpha_mix =  0.700 |ddv_scf|^2 =  3.070E-12
 
     Pert. #  1: Fermi energy shift (Ry) =    -2.8234E-22     0.0000E+00

      iter #   6 total cpu time :    49.5 secs   av.it.:   8.0
      thresh= 1.752E-07 alpha_mix =  0.700 |ddv_scf|^2 =  3.133E-14
 
     Pert. #  1: Fermi energy shift (Ry) =     0.0000E+00     0.0000E+00

      iter #   7 total cpu time :    50.1 secs   av.it.:   8.2
      thresh= 1.770E-08 alpha_mix =  0.700 |ddv_scf|^2 =  6.052E-16

     End of self-consistent calculation

     Convergence has been achieved 
 
     Number of q in the star =    1
     List of q in the star:
          1   0.000000000   0.000000000   0.000000000

     Diagonalizing the dynamical matrix

     q = (    0.000000000   0.000000000   0.000000000 ) 

 **************************************************************************
     freq (    1) =      -0.555253 [THz] =     -18.521249 [cm-1]
     freq (    2) =      -0.555253 [THz] =     -18.521249 [cm-1]
     freq (    3) =       0.544218 [THz] =      18.153168 [cm-1]
     freq (    4) =       1.685622 [THz] =      56.226294 [cm-1]
     freq (    5) =       1.685622 [THz] =      56.226294 [cm-1]
     freq (    6) =       4.009288 [THz] =     133.735453 [cm-1]
 **************************************************************************

     Mode symmetry, D_3h (-62m) point group:

     freq (  1 -  2) =        -18.5  [cm-1]   --> E'              I+R
     freq (  3 -  3) =         18.2  [cm-1]   --> A''2            I  
     freq (  4 -  5) =         56.2  [cm-1]   --> E'              I+R
     freq (  6 -  6) =        133.7  [cm-1]   --> A''2            I  

     Calculation of q =    0.0000000   0.0000000   0.1533310
 
     Parallelization info
     --------------------
     sticks:   dense  smooth     PW     G-vecs:    dense   smooth      PW
     Min         133      68     20                 5855     2066     356
     Max         134      69     21                 5864     2077     363
     Sum        1069     547    163                46889    16577    2875
 


     bravais-lattice index     =            4
     lattice parameter (alat)  =       7.0080  a.u.
     unit-cell volume          =     485.9852 (a.u.)^3
     number of atoms/cell      =            2
     number of atomic types    =            1
     number of electrons       =        18.00
     number of Kohn-Sham states=           13
     kinetic-energy cutoff     =      40.0000  Ry
     charge density cutoff     =     320.0000  Ry
     Exchange-correlation      = SLA  PW   PBE  PBE ( 1  4  3  4 0 0)

     celldm(1)=   7.008000  celldm(2)=   0.000000  celldm(3)=   1.630460
     celldm(4)=   0.000000  celldm(5)=   0.000000  celldm(6)=   0.000000

     crystal axes: (cart. coord. in units of alat)
               a(1) = (   1.000000   0.000000   0.000000 )  
               a(2) = (  -0.500000   0.866025   0.000000 )  
               a(3) = (   0.000000   0.000000   1.630460 )  

     reciprocal axes: (cart. coord. in units 2 pi/alat)
               b(1) = (  1.000000  0.577350  0.000000 )  
               b(2) = (  0.000000  1.154701  0.000000 )  
               b(3) = (  0.000000  0.000000  0.613324 )  


     PseudoPot. # 1 for Na read from file:
     ./Na_pbe_v1.uspp.F.UPF
     MD5 check sum: 76a99c7e9422403d3e93cbc85ab7bccb
     Pseudo is Ultrasoft, Zval =  9.0
     Generated by new atomic code, or converted to UPF format
     Using radial grid of  819 points,  5 beta functions with: 
                l(1) =   0
                l(2) =   0
                l(3) =   1
                l(4) =   1
                l(5) =   2
     Q(r) pseudized with  8 coefficients,  rinner =    1.250   1.250   1.250
                                                       1.250   1.250

     atomic species   valence    mass     pseudopotential
        Na             9.00    22.99000     Na( 1.00)

     12 Sym. Ops. (no inversion) found



   Cartesian axes

     site n.     atom                  positions (alat units)
         1           Na  tau(   1) = (   0.0000000   0.0000000   0.0000000  )
         2           Na  tau(   2) = (   0.4999999   0.2886751   0.8152300  )

     number of k points=  2616  Marzari-Vanderbilt smearing, width (Ry)=  0.0200

     Number of k-points >= 100: set verbosity='high' to print them.

     Dense  grid:    46889 G-vectors     FFT dimensions: (  40,  40,  72)

     Smooth grid:    16577 G-vectors     FFT dimensions: (  30,  30,  48)

     Largest allocated arrays     est. size (Mb)     dimensions
        Kohn-Sham Wavefunctions         0.05 Mb     (     270,   13)
        NL pseudopotentials             0.11 Mb     (     270,   26)
        Each V/rho on FFT grid          0.22 Mb     (   14400)
        Each G-vector array             0.04 Mb     (    5857)
        G-vector shells                 0.01 Mb     (    1828)
     Largest temporary arrays     est. size (Mb)     dimensions
        Auxiliary wavefunctions         0.21 Mb     (     270,   52)
        Each subspace H/S matrix        0.01 Mb     (      26,   26)
        Each <psi_i|beta_j> matrix      0.01 Mb     (      26,   13)

     The potential is recalculated from file :
     ./na_hcp_7.008/_ph0/na_hcp_7.008.save/charge-density.dat

     Starting wfc are   10 atomic +    3 random wfc

     Band Structure Calculation
     Davidson diagonalization with overlap

     ethr =  5.56E-11,  avg # of iterations = 23.3

     total cpu time spent up to now is       16.4 secs

     End of band structure calculation

     Number of k-points >= 100: set verbosity='high' to print the bands.

     the Fermi energy is     1.7268 ev

     Writing output data file na_hcp_7.008.save

                                                                                

     bravais-lattice index     =            4
     lattice parameter (alat)  =       7.0080  a.u.
     unit-cell volume          =     485.9852 (a.u.)^3
     number of atoms/cell      =            2
     number of atomic types    =            1
     kinetic-energy cut-off    =      40.0000  Ry
     charge density cut-off    =     320.0000  Ry
     convergence threshold     =      1.0E-15
     beta                      =       0.7000
     number of iterations used =            4
     Exchange-correlation      = SLA  PW   PBE  PBE ( 1  4  3  4 0 0)


     celldm(1)=    7.00800  celldm(2)=    0.00000  celldm(3)=    1.63046
     celldm(4)=    0.00000  celldm(5)=    0.00000  celldm(6)=    0.00000

     crystal axes: (cart. coord. in units of alat)
               a(1) = (  1.0000  0.0000  0.0000 )  
               a(2) = ( -0.5000  0.8660  0.0000 )  
               a(3) = (  0.0000  0.0000  1.6305 )  

     reciprocal axes: (cart. coord. in units 2 pi/alat)
               b(1) = (  1.0000  0.5774  0.0000 )  
               b(2) = (  0.0000  1.1547  0.0000 )  
               b(3) = (  0.0000  0.0000  0.6133 )  


     Atoms inside the unit cell: 

     Cartesian axes

     site n.  atom      mass           positions (alat units)
        1     Na  22.9900   tau(    1) = (    0.00000    0.00000    0.00000  )
        2     Na  22.9900   tau(    2) = (    0.50000    0.28868    0.81523  )

     Computing dynamical matrix for 
                    q = (   0.0000000   0.0000000   0.1533310 )
 
      6 Sym.Ops. (no q -> -q+G )


     G cutoff =  398.0874  (   5857 G-vectors)     FFT grid: ( 40, 40, 72)
     G cutoff =  199.0437  (   2072 G-vectors)  smooth grid: ( 30, 30, 48)

     number of k points=  2616  Marzari-Vanderbilt smearing, width (Ry)=  0.0200

     PseudoPot. # 1 for Na read from file:
     ./Na_pbe_v1.uspp.F.UPF
     MD5 check sum: 76a99c7e9422403d3e93cbc85ab7bccb
     Pseudo is Ultrasoft, Zval =  9.0
     Generated by new atomic code, or converted to UPF format
     Using radial grid of  819 points,  5 beta functions with: 
                l(1) =   0
                l(2) =   0
                l(3) =   1
                l(4) =   1
                l(5) =   2
     Q(r) pseudized with  8 coefficients,  rinner =    1.250   1.250   1.250
                                                       1.250   1.250

     Mode symmetry, C_3v (3m)   point group:


     Atomic displacements:
     There are   4 irreducible representations

     Representation     1      1 modes -A_1  L_1  To be done

     Representation     2      1 modes -A_1  L_1  To be done

     Representation     3      2 modes -E    L_3  To be done

     Representation     4      2 modes -E    L_3  To be done



     Alpha used in Ewald sum =   2.8000
     PHONON       :  1m 1.97s CPU     1m11.37s WALL



     Representation #  1 mode #   1

     Self-consistent Calculation

      iter #   1 total cpu time :    72.7 secs   av.it.:   5.8
      thresh= 1.000E-02 alpha_mix =  0.700 |ddv_scf|^2 =  3.048E-02

      iter #   2 total cpu time :    77.6 secs   av.it.:   6.8
      thresh= 1.000E-02 alpha_mix =  0.700 |ddv_scf|^2 =  1.675E+01

      iter #   3 total cpu time :    81.4 secs   av.it.:   6.7
      thresh= 1.000E-02 alpha_mix =  0.700 |ddv_scf|^2 =  1.991E-04

      iter #   4 total cpu time :    86.8 secs   av.it.:   7.3
      thresh= 1.411E-03 alpha_mix =  0.700 |ddv_scf|^2 =  3.586E-04

      iter #   5 total cpu time :    91.2 secs   av.it.:   6.4
      thresh= 1.894E-03 alpha_mix =  0.700 |ddv_scf|^2 =  1.270E-08

      iter #   6 total cpu time :    95.5 secs   av.it.:   8.3
      thresh= 1.127E-05 alpha_mix =  0.700 |ddv_scf|^2 =  1.871E-07

      iter #   7 total cpu time :    99.5 secs   av.it.:   3.6
      thresh= 4.326E-05 alpha_mix =  0.700 |ddv_scf|^2 =  9.979E-09

      iter #   8 total cpu time :   103.2 secs   av.it.:   7.3
      thresh= 9.990E-06 alpha_mix =  0.700 |ddv_scf|^2 =  3.781E-10

      iter #   9 total cpu time :   105.9 secs   av.it.:   7.4
      thresh= 1.945E-06 alpha_mix =  0.700 |ddv_scf|^2 =  6.262E-09

      iter #  10 total cpu time :   110.3 secs   av.it.:   6.0
      thresh= 7.913E-06 alpha_mix =  0.700 |ddv_scf|^2 =  2.534E-12

      iter #  11 total cpu time :   114.6 secs   av.it.:   8.0
      thresh= 1.592E-07 alpha_mix =  0.700 |ddv_scf|^2 =  5.213E-13

      iter #  12 total cpu time :   118.8 secs   av.it.:   7.3
      thresh= 7.220E-08 alpha_mix =  0.700 |ddv_scf|^2 =  1.831E-13

      iter #  13 total cpu time :   123.3 secs   av.it.:   7.4
      thresh= 4.280E-08 alpha_mix =  0.700 |ddv_scf|^2 =  1.895E-11

      iter #  14 total cpu time :   127.1 secs   av.it.:   5.1
      thresh= 4.353E-07 alpha_mix =  0.700 |ddv_scf|^2 =  1.466E-15

      iter #  15 total cpu time :   131.0 secs   av.it.:   8.7
      thresh= 3.829E-09 alpha_mix =  0.700 |ddv_scf|^2 =  1.202E-14

      iter #  16 total cpu time :   135.3 secs   av.it.:   5.9
      thresh= 1.097E-08 alpha_mix =  0.700 |ddv_scf|^2 =  7.642E-15

      iter #  17 total cpu time :   139.4 secs   av.it.:   6.7
      thresh= 8.742E-09 alpha_mix =  0.700 |ddv_scf|^2 =  2.197E-17

     End of self-consistent calculation

     Convergence has been achieved 


     Representation #  2 mode #   2

     Self-consistent Calculation

      iter #   1 total cpu time :   143.2 secs   av.it.:   5.8
      thresh= 1.000E-02 alpha_mix =  0.700 |ddv_scf|^2 =  3.048E-02

      iter #   2 total cpu time :   147.5 secs   av.it.:   6.8
      thresh= 1.000E-02 alpha_mix =  0.700 |ddv_scf|^2 =  1.675E+01

      iter #   3 total cpu time :   151.1 secs   av.it.:   6.7
      thresh= 1.000E-02 alpha_mix =  0.700 |ddv_scf|^2 =  1.991E-04

      iter #   4 total cpu time :   154.8 secs   av.it.:   7.3
      thresh= 1.411E-03 alpha_mix =  0.700 |ddv_scf|^2 =  3.586E-04

      iter #   5 total cpu time :   159.5 secs   av.it.:   6.4
      thresh= 1.894E-03 alpha_mix =  0.700 |ddv_scf|^2 =  1.243E-08

      iter #   6 total cpu time :   163.4 secs   av.it.:   8.3
      thresh= 1.115E-05 alpha_mix =  0.700 |ddv_scf|^2 =  3.920E-08

      iter #   7 total cpu time :   167.0 secs   av.it.:   4.4
      thresh= 1.980E-05 alpha_mix =  0.700 |ddv_scf|^2 =  4.315E-08

      iter #   8 total cpu time :   171.3 secs   av.it.:   6.7
      thresh= 2.077E-05 alpha_mix =  0.700 |ddv_scf|^2 =  3.806E-10

      iter #   9 total cpu time :   174.9 secs   av.it.:   7.4
      thresh= 1.951E-06 alpha_mix =  0.700 |ddv_scf|^2 =  6.238E-09

      iter #  10 total cpu time :   178.5 secs   av.it.:   6.0
      thresh= 7.898E-06 alpha_mix =  0.700 |ddv_scf|^2 =  2.424E-12

      iter #  11 total cpu time :   184.5 secs   av.it.:   8.0
      thresh= 1.557E-07 alpha_mix =  0.700 |ddv_scf|^2 =  6.558E-13

      iter #  12 total cpu time :   190.6 secs   av.it.:   7.2
      thresh= 8.098E-08 alpha_mix =  0.700 |ddv_scf|^2 =  7.699E-14

      iter #  13 total cpu time :   196.3 secs   av.it.:   8.1
      thresh= 2.775E-08 alpha_mix =  0.700 |ddv_scf|^2 =  1.002E-11

      iter #  14 total cpu time :   201.2 secs   av.it.:   4.1
      thresh= 3.165E-07 alpha_mix =  0.700 |ddv_scf|^2 =  3.950E-15

      iter #  15 total cpu time :   206.5 secs   av.it.:   8.4
      thresh= 6.285E-09 alpha_mix =  0.700 |ddv_scf|^2 =  1.068E-14

      iter #  16 total cpu time :   210.5 secs   av.it.:   6.0
      thresh= 1.033E-08 alpha_mix =  0.700 |ddv_scf|^2 =  7.088E-15

      iter #  17 total cpu time :   215.6 secs   av.it.:   6.7
      thresh= 8.419E-09 alpha_mix =  0.700 |ddv_scf|^2 =  2.454E-17

     End of self-consistent calculation

     Convergence has been achieved 


     Representation #  3 modes #   3  4

     Self-consistent Calculation

      iter #   1 total cpu time :   222.9 secs   av.it.:   5.2
      thresh= 1.000E-02 alpha_mix =  0.700 |ddv_scf|^2 =  9.357E-07

      iter #   2 total cpu time :   235.3 secs   av.it.:   8.7
      thresh= 9.673E-05 alpha_mix =  0.700 |ddv_scf|^2 =  1.679E-08

      iter #   3 total cpu time :   246.1 secs   av.it.:   9.0
      thresh= 1.296E-05 alpha_mix =  0.700 |ddv_scf|^2 =  4.381E-10

      iter #   4 total cpu time :   255.0 secs   av.it.:   8.6
      thresh= 2.093E-06 alpha_mix =  0.700 |ddv_scf|^2 =  1.497E-12

      iter #   5 total cpu time :   264.6 secs   av.it.:   9.0
      thresh= 1.223E-07 alpha_mix =  0.700 |ddv_scf|^2 =  4.331E-15

      iter #   6 total cpu time :   272.4 secs   av.it.:   8.6
      thresh= 6.581E-09 alpha_mix =  0.700 |ddv_scf|^2 =  1.007E-16

     End of self-consistent calculation

     Convergence has been achieved 


     Representation #  4 modes #   5  6

     Self-consistent Calculation

      iter #   1 total cpu time :   281.8 secs   av.it.:   5.2
      thresh= 1.000E-02 alpha_mix =  0.700 |ddv_scf|^2 =  9.356E-07

      iter #   2 total cpu time :   290.8 secs   av.it.:   8.7
      thresh= 9.673E-05 alpha_mix =  0.700 |ddv_scf|^2 =  1.680E-08

      iter #   3 total cpu time :   300.1 secs   av.it.:   9.0
      thresh= 1.296E-05 alpha_mix =  0.700 |ddv_scf|^2 =  4.395E-10

      iter #   4 total cpu time :   310.9 secs   av.it.:   8.5
      thresh= 2.096E-06 alpha_mix =  0.700 |ddv_scf|^2 =  1.489E-12

      iter #   5 total cpu time :   317.9 secs   av.it.:   8.9
      thresh= 1.220E-07 alpha_mix =  0.700 |ddv_scf|^2 =  4.334E-15

      iter #   6 total cpu time :   327.4 secs   av.it.:   8.6
      thresh= 6.583E-09 alpha_mix =  0.700 |ddv_scf|^2 =  1.007E-16

     End of self-consistent calculation

     Convergence has been achieved 
 
     Number of q in the star =    2
     List of q in the star:
          1   0.000000000   0.000000000   0.153330962
          2   0.000000000   0.000000000  -0.153330962

     Diagonalizing the dynamical matrix

     q = (    0.000000000   0.000000000   0.153330962 ) 

 **************************************************************************
     freq (    1) =       0.406612 [THz] =      13.563105 [cm-1]
     freq (    2) =       0.406612 [THz] =      13.563105 [cm-1]
     freq (    3) =       1.563728 [THz] =      52.160358 [cm-1]
     freq (    4) =       1.563728 [THz] =      52.160358 [cm-1]
     freq (    5) =       1.624405 [THz] =      54.184307 [cm-1]
     freq (    6) =       3.770556 [THz] =     125.772215 [cm-1]
 **************************************************************************

     Mode symmetry, C_3v (3m)   point group:

     freq (  1 -  2) =         13.6  [cm-1]   --> E    L_3           
     freq (  3 -  4) =         52.2  [cm-1]   --> E    L_3           
     freq (  5 -  5) =         54.2  [cm-1]   --> A_1  L_1           
     freq (  6 -  6) =        125.8  [cm-1]   --> A_1  L_1           

     Calculation of q =    0.0000000   0.0000000  -0.3066619
 
     Parallelization info
     --------------------
     sticks:   dense  smooth     PW     G-vecs:    dense   smooth      PW
     Min         133      68     20                 5855     2066     346
     Max         134      69     21                 5864     2081     351
     Sum        1069     547    163                46889    16577    2779
 


     bravais-lattice index     =            4
     lattice parameter (alat)  =       7.0080  a.u.
     unit-cell volume          =     485.9852 (a.u.)^3
     number of atoms/cell      =            2
     number of atomic types    =            1
     number of electrons       =        18.00
     number of Kohn-Sham states=           13
     kinetic-energy cutoff     =      40.0000  Ry
     charge density cutoff     =     320.0000  Ry
     Exchange-correlation      = SLA  PW   PBE  PBE ( 1  4  3  4 0 0)

     celldm(1)=   7.008000  celldm(2)=   0.000000  celldm(3)=   1.630460
     celldm(4)=   0.000000  celldm(5)=   0.000000  celldm(6)=   0.000000

     crystal axes: (cart. coord. in units of alat)
               a(1) = (   1.000000   0.000000   0.000000 )  
               a(2) = (  -0.500000   0.866025   0.000000 )  
               a(3) = (   0.000000   0.000000   1.630460 )  

     reciprocal axes: (cart. coord. in units 2 pi/alat)
               b(1) = (  1.000000  0.577350  0.000000 )  
               b(2) = (  0.000000  1.154701  0.000000 )  
               b(3) = (  0.000000  0.000000  0.613324 )  


     PseudoPot. # 1 for Na read from file:
     ./Na_pbe_v1.uspp.F.UPF
     MD5 check sum: 76a99c7e9422403d3e93cbc85ab7bccb
     Pseudo is Ultrasoft, Zval =  9.0
     Generated by new atomic code, or converted to UPF format
     Using radial grid of  819 points,  5 beta functions with: 
                l(1) =   0
                l(2) =   0
                l(3) =   1
                l(4) =   1
                l(5) =   2
     Q(r) pseudized with  8 coefficients,  rinner =    1.250   1.250   1.250
                                                       1.250   1.250

     atomic species   valence    mass     pseudopotential
        Na             9.00    22.99000     Na( 1.00)

     12 Sym. Ops. (no inversion) found



   Cartesian axes

     site n.     atom                  positions (alat units)
         1           Na  tau(   1) = (   0.0000000   0.0000000   0.0000000  )
         2           Na  tau(   2) = (   0.4999999   0.2886751   0.8152300  )

     number of k points=   732  Marzari-Vanderbilt smearing, width (Ry)=  0.0200

     Number of k-points >= 100: set verbosity='high' to print them.

     Dense  grid:    46889 G-vectors     FFT dimensions: (  40,  40,  72)

     Smooth grid:    16577 G-vectors     FFT dimensions: (  30,  30,  48)

     Largest allocated arrays     est. size (Mb)     dimensions
        Kohn-Sham Wavefunctions         0.06 Mb     (     280,   13)
        NL pseudopotentials             0.11 Mb     (     280,   26)
        Each V/rho on FFT grid          0.22 Mb     (   14400)
        Each G-vector array             0.04 Mb     (    5857)
        G-vector shells                 0.01 Mb     (    1857)
     Largest temporary arrays     est. size (Mb)     dimensions
        Auxiliary wavefunctions         0.22 Mb     (     280,   52)
        Each subspace H/S matrix        0.01 Mb     (      26,   26)
        Each <psi_i|beta_j> matrix      0.01 Mb     (      26,   13)

     The potential is recalculated from file :
     ./na_hcp_7.008/_ph0/na_hcp_7.008.save/charge-density.dat

     Starting wfc are   10 atomic +    3 random wfc

     Band Structure Calculation
     Davidson diagonalization with overlap

     ethr =  5.56E-11,  avg # of iterations = 23.4

     total cpu time spent up to now is       22.0 secs

     End of band structure calculation

     Number of k-points >= 100: set verbosity='high' to print the bands.

     the Fermi energy is     1.7268 ev

     Writing output data file na_hcp_7.008.save

                                                                                

     bravais-lattice index     =            4
     lattice parameter (alat)  =       7.0080  a.u.
     unit-cell volume          =     485.9852 (a.u.)^3
     number of atoms/cell      =            2
     number of atomic types    =            1
     kinetic-energy cut-off    =      40.0000  Ry
     charge density cut-off    =     320.0000  Ry
     convergence threshold     =      1.0E-15
     beta                      =       0.7000
     number of iterations used =            4
     Exchange-correlation      = SLA  PW   PBE  PBE ( 1  4  3  4 0 0)


     celldm(1)=    7.00800  celldm(2)=    0.00000  celldm(3)=    1.63046
     celldm(4)=    0.00000  celldm(5)=    0.00000  celldm(6)=    0.00000

     crystal axes: (cart. coord. in units of alat)
               a(1) = (  1.0000  0.0000  0.0000 )  
               a(2) = ( -0.5000  0.8660  0.0000 )  
               a(3) = (  0.0000  0.0000  1.6305 )  

     reciprocal axes: (cart. coord. in units 2 pi/alat)
               b(1) = (  1.0000  0.5774  0.0000 )  
               b(2) = (  0.0000  1.1547  0.0000 )  
               b(3) = (  0.0000  0.0000  0.6133 )  


     Atoms inside the unit cell: 

     Cartesian axes

     site n.  atom      mass           positions (alat units)
        1     Na  22.9900   tau(    1) = (    0.00000    0.00000    0.00000  )
        2     Na  22.9900   tau(    2) = (    0.50000    0.28868    0.81523  )

     Computing dynamical matrix for 
                    q = (   0.0000000   0.0000000  -0.3066619 )
 
     13 Sym.Ops. (with q -> -q+G )


     G cutoff =  398.0874  (   5857 G-vectors)     FFT grid: ( 40, 40, 72)
     G cutoff =  199.0437  (   2078 G-vectors)  smooth grid: ( 30, 30, 48)

     number of k points=   732  Marzari-Vanderbilt smearing, width (Ry)=  0.0200

     PseudoPot. # 1 for Na read from file:
     ./Na_pbe_v1.uspp.F.UPF
     MD5 check sum: 76a99c7e9422403d3e93cbc85ab7bccb
     Pseudo is Ultrasoft, Zval =  9.0
     Generated by new atomic code, or converted to UPF format
     Using radial grid of  819 points,  5 beta functions with: 
                l(1) =   0
                l(2) =   0
                l(3) =   1
                l(4) =   1
                l(5) =   2
     Q(r) pseudized with  8 coefficients,  rinner =    1.250   1.250   1.250
                                                       1.250   1.250

     Mode symmetry, D_3h (-62m) point group:


     Atomic displacements:
     There are   4 irreducible representations

     Representation     1      1 modes -A'_1  To be done

     Representation     2      2 modes -E'  To be done

     Representation     3      1 modes -A''2  To be done

     Representation     4      2 modes -E''  To be done



     Alpha used in Ewald sum =   2.8000
     PHONON       :  4m26.52s CPU     5m32.34s WALL



     Representation #  1 mode #   1

     Self-consistent Calculation

      iter #   1 total cpu time :   332.8 secs   av.it.:   5.7
      thresh= 1.000E-02 alpha_mix =  0.700 |ddv_scf|^2 =  9.690E-04

      iter #   2 total cpu time :   333.6 secs   av.it.:   7.0
      thresh= 3.113E-03 alpha_mix =  0.700 |ddv_scf|^2 =  2.607E-02

      iter #   3 total cpu time :   334.0 secs   av.it.:   5.9
      thresh= 1.000E-02 alpha_mix =  0.700 |ddv_scf|^2 =  7.032E-07

      iter #   4 total cpu time :   334.6 secs   av.it.:   7.9
      thresh= 8.386E-05 alpha_mix =  0.700 |ddv_scf|^2 =  3.478E-09

      iter #   5 total cpu time :   335.1 secs   av.it.:   8.7
      thresh= 5.898E-06 alpha_mix =  0.700 |ddv_scf|^2 =  2.597E-10

      iter #   6 total cpu time :   335.6 secs   av.it.:   8.5
      thresh= 1.611E-06 alpha_mix =  0.700 |ddv_scf|^2 =  6.957E-12

      iter #   7 total cpu time :   336.2 secs   av.it.:   8.9
      thresh= 2.638E-07 alpha_mix =  0.700 |ddv_scf|^2 =  9.680E-13

      iter #   8 total cpu time :   336.7 secs   av.it.:   7.6
      thresh= 9.839E-08 alpha_mix =  0.700 |ddv_scf|^2 =  5.770E-16

     End of self-consistent calculation

     Convergence has been achieved 


     Representation #  2 modes #   2  3

     Self-consistent Calculation

      iter #   1 total cpu time :   338.6 secs   av.it.:   5.2
      thresh= 1.000E-02 alpha_mix =  0.700 |ddv_scf|^2 =  9.347E-07

      iter #   2 total cpu time :   341.0 secs   av.it.:   8.7
      thresh= 9.668E-05 alpha_mix =  0.700 |ddv_scf|^2 =  1.680E-08

      iter #   3 total cpu time :   342.9 secs   av.it.:   9.0
      thresh= 1.296E-05 alpha_mix =  0.700 |ddv_scf|^2 =  4.301E-10

      iter #   4 total cpu time :   345.3 secs   av.it.:   8.5
      thresh= 2.074E-06 alpha_mix =  0.700 |ddv_scf|^2 =  1.437E-12

      iter #   5 total cpu time :   347.9 secs   av.it.:   8.9
      thresh= 1.199E-07 alpha_mix =  0.700 |ddv_scf|^2 =  2.724E-15

      iter #   6 total cpu time :   350.2 secs   av.it.:   8.2
      thresh= 5.220E-09 alpha_mix =  0.700 |ddv_scf|^2 =  9.199E-17

     End of self-consistent calculation

     Convergence has been achieved 


     Representation #  3 mode #   4

     Self-consistent Calculation

      iter #   1 total cpu time :   352.1 secs   av.it.:   5.7
      thresh= 1.000E-02 alpha_mix =  0.700 |ddv_scf|^2 =  9.690E-04

      iter #   2 total cpu time :   353.5 secs   av.it.:   7.0
      thresh= 3.113E-03 alpha_mix =  0.700 |ddv_scf|^2 =  2.607E-02

      iter #   3 total cpu time :   355.1 secs   av.it.:   5.9
      thresh= 1.000E-02 alpha_mix =  0.700 |ddv_scf|^2 =  7.034E-07

      iter #   4 total cpu time :   356.1 secs   av.it.:   7.9
      thresh= 8.387E-05 alpha_mix =  0.700 |ddv_scf|^2 =  3.482E-09

      iter #   5 total cpu time :   357.4 secs   av.it.:   8.7
      thresh= 5.901E-06 alpha_mix =  0.700 |ddv_scf|^2 =  2.598E-10

      iter #   6 total cpu time :   359.0 secs   av.it.:   8.5
      thresh= 1.612E-06 alpha_mix =  0.700 |ddv_scf|^2 =  6.959E-12

      iter #   7 total cpu time :   360.4 secs   av.it.:   8.9
      thresh= 2.638E-07 alpha_mix =  0.700 |ddv_scf|^2 =  9.692E-13

      iter #   8 total cpu time :   361.8 secs   av.it.:   7.6
      thresh= 9.845E-08 alpha_mix =  0.700 |ddv_scf|^2 =  5.776E-16

     End of self-consistent calculation

     Convergence has been achieved 


     Representation #  4 modes #   5  6

     Self-consistent Calculation

      iter #   1 total cpu time :   364.7 secs   av.it.:   5.2
      thresh= 1.000E-02 alpha_mix =  0.700 |ddv_scf|^2 =  9.346E-07

      iter #   2 total cpu time :   367.5 secs   av.it.:   8.7
      thresh= 9.668E-05 alpha_mix =  0.700 |ddv_scf|^2 =  1.680E-08

      iter #   3 total cpu time :   369.8 secs   av.it.:   9.0
      thresh= 1.296E-05 alpha_mix =  0.700 |ddv_scf|^2 =  4.315E-10

      iter #   4 total cpu time :   372.7 secs   av.it.:   8.5
      thresh= 2.077E-06 alpha_mix =  0.700 |ddv_scf|^2 =  1.429E-12

      iter #   5 total cpu time :   374.6 secs   av.it.:   9.0
      thresh= 1.195E-07 alpha_mix =  0.700 |ddv_scf|^2 =  2.730E-15

      iter #   6 total cpu time :   376.8 secs   av.it.:   8.3
      thresh= 5.225E-09 alpha_mix =  0.700 |ddv_scf|^2 =  9.203E-17

     End of self-consistent calculation

     Convergence has been achieved 
 
     Number of q in the star =    1
     List of q in the star:
          1   0.000000000   0.000000000  -0.306661924

     Diagonalizing the dynamical matrix

     q = (    0.000000000   0.000000000  -0.306661924 ) 

 **************************************************************************
     freq (    1) =       1.122374 [THz] =      37.438379 [cm-1]
     freq (    2) =       1.122374 [THz] =      37.438379 [cm-1]
     freq (    3) =       1.159859 [THz] =      38.688720 [cm-1]
     freq (    4) =       1.159859 [THz] =      38.688720 [cm-1]
     freq (    5) =       2.946021 [THz] =      98.268674 [cm-1]
     freq (    6) =       2.946568 [THz] =      98.286942 [cm-1]
 **************************************************************************

     Mode symmetry, D_3h (-62m) point group:

     freq (  1 -  2) =         37.4  [cm-1]   --> E'                 
     freq (  3 -  4) =         38.7  [cm-1]   --> E''                
     freq (  5 -  5) =         98.3  [cm-1]   --> A'_1               
     freq (  6 -  6) =         98.3  [cm-1]   --> A''2               

     Calculation of q =    0.0000000   0.2886751   0.0000000
 
     Parallelization info
     --------------------
     sticks:   dense  smooth     PW     G-vecs:    dense   smooth      PW
     Min         133      68     21                 5855     2064     375
     Max         134      69     22                 5864     2077     381
     Sum        1069     547    169                46889    16577    3027
 


     bravais-lattice index     =            4
     lattice parameter (alat)  =       7.0080  a.u.
     unit-cell volume          =     485.9852 (a.u.)^3
     number of atoms/cell      =            2
     number of atomic types    =            1
     number of electrons       =        18.00
     number of Kohn-Sham states=           13
     kinetic-energy cutoff     =      40.0000  Ry
     charge density cutoff     =     320.0000  Ry
     Exchange-correlation      = SLA  PW   PBE  PBE ( 1  4  3  4 0 0)

     celldm(1)=   7.008000  celldm(2)=   0.000000  celldm(3)=   1.630460
     celldm(4)=   0.000000  celldm(5)=   0.000000  celldm(6)=   0.000000

     crystal axes: (cart. coord. in units of alat)
               a(1) = (   1.000000   0.000000   0.000000 )  
               a(2) = (  -0.500000   0.866025   0.000000 )  
               a(3) = (   0.000000   0.000000   1.630460 )  

     reciprocal axes: (cart. coord. in units 2 pi/alat)
               b(1) = (  1.000000  0.577350  0.000000 )  
               b(2) = (  0.000000  1.154701  0.000000 )  
               b(3) = (  0.000000  0.000000  0.613324 )  


     PseudoPot. # 1 for Na read from file:
     ./Na_pbe_v1.uspp.F.UPF
     MD5 check sum: 76a99c7e9422403d3e93cbc85ab7bccb
     Pseudo is Ultrasoft, Zval =  9.0
     Generated by new atomic code, or converted to UPF format
     Using radial grid of  819 points,  5 beta functions with: 
                l(1) =   0
                l(2) =   0
                l(3) =   1
                l(4) =   1
                l(5) =   2
     Q(r) pseudized with  8 coefficients,  rinner =    1.250   1.250   1.250
                                                       1.250   1.250

     atomic species   valence    mass     pseudopotential
        Na             9.00    22.99000     Na( 1.00)

     12 Sym. Ops. (no inversion) found



   Cartesian axes

     site n.     atom                  positions (alat units)
         1           Na  tau(   1) = (   0.0000000   0.0000000   0.0000000  )
         2           Na  tau(   2) = (   0.4999999   0.2886751   0.8152300  )

     number of k points=  3600  Marzari-Vanderbilt smearing, width (Ry)=  0.0200

     Number of k-points >= 100: set verbosity='high' to print them.

     Dense  grid:    46889 G-vectors     FFT dimensions: (  40,  40,  72)

     Smooth grid:    16577 G-vectors     FFT dimensions: (  30,  30,  48)

     Largest allocated arrays     est. size (Mb)     dimensions
        Kohn-Sham Wavefunctions         0.05 Mb     (     273,   13)
        NL pseudopotentials             0.11 Mb     (     273,   26)
        Each V/rho on FFT grid          0.22 Mb     (   14400)
        Each G-vector array             0.04 Mb     (    5857)
        G-vector shells                 0.01 Mb     (    1828)
     Largest temporary arrays     est. size (Mb)     dimensions
        Auxiliary wavefunctions         0.22 Mb     (     273,   52)
        Each subspace H/S matrix        0.01 Mb     (      26,   26)
        Each <psi_i|beta_j> matrix      0.01 Mb     (      26,   13)

     The potential is recalculated from file :
     ./na_hcp_7.008/_ph0/na_hcp_7.008.save/charge-density.dat

     Starting wfc are   10 atomic +    3 random wfc

     Band Structure Calculation
     Davidson diagonalization with overlap

     ethr =  5.56E-11,  avg # of iterations = 22.8

     total cpu time spent up to now is       32.7 secs

     End of band structure calculation

     Number of k-points >= 100: set verbosity='high' to print the bands.

     the Fermi energy is     1.7268 ev

     Writing output data file na_hcp_7.008.save

                                                                                

     bravais-lattice index     =            4
     lattice parameter (alat)  =       7.0080  a.u.
     unit-cell volume          =     485.9852 (a.u.)^3
     number of atoms/cell      =            2
     number of atomic types    =            1
     kinetic-energy cut-off    =      40.0000  Ry
     charge density cut-off    =     320.0000  Ry
     convergence threshold     =      1.0E-15
     beta                      =       0.7000
     number of iterations used =            4
     Exchange-correlation      = SLA  PW   PBE  PBE ( 1  4  3  4 0 0)


     celldm(1)=    7.00800  celldm(2)=    0.00000  celldm(3)=    1.63046
     celldm(4)=    0.00000  celldm(5)=    0.00000  celldm(6)=    0.00000

     crystal axes: (cart. coord. in units of alat)
               a(1) = (  1.0000  0.0000  0.0000 )  
               a(2) = ( -0.5000  0.8660  0.0000 )  
               a(3) = (  0.0000  0.0000  1.6305 )  

     reciprocal axes: (cart. coord. in units 2 pi/alat)
               b(1) = (  1.0000  0.5774  0.0000 )  
               b(2) = (  0.0000  1.1547  0.0000 )  
               b(3) = (  0.0000  0.0000  0.6133 )  


     Atoms inside the unit cell: 

     Cartesian axes

     site n.  atom      mass           positions (alat units)
        1     Na  22.9900   tau(    1) = (    0.00000    0.00000    0.00000  )
        2     Na  22.9900   tau(    2) = (    0.50000    0.28868    0.81523  )

     Computing dynamical matrix for 
                    q = (   0.0000000   0.2886751   0.0000000 )
 
      4 Sym.Ops. (no q -> -q+G )


     G cutoff =  398.0874  (   5857 G-vectors)     FFT grid: ( 40, 40, 72)
     G cutoff =  199.0437  (   2076 G-vectors)  smooth grid: ( 30, 30, 48)

     number of k points=  3600  Marzari-Vanderbilt smearing, width (Ry)=  0.0200

     PseudoPot. # 1 for Na read from file:
     ./Na_pbe_v1.uspp.F.UPF
     MD5 check sum: 76a99c7e9422403d3e93cbc85ab7bccb
     Pseudo is Ultrasoft, Zval =  9.0
     Generated by new atomic code, or converted to UPF format
     Using radial grid of  819 points,  5 beta functions with: 
                l(1) =   0
                l(2) =   0
                l(3) =   1
                l(4) =   1
                l(5) =   2
     Q(r) pseudized with  8 coefficients,  rinner =    1.250   1.250   1.250
                                                       1.250   1.250

     Mode symmetry, C_2v (mm2)  point group:


     Atomic displacements:
     There are   6 irreducible representations

     Representation     1      1 modes -A_1  D_1  S_1  To be done

     Representation     2      1 modes -A_1  D_1  S_1  To be done

     Representation     3      1 modes -B_1  D_3  S_3  To be done

     Representation     4      1 modes -B_1  D_3  S_3  To be done

     Representation     5      1 modes -B_2  D_4  S_4  To be done

     Representation     6      1 modes -B_2  D_4  S_4  To be done



     Alpha used in Ewald sum =   2.8000
     PHONON       :  5m18.01s CPU     6m32.82s WALL



     Representation #  1 mode #   1

     Self-consistent Calculation

      iter #   1 total cpu time :   394.4 secs   av.it.:   5.7
      thresh= 1.000E-02 alpha_mix =  0.700 |ddv_scf|^2 =  6.996E-04

      iter #   2 total cpu time :   399.0 secs   av.it.:   7.2
      thresh= 2.645E-03 alpha_mix =  0.700 |ddv_scf|^2 =  2.482E-02

      iter #   3 total cpu time :   403.4 secs   av.it.:   5.4
      thresh= 1.000E-02 alpha_mix =  0.700 |ddv_scf|^2 =  5.994E-07

      iter #   4 total cpu time :   413.7 secs   av.it.:   8.1
      thresh= 7.742E-05 alpha_mix =  0.700 |ddv_scf|^2 =  3.331E-08

      iter #   5 total cpu time :   417.4 secs   av.it.:   8.2
      thresh= 1.825E-05 alpha_mix =  0.700 |ddv_scf|^2 =  8.228E-10

      iter #   6 total cpu time :   420.6 secs   av.it.:   8.7
      thresh= 2.868E-06 alpha_mix =  0.700 |ddv_scf|^2 =  1.473E-10

      iter #   7 total cpu time :   424.4 secs   av.it.:   8.0
      thresh= 1.214E-06 alpha_mix =  0.700 |ddv_scf|^2 =  1.821E-09

      iter #   8 total cpu time :   431.4 secs   av.it.:   6.5
      thresh= 4.267E-06 alpha_mix =  0.700 |ddv_scf|^2 =  3.850E-12

      iter #   9 total cpu time :   435.4 secs   av.it.:   8.6
      thresh= 1.962E-07 alpha_mix =  0.700 |ddv_scf|^2 =  6.970E-13

      iter #  10 total cpu time :   440.0 secs   av.it.:   7.6
      thresh= 8.349E-08 alpha_mix =  0.700 |ddv_scf|^2 =  2.289E-12

      iter #  11 total cpu time :   443.7 secs   av.it.:   6.9
      thresh= 1.513E-07 alpha_mix =  0.700 |ddv_scf|^2 =  2.000E-15

      iter #  12 total cpu time :   447.6 secs   av.it.:   8.8
      thresh= 4.473E-09 alpha_mix =  0.700 |ddv_scf|^2 =  1.210E-16

     End of self-consistent calculation

     Convergence has been achieved 


     Representation #  2 mode #   2

     Self-consistent Calculation

      iter #   1 total cpu time :   451.9 secs   av.it.:   5.7
      thresh= 1.000E-02 alpha_mix =  0.700 |ddv_scf|^2 =  6.996E-04

      iter #   2 total cpu time :   455.6 secs   av.it.:   7.2
      thresh= 2.645E-03 alpha_mix =  0.700 |ddv_scf|^2 =  2.482E-02

      iter #   3 total cpu time :   459.1 secs   av.it.:   5.4
      thresh= 1.000E-02 alpha_mix =  0.700 |ddv_scf|^2 =  5.994E-07

      iter #   4 total cpu time :   463.0 secs   av.it.:   8.1
      thresh= 7.742E-05 alpha_mix =  0.700 |ddv_scf|^2 =  3.335E-08

      iter #   5 total cpu time :   470.1 secs   av.it.:   8.2
      thresh= 1.826E-05 alpha_mix =  0.700 |ddv_scf|^2 =  8.254E-10

      iter #   6 total cpu time :   476.6 secs   av.it.:   8.7
      thresh= 2.873E-06 alpha_mix =  0.700 |ddv_scf|^2 =  1.465E-10

      iter #   7 total cpu time :   483.7 secs   av.it.:   8.0
      thresh= 1.210E-06 alpha_mix =  0.700 |ddv_scf|^2 =  1.820E-09

      iter #   8 total cpu time :   489.6 secs   av.it.:   6.5
      thresh= 4.266E-06 alpha_mix =  0.700 |ddv_scf|^2 =  3.870E-12

      iter #   9 total cpu time :   495.7 secs   av.it.:   8.6
      thresh= 1.967E-07 alpha_mix =  0.700 |ddv_scf|^2 =  6.991E-13

      iter #  10 total cpu time :   499.8 secs   av.it.:   7.6
      thresh= 8.361E-08 alpha_mix =  0.700 |ddv_scf|^2 =  2.282E-12

      iter #  11 total cpu time :   506.2 secs   av.it.:   6.9
      thresh= 1.511E-07 alpha_mix =  0.700 |ddv_scf|^2 =  1.998E-15

      iter #  12 total cpu time :   510.9 secs   av.it.:   8.8
      thresh= 4.470E-09 alpha_mix =  0.700 |ddv_scf|^2 =  1.206E-16

     End of self-consistent calculation

     Convergence has been achieved 


     Representation #  3 mode #   3

     Self-consistent Calculation

      iter #   1 total cpu time :   517.1 secs   av.it.:   5.3
      thresh= 1.000E-02 alpha_mix =  0.700 |ddv_scf|^2 =  4.056E-06

      iter #   2 total cpu time :   522.4 secs   av.it.:   8.3
      thresh= 2.014E-04 alpha_mix =  0.700 |ddv_scf|^2 =  6.497E-08

      iter #   3 total cpu time :   527.3 secs   av.it.:   8.5
      thresh= 2.549E-05 alpha_mix =  0.700 |ddv_scf|^2 =  2.923E-09

      iter #   4 total cpu time :   532.3 secs   av.it.:   8.1
      thresh= 5.406E-06 alpha_mix =  0.700 |ddv_scf|^2 =  1.751E-11

      iter #   5 total cpu time :   536.4 secs   av.it.:   8.1
      thresh= 4.184E-07 alpha_mix =  0.700 |ddv_scf|^2 =  1.299E-13

      iter #   6 total cpu time :   547.6 secs   av.it.:   8.5
      thresh= 3.604E-08 alpha_mix =  0.700 |ddv_scf|^2 =  4.569E-16

     End of self-consistent calculation

     Convergence has been achieved 


     Representation #  4 mode #   4

     Self-consistent Calculation

      iter #   1 total cpu time :   552.5 secs   av.it.:   5.3
      thresh= 1.000E-02 alpha_mix =  0.700 |ddv_scf|^2 =  4.056E-06

      iter #   2 total cpu time :   556.6 secs   av.it.:   8.3
      thresh= 2.014E-04 alpha_mix =  0.700 |ddv_scf|^2 =  6.500E-08

      iter #   3 total cpu time :   560.7 secs   av.it.:   8.5
      thresh= 2.550E-05 alpha_mix =  0.700 |ddv_scf|^2 =  2.932E-09

      iter #   4 total cpu time :   564.9 secs   av.it.:   8.1
      thresh= 5.415E-06 alpha_mix =  0.700 |ddv_scf|^2 =  1.747E-11

      iter #   5 total cpu time :   570.0 secs   av.it.:   8.1
      thresh= 4.179E-07 alpha_mix =  0.700 |ddv_scf|^2 =  1.294E-13

      iter #   6 total cpu time :   574.9 secs   av.it.:   8.5
      thresh= 3.597E-08 alpha_mix =  0.700 |ddv_scf|^2 =  4.569E-16

     End of self-consistent calculation

     Convergence has been achieved 


     Representation #  5 mode #   5

     Self-consistent Calculation

      iter #   1 total cpu time :   581.8 secs   av.it.:   5.5
      thresh= 1.000E-02 alpha_mix =  0.700 |ddv_scf|^2 =  1.119E-05

      iter #   2 total cpu time :   589.2 secs   av.it.:   8.4
      thresh= 3.345E-04 alpha_mix =  0.700 |ddv_scf|^2 =  2.357E-06

      iter #   3 total cpu time :   595.0 secs   av.it.:   7.6
      thresh= 1.535E-04 alpha_mix =  0.700 |ddv_scf|^2 =  1.368E-08

      iter #   4 total cpu time :   599.8 secs   av.it.:   8.6
      thresh= 1.170E-05 alpha_mix =  0.700 |ddv_scf|^2 =  4.652E-10

      iter #   5 total cpu time :   605.1 secs   av.it.:   8.1
      thresh= 2.157E-06 alpha_mix =  0.700 |ddv_scf|^2 =  2.722E-12

      iter #   6 total cpu time :   610.2 secs   av.it.:   8.5
      thresh= 1.650E-07 alpha_mix =  0.700 |ddv_scf|^2 =  1.421E-14

      iter #   7 total cpu time :   615.5 secs   av.it.:   8.2
      thresh= 1.192E-08 alpha_mix =  0.700 |ddv_scf|^2 =  6.591E-16

     End of self-consistent calculation

     Convergence has been achieved 


     Representation #  6 mode #   6

     Self-consistent Calculation

      iter #   1 total cpu time :   621.2 secs   av.it.:   5.5
      thresh= 1.000E-02 alpha_mix =  0.700 |ddv_scf|^2 =  1.119E-05

      iter #   2 total cpu time :   626.3 secs   av.it.:   8.4
      thresh= 3.345E-04 alpha_mix =  0.700 |ddv_scf|^2 =  2.357E-06

      iter #   3 total cpu time :   631.4 secs   av.it.:   7.6
      thresh= 1.535E-04 alpha_mix =  0.700 |ddv_scf|^2 =  1.368E-08

      iter #   4 total cpu time :   635.5 secs   av.it.:   8.6
      thresh= 1.170E-05 alpha_mix =  0.700 |ddv_scf|^2 =  4.652E-10

      iter #   5 total cpu time :   642.4 secs   av.it.:   8.1
      thresh= 2.157E-06 alpha_mix =  0.700 |ddv_scf|^2 =  2.721E-12

      iter #   6 total cpu time :   648.1 secs   av.it.:   8.5
      thresh= 1.650E-07 alpha_mix =  0.700 |ddv_scf|^2 =  1.421E-14

      iter #   7 total cpu time :   654.2 secs   av.it.:   8.2
      thresh= 1.192E-08 alpha_mix =  0.700 |ddv_scf|^2 =  6.591E-16

     End of self-consistent calculation

     Convergence has been achieved 
 
     Number of q in the star =    3
     List of q in the star:
          1   0.000000000   0.288675135   0.000000000
          2   0.250000000  -0.144337567   0.000000000
          3  -0.250000000  -0.144337567   0.000000000
     In addition there is the -q list: 
          1   0.000000000  -0.288675135   0.000000000
          2  -0.250000000   0.144337567   0.000000000
          3   0.250000000   0.144337567   0.000000000

     Diagonalizing the dynamical matrix

     q = (    0.000000000   0.288675135   0.000000000 ) 

 **************************************************************************
     freq (    1) =       1.158954 [THz] =      38.658543 [cm-1]
     freq (    2) =       1.429641 [THz] =      47.687674 [cm-1]
     freq (    3) =       2.424807 [THz] =      80.882857 [cm-1]
     freq (    4) =       2.579527 [THz] =      86.043769 [cm-1]
     freq (    5) =       3.153352 [THz] =     105.184516 [cm-1]
     freq (    6) =       3.771719 [THz] =     125.811014 [cm-1]
 **************************************************************************

     Mode symmetry, C_2v (mm2)  point group:

     freq (  1 -  1) =         38.7  [cm-1]   --> B_1  D_3  S_3      
     freq (  2 -  2) =         47.7  [cm-1]   --> B_2  D_4  S_4      
     freq (  3 -  3) =         80.9  [cm-1]   --> B_1  D_3  S_3      
     freq (  4 -  4) =         86.0  [cm-1]   --> A_1  D_1  S_1      
     freq (  5 -  5) =        105.2  [cm-1]   --> A_1  D_1  S_1      
     freq (  6 -  6) =        125.8  [cm-1]   --> B_2  D_4  S_4      

     Calculation of q =    0.0000000   0.2886751   0.1533310
 
     Parallelization info
     --------------------
     sticks:   dense  smooth     PW     G-vecs:    dense   smooth      PW
     Min         133      68     21                 5855     2068     377
     Max         134      69     22                 5864     2076     383
     Sum        1069     547    169                46889    16577    3039
 


     bravais-lattice index     =            4
     lattice parameter (alat)  =       7.0080  a.u.
     unit-cell volume          =     485.9852 (a.u.)^3
     number of atoms/cell      =            2
     number of atomic types    =            1
     number of electrons       =        18.00
     number of Kohn-Sham states=           13
     kinetic-energy cutoff     =      40.0000  Ry
     charge density cutoff     =     320.0000  Ry
     Exchange-correlation      = SLA  PW   PBE  PBE ( 1  4  3  4 0 0)

     celldm(1)=   7.008000  celldm(2)=   0.000000  celldm(3)=   1.630460
     celldm(4)=   0.000000  celldm(5)=   0.000000  celldm(6)=   0.000000

     crystal axes: (cart. coord. in units of alat)
               a(1) = (   1.000000   0.000000   0.000000 )  
               a(2) = (  -0.500000   0.866025   0.000000 )  
               a(3) = (   0.000000   0.000000   1.630460 )  

     reciprocal axes: (cart. coord. in units 2 pi/alat)
               b(1) = (  1.000000  0.577350  0.000000 )  
               b(2) = (  0.000000  1.154701  0.000000 )  
               b(3) = (  0.000000  0.000000  0.613324 )  


     PseudoPot. # 1 for Na read from file:
     ./Na_pbe_v1.uspp.F.UPF
     MD5 check sum: 76a99c7e9422403d3e93cbc85ab7bccb
     Pseudo is Ultrasoft, Zval =  9.0
     Generated by new atomic code, or converted to UPF format
     Using radial grid of  819 points,  5 beta functions with: 
                l(1) =   0
                l(2) =   0
                l(3) =   1
                l(4) =   1
                l(5) =   2
     Q(r) pseudized with  8 coefficients,  rinner =    1.250   1.250   1.250
                                                       1.250   1.250

     atomic species   valence    mass     pseudopotential
        Na             9.00    22.99000     Na( 1.00)

     12 Sym. Ops. (no inversion) found



   Cartesian axes

     site n.     atom                  positions (alat units)
         1           Na  tau(   1) = (   0.0000000   0.0000000   0.0000000  )
         2           Na  tau(   2) = (   0.4999999   0.2886751   0.8152300  )

     number of k points=  7200  Marzari-Vanderbilt smearing, width (Ry)=  0.0200

     Number of k-points >= 100: set verbosity='high' to print them.

     Dense  grid:    46889 G-vectors     FFT dimensions: (  40,  40,  72)

     Smooth grid:    16577 G-vectors     FFT dimensions: (  30,  30,  48)

     Largest allocated arrays     est. size (Mb)     dimensions
        Kohn-Sham Wavefunctions         0.05 Mb     (     276,   13)
        NL pseudopotentials             0.11 Mb     (     276,   26)
        Each V/rho on FFT grid          0.22 Mb     (   14400)
        Each G-vector array             0.04 Mb     (    5857)
        G-vector shells                 0.01 Mb     (    1891)
     Largest temporary arrays     est. size (Mb)     dimensions
        Auxiliary wavefunctions         0.22 Mb     (     276,   52)
        Each subspace H/S matrix        0.01 Mb     (      26,   26)
        Each <psi_i|beta_j> matrix      0.01 Mb     (      26,   13)

     The potential is recalculated from file :
     ./na_hcp_7.008/_ph0/na_hcp_7.008.save/charge-density.dat

     Starting wfc are   10 atomic +    3 random wfc

     Band Structure Calculation
     Davidson diagonalization with overlap

     ethr =  5.56E-11,  avg # of iterations = 22.8

     total cpu time spent up to now is       66.1 secs

     End of band structure calculation

     Number of k-points >= 100: set verbosity='high' to print the bands.

     the Fermi energy is     1.7268 ev

     Writing output data file na_hcp_7.008.save

                                                                                

     bravais-lattice index     =            4
     lattice parameter (alat)  =       7.0080  a.u.
     unit-cell volume          =     485.9852 (a.u.)^3
     number of atoms/cell      =            2
     number of atomic types    =            1
     kinetic-energy cut-off    =      40.0000  Ry
     charge density cut-off    =     320.0000  Ry
     convergence threshold     =      1.0E-15
     beta                      =       0.7000
     number of iterations used =            4
     Exchange-correlation      = SLA  PW   PBE  PBE ( 1  4  3  4 0 0)


     celldm(1)=    7.00800  celldm(2)=    0.00000  celldm(3)=    1.63046
     celldm(4)=    0.00000  celldm(5)=    0.00000  celldm(6)=    0.00000

     crystal axes: (cart. coord. in units of alat)
               a(1) = (  1.0000  0.0000  0.0000 )  
               a(2) = ( -0.5000  0.8660  0.0000 )  
               a(3) = (  0.0000  0.0000  1.6305 )  

     reciprocal axes: (cart. coord. in units 2 pi/alat)
               b(1) = (  1.0000  0.5774  0.0000 )  
               b(2) = (  0.0000  1.1547  0.0000 )  
               b(3) = (  0.0000  0.0000  0.6133 )  


     Atoms inside the unit cell: 

     Cartesian axes

     site n.  atom      mass           positions (alat units)
        1     Na  22.9900   tau(    1) = (    0.00000    0.00000    0.00000  )
        2     Na  22.9900   tau(    2) = (    0.50000    0.28868    0.81523  )

     Computing dynamical matrix for 
                    q = (   0.0000000   0.2886751   0.1533310 )
 
      2 Sym.Ops. (no q -> -q+G )


     G cutoff =  398.0874  (   5857 G-vectors)     FFT grid: ( 40, 40, 72)
     G cutoff =  199.0437  (   2076 G-vectors)  smooth grid: ( 30, 30, 48)

     number of k points=  7200  Marzari-Vanderbilt smearing, width (Ry)=  0.0200

     PseudoPot. # 1 for Na read from file:
     ./Na_pbe_v1.uspp.F.UPF
     MD5 check sum: 76a99c7e9422403d3e93cbc85ab7bccb
     Pseudo is Ultrasoft, Zval =  9.0
     Generated by new atomic code, or converted to UPF format
     Using radial grid of  819 points,  5 beta functions with: 
                l(1) =   0
                l(2) =   0
                l(3) =   1
                l(4) =   1
                l(5) =   2
     Q(r) pseudized with  8 coefficients,  rinner =    1.250   1.250   1.250
                                                       1.250   1.250

     Mode symmetry, C_s (m)     point group:


     Atomic displacements:
     There are   6 irreducible representations

     Representation     1      1 modes -A'  To be done

     Representation     2      1 modes -A'  To be done

     Representation     3      1 modes -A'  To be done

     Representation     4      1 modes -A'  To be done

     Representation     5      1 modes -A''  To be done

     Representation     6      1 modes -A''  To be done



     Alpha used in Ewald sum =   2.8000
     PHONON       :  9m45.47s CPU    11m36.52s WALL



     Representation #  1 mode #   1

     Self-consistent Calculation

      iter #   1 total cpu time :   701.8 secs   av.it.:   5.7
      thresh= 1.000E-02 alpha_mix =  0.700 |ddv_scf|^2 =  2.741E-04

      iter #   2 total cpu time :   712.1 secs   av.it.:   7.5
      thresh= 1.656E-03 alpha_mix =  0.700 |ddv_scf|^2 =  5.389E-03

      iter #   3 total cpu time :   721.8 secs   av.it.:   5.4
      thresh= 7.341E-03 alpha_mix =  0.700 |ddv_scf|^2 =  2.470E-06

      iter #   4 total cpu time :   730.5 secs   av.it.:   7.7
      thresh= 1.572E-04 alpha_mix =  0.700 |ddv_scf|^2 =  3.481E-07

      iter #   5 total cpu time :   740.4 secs   av.it.:   7.7
      thresh= 5.900E-05 alpha_mix =  0.700 |ddv_scf|^2 =  1.567E-09

      iter #   6 total cpu time :   759.6 secs   av.it.:   8.7
      thresh= 3.958E-06 alpha_mix =  0.700 |ddv_scf|^2 =  7.720E-11

      iter #   7 total cpu time :   768.1 secs   av.it.:   8.6
      thresh= 8.786E-07 alpha_mix =  0.700 |ddv_scf|^2 =  7.883E-11

      iter #   8 total cpu time :   783.3 secs   av.it.:   7.2
      thresh= 8.879E-07 alpha_mix =  0.700 |ddv_scf|^2 =  4.593E-11

      iter #   9 total cpu time :   796.5 secs   av.it.:   7.6
      thresh= 6.777E-07 alpha_mix =  0.700 |ddv_scf|^2 =  7.374E-13

      iter #  10 total cpu time :   803.2 secs   av.it.:   8.0
      thresh= 8.587E-08 alpha_mix =  0.700 |ddv_scf|^2 =  9.169E-13

      iter #  11 total cpu time :   819.2 secs   av.it.:   7.4
      thresh= 9.576E-08 alpha_mix =  0.700 |ddv_scf|^2 =  8.136E-15

      iter #  12 total cpu time :   834.5 secs   av.it.:   8.4
      thresh= 9.020E-09 alpha_mix =  0.700 |ddv_scf|^2 =  3.001E-15

      iter #  13 total cpu time :   847.0 secs   av.it.:   8.1
      thresh= 5.478E-09 alpha_mix =  0.700 |ddv_scf|^2 =  9.460E-16

     End of self-consistent calculation

     Convergence has been achieved 


     Representation #  2 mode #   2

     Self-consistent Calculation

      iter #   1 total cpu time :   862.9 secs   av.it.:   5.7
      thresh= 1.000E-02 alpha_mix =  0.700 |ddv_scf|^2 =  4.696E-05

      iter #   2 total cpu time :   873.0 secs   av.it.:   7.8
      thresh= 6.853E-04 alpha_mix =  0.700 |ddv_scf|^2 =  5.631E-04

      iter #   3 total cpu time :   884.6 secs   av.it.:   5.8
      thresh= 2.373E-03 alpha_mix =  0.700 |ddv_scf|^2 =  1.818E-05

      iter #   4 total cpu time :   897.1 secs   av.it.:   7.1
      thresh= 4.264E-04 alpha_mix =  0.700 |ddv_scf|^2 =  8.610E-08

      iter #   5 total cpu time :   907.6 secs   av.it.:   8.5
      thresh= 2.934E-05 alpha_mix =  0.700 |ddv_scf|^2 =  9.862E-10

      iter #   6 total cpu time :   921.1 secs   av.it.:   8.8
      thresh= 3.140E-06 alpha_mix =  0.700 |ddv_scf|^2 =  8.169E-11

      iter #   7 total cpu time :   933.5 secs   av.it.:   8.7
      thresh= 9.038E-07 alpha_mix =  0.700 |ddv_scf|^2 =  5.728E-11

      iter #   8 total cpu time :   942.3 secs   av.it.:   7.7
      thresh= 7.569E-07 alpha_mix =  0.700 |ddv_scf|^2 =  1.856E-10

      iter #   9 total cpu time :   954.4 secs   av.it.:   6.9
      thresh= 1.362E-06 alpha_mix =  0.700 |ddv_scf|^2 =  4.780E-12

      iter #  10 total cpu time :   967.6 secs   av.it.:   7.6
      thresh= 2.186E-07 alpha_mix =  0.700 |ddv_scf|^2 =  3.525E-12

      iter #  11 total cpu time :   977.9 secs   av.it.:   7.6
      thresh= 1.877E-07 alpha_mix =  0.700 |ddv_scf|^2 =  1.895E-14

      iter #  12 total cpu time :   991.1 secs   av.it.:   8.1
      thresh= 1.377E-08 alpha_mix =  0.700 |ddv_scf|^2 =  3.464E-15

      iter #  13 total cpu time :  1005.2 secs   av.it.:   8.6
      thresh= 5.885E-09 alpha_mix =  0.700 |ddv_scf|^2 =  7.855E-17

     End of self-consistent calculation

     Convergence has been achieved 


     Representation #  3 mode #   3

     Self-consistent Calculation

      iter #   1 total cpu time :  1018.7 secs   av.it.:   5.8
      thresh= 1.000E-02 alpha_mix =  0.700 |ddv_scf|^2 =  3.139E-04

      iter #   2 total cpu time :  1037.9 secs   av.it.:   7.5
      thresh= 1.772E-03 alpha_mix =  0.700 |ddv_scf|^2 =  6.256E-03

      iter #   3 total cpu time :  1048.8 secs   av.it.:   5.4
      thresh= 7.910E-03 alpha_mix =  0.700 |ddv_scf|^2 =  8.068E-07

      iter #   4 total cpu time :  1066.0 secs   av.it.:   7.9
      thresh= 8.982E-05 alpha_mix =  0.700 |ddv_scf|^2 =  3.647E-07

      iter #   5 total cpu time :  1079.7 secs   av.it.:   7.6
      thresh= 6.039E-05 alpha_mix =  0.700 |ddv_scf|^2 =  1.930E-09

      iter #   6 total cpu time :  1097.1 secs   av.it.:   8.7
      thresh= 4.393E-06 alpha_mix =  0.700 |ddv_scf|^2 =  9.367E-11

      iter #   7 total cpu time :  1112.0 secs   av.it.:   8.5
      thresh= 9.678E-07 alpha_mix =  0.700 |ddv_scf|^2 =  4.132E-12

      iter #   8 total cpu time :  1121.1 secs   av.it.:   8.8
      thresh= 2.033E-07 alpha_mix =  0.700 |ddv_scf|^2 =  2.777E-11

      iter #   9 total cpu time :  1136.3 secs   av.it.:   6.9
      thresh= 5.270E-07 alpha_mix =  0.700 |ddv_scf|^2 =  1.267E-12

      iter #  10 total cpu time :  1148.3 secs   av.it.:   8.0
      thresh= 1.126E-07 alpha_mix =  0.700 |ddv_scf|^2 =  7.235E-13

      iter #  11 total cpu time :  1158.7 secs   av.it.:   7.0
      thresh= 8.506E-08 alpha_mix =  0.700 |ddv_scf|^2 =  1.928E-14

      iter #  12 total cpu time :  1171.4 secs   av.it.:   8.1
      thresh= 1.389E-08 alpha_mix =  0.700 |ddv_scf|^2 =  3.060E-15

      iter #  13 total cpu time :  1182.7 secs   av.it.:   8.0
      thresh= 5.532E-09 alpha_mix =  0.700 |ddv_scf|^2 =  2.036E-16

     End of self-consistent calculation

     Convergence has been achieved 


     Representation #  4 mode #   4

     Self-consistent Calculation

      iter #   1 total cpu time :  1191.7 secs   av.it.:   5.7
      thresh= 1.000E-02 alpha_mix =  0.700 |ddv_scf|^2 =  8.676E-05

      iter #   2 total cpu time :  1203.5 secs   av.it.:   7.8
      thresh= 9.314E-04 alpha_mix =  0.700 |ddv_scf|^2 =  1.430E-03

      iter #   3 total cpu time :  1215.7 secs   av.it.:   5.6
      thresh= 3.781E-03 alpha_mix =  0.700 |ddv_scf|^2 =  9.047E-06

      iter #   4 total cpu time :  1225.2 secs   av.it.:   7.4
      thresh= 3.008E-04 alpha_mix =  0.700 |ddv_scf|^2 =  1.362E-07

      iter #   5 total cpu time :  1239.9 secs   av.it.:   8.1
      thresh= 3.690E-05 alpha_mix =  0.700 |ddv_scf|^2 =  1.120E-09

      iter #   6 total cpu time :  1256.0 secs   av.it.:   8.8
      thresh= 3.347E-06 alpha_mix =  0.700 |ddv_scf|^2 =  9.582E-11

      iter #   7 total cpu time :  1271.9 secs   av.it.:   8.7
      thresh= 9.789E-07 alpha_mix =  0.700 |ddv_scf|^2 =  3.981E-11

      iter #   8 total cpu time :  1289.7 secs   av.it.:   8.0
      thresh= 6.310E-07 alpha_mix =  0.700 |ddv_scf|^2 =  2.963E-10

      iter #   9 total cpu time :  1307.3 secs   av.it.:   6.6
      thresh= 1.721E-06 alpha_mix =  0.700 |ddv_scf|^2 =  5.134E-12

      iter #  10 total cpu time :  1322.4 secs   av.it.:   7.6
      thresh= 2.266E-07 alpha_mix =  0.700 |ddv_scf|^2 =  2.967E-12

      iter #  11 total cpu time :  1332.4 secs   av.it.:   7.6
      thresh= 1.723E-07 alpha_mix =  0.700 |ddv_scf|^2 =  2.179E-14

      iter #  12 total cpu time :  1346.0 secs   av.it.:   8.0
      thresh= 1.476E-08 alpha_mix =  0.700 |ddv_scf|^2 =  4.064E-15

      iter #  13 total cpu time :  1361.2 secs   av.it.:   8.5
      thresh= 6.375E-09 alpha_mix =  0.700 |ddv_scf|^2 =  9.684E-17

     End of self-consistent calculation

     Convergence has been achieved 


     Representation #  5 mode #   5

     Self-consistent Calculation

      iter #   1 total cpu time :  1373.5 secs   av.it.:   5.3
      thresh= 1.000E-02 alpha_mix =  0.700 |ddv_scf|^2 =  4.047E-06

      iter #   2 total cpu time :  1389.5 secs   av.it.:   8.3
      thresh= 2.012E-04 alpha_mix =  0.700 |ddv_scf|^2 =  6.475E-08

      iter #   3 total cpu time :  1399.3 secs   av.it.:   8.5
      thresh= 2.545E-05 alpha_mix =  0.700 |ddv_scf|^2 =  2.937E-09

      iter #   4 total cpu time :  1409.8 secs   av.it.:   8.0
      thresh= 5.420E-06 alpha_mix =  0.700 |ddv_scf|^2 =  1.358E-11

      iter #   5 total cpu time :  1422.1 secs   av.it.:   8.3
      thresh= 3.685E-07 alpha_mix =  0.700 |ddv_scf|^2 =  9.674E-14

      iter #   6 total cpu time :  1431.5 secs   av.it.:   8.5
      thresh= 3.110E-08 alpha_mix =  0.700 |ddv_scf|^2 =  4.363E-16

     End of self-consistent calculation

     Convergence has been achieved 


     Representation #  6 mode #   6

     Self-consistent Calculation

      iter #   1 total cpu time :  1444.2 secs   av.it.:   5.3
      thresh= 1.000E-02 alpha_mix =  0.700 |ddv_scf|^2 =  4.047E-06

      iter #   2 total cpu time :  1454.9 secs   av.it.:   8.3
      thresh= 2.012E-04 alpha_mix =  0.700 |ddv_scf|^2 =  6.479E-08

      iter #   3 total cpu time :  1465.5 secs   av.it.:   8.5
      thresh= 2.545E-05 alpha_mix =  0.700 |ddv_scf|^2 =  2.947E-09

      iter #   4 total cpu time :  1476.0 secs   av.it.:   8.0
      thresh= 5.428E-06 alpha_mix =  0.700 |ddv_scf|^2 =  1.354E-11

      iter #   5 total cpu time :  1492.1 secs   av.it.:   8.3
      thresh= 3.679E-07 alpha_mix =  0.700 |ddv_scf|^2 =  9.648E-14

      iter #   6 total cpu time :  1503.0 secs   av.it.:   8.5
      thresh= 3.106E-08 alpha_mix =  0.700 |ddv_scf|^2 =  4.362E-16

     End of self-consistent calculation

     Convergence has been achieved 
 
     Number of q in the star =    6
     List of q in the star:
          1   0.000000000   0.288675135   0.153330962
          2   0.000000000   0.288675135  -0.153330962
          3   0.250000000  -0.144337567   0.153330962
          4  -0.250000000  -0.144337567   0.153330962
          5   0.250000000  -0.144337567  -0.153330962
          6  -0.250000000  -0.144337567  -0.153330962
     In addition there is the -q list: 
          1   0.000000000  -0.288675135  -0.153330962
          2   0.000000000  -0.288675135   0.153330962
          3  -0.250000000   0.144337567  -0.153330962
          4   0.250000000   0.144337567  -0.153330962
          5  -0.250000000   0.144337567   0.153330962
          6   0.250000000   0.144337567   0.153330962

     Diagonalizing the dynamical matrix

     q = (    0.000000000   0.288675135   0.153330962 ) 

 **************************************************************************
     freq (    1) =       1.408226 [THz] =      46.973351 [cm-1]
     freq (    2) =       1.650801 [THz] =      55.064802 [cm-1]
     freq (    3) =       2.293791 [THz] =      76.512632 [cm-1]
     freq (    4) =       2.830965 [THz] =      94.430829 [cm-1]
     freq (    5) =       2.953703 [THz] =      98.524929 [cm-1]
     freq (    6) =       3.676900 [THz] =     122.648187 [cm-1]
 **************************************************************************

     Mode symmetry, C_s (m)     point group:

     freq (  1 -  1) =         47.0  [cm-1]   --> A''                
     freq (  2 -  2) =         55.1  [cm-1]   --> A'                 
     freq (  3 -  3) =         76.5  [cm-1]   --> A''                
     freq (  4 -  4) =         94.4  [cm-1]   --> A'                 
     freq (  5 -  5) =         98.5  [cm-1]   --> A'                 
     freq (  6 -  6) =        122.6  [cm-1]   --> A'                 

     Calculation of q =    0.0000000   0.2886751  -0.3066619
 
     Parallelization info
     --------------------
     sticks:   dense  smooth     PW     G-vecs:    dense   smooth      PW
     Min         133      68     21                 5855     2064     375
     Max         134      69     22                 5864     2077     381
     Sum        1069     547    169                46889    16577    3027
 


     bravais-lattice index     =            4
     lattice parameter (alat)  =       7.0080  a.u.
     unit-cell volume          =     485.9852 (a.u.)^3
     number of atoms/cell      =            2
     number of atomic types    =            1
     number of electrons       =        18.00
     number of Kohn-Sham states=           13
     kinetic-energy cutoff     =      40.0000  Ry
     charge density cutoff     =     320.0000  Ry
     Exchange-correlation      = SLA  PW   PBE  PBE ( 1  4  3  4 0 0)

     celldm(1)=   7.008000  celldm(2)=   0.000000  celldm(3)=   1.630460
     celldm(4)=   0.000000  celldm(5)=   0.000000  celldm(6)=   0.000000

     crystal axes: (cart. coord. in units of alat)
               a(1) = (   1.000000   0.000000   0.000000 )  
               a(2) = (  -0.500000   0.866025   0.000000 )  
               a(3) = (   0.000000   0.000000   1.630460 )  

     reciprocal axes: (cart. coord. in units 2 pi/alat)
               b(1) = (  1.000000  0.577350  0.000000 )  
               b(2) = (  0.000000  1.154701  0.000000 )  
               b(3) = (  0.000000  0.000000  0.613324 )  


     PseudoPot. # 1 for Na read from file:
     ./Na_pbe_v1.uspp.F.UPF
     MD5 check sum: 76a99c7e9422403d3e93cbc85ab7bccb
     Pseudo is Ultrasoft, Zval =  9.0
     Generated by new atomic code, or converted to UPF format
     Using radial grid of  819 points,  5 beta functions with: 
                l(1) =   0
                l(2) =   0
                l(3) =   1
                l(4) =   1
                l(5) =   2
     Q(r) pseudized with  8 coefficients,  rinner =    1.250   1.250   1.250
                                                       1.250   1.250

     atomic species   valence    mass     pseudopotential
        Na             9.00    22.99000     Na( 1.00)

     12 Sym. Ops. (no inversion) found



   Cartesian axes

     site n.     atom                  positions (alat units)
         1           Na  tau(   1) = (   0.0000000   0.0000000   0.0000000  )
         2           Na  tau(   2) = (   0.4999999   0.2886751   0.8152300  )

     number of k points=  3600  Marzari-Vanderbilt smearing, width (Ry)=  0.0200

     Number of k-points >= 100: set verbosity='high' to print them.

     Dense  grid:    46889 G-vectors     FFT dimensions: (  40,  40,  72)

     Smooth grid:    16577 G-vectors     FFT dimensions: (  30,  30,  48)

     Largest allocated arrays     est. size (Mb)     dimensions
        Kohn-Sham Wavefunctions         0.05 Mb     (     273,   13)
        NL pseudopotentials             0.11 Mb     (     273,   26)
        Each V/rho on FFT grid          0.22 Mb     (   14400)
        Each G-vector array             0.04 Mb     (    5857)
        G-vector shells                 0.01 Mb     (    1828)
     Largest temporary arrays     est. size (Mb)     dimensions
        Auxiliary wavefunctions         0.22 Mb     (     273,   52)
        Each subspace H/S matrix        0.01 Mb     (      26,   26)
        Each <psi_i|beta_j> matrix      0.01 Mb     (      26,   13)

     The potential is recalculated from file :
     ./na_hcp_7.008/_ph0/na_hcp_7.008.save/charge-density.dat

     Starting wfc are   10 atomic +    3 random wfc

     Band Structure Calculation
     Davidson diagonalization with overlap

     ethr =  5.56E-11,  avg # of iterations = 22.7

     total cpu time spent up to now is       88.4 secs

     End of band structure calculation

     Number of k-points >= 100: set verbosity='high' to print the bands.

     the Fermi energy is     1.7268 ev

     Writing output data file na_hcp_7.008.save

                                                                                

     bravais-lattice index     =            4
     lattice parameter (alat)  =       7.0080  a.u.
     unit-cell volume          =     485.9852 (a.u.)^3
     number of atoms/cell      =            2
     number of atomic types    =            1
     kinetic-energy cut-off    =      40.0000  Ry
     charge density cut-off    =     320.0000  Ry
     convergence threshold     =      1.0E-15
     beta                      =       0.7000
     number of iterations used =            4
     Exchange-correlation      = SLA  PW   PBE  PBE ( 1  4  3  4 0 0)


     celldm(1)=    7.00800  celldm(2)=    0.00000  celldm(3)=    1.63046
     celldm(4)=    0.00000  celldm(5)=    0.00000  celldm(6)=    0.00000

     crystal axes: (cart. coord. in units of alat)
               a(1) = (  1.0000  0.0000  0.0000 )  
               a(2) = ( -0.5000  0.8660  0.0000 )  
               a(3) = (  0.0000  0.0000  1.6305 )  

     reciprocal axes: (cart. coord. in units 2 pi/alat)
               b(1) = (  1.0000  0.5774  0.0000 )  
               b(2) = (  0.0000  1.1547  0.0000 )  
               b(3) = (  0.0000  0.0000  0.6133 )  


     Atoms inside the unit cell: 

     Cartesian axes

     site n.  atom      mass           positions (alat units)
        1     Na  22.9900   tau(    1) = (    0.00000    0.00000    0.00000  )
        2     Na  22.9900   tau(    2) = (    0.50000    0.28868    0.81523  )

     Computing dynamical matrix for 
[...]

     site n.     atom                  positions (alat units)
         1           Na  tau(   1) = (   0.0000000   0.0000000   0.0000000  )
         2           Na  tau(   2) = (   0.4999999   0.2886751   0.8152300  )

     number of k points=  6912  Marzari-Vanderbilt smearing, width (Ry)=  0.0200

     Number of k-points >= 100: set verbosity='high' to print them.

     Dense  grid:    46889 G-vectors     FFT dimensions: (  40,  40,  72)

     Smooth grid:    16577 G-vectors     FFT dimensions: (  30,  30,  48)

     Largest allocated arrays     est. size (Mb)     dimensions
        Kohn-Sham Wavefunctions         0.05 Mb     (     277,   13)
        NL pseudopotentials             0.11 Mb     (     277,   26)
        Each V/rho on FFT grid          0.22 Mb     (   14400)
        Each G-vector array             0.04 Mb     (    5857)
        G-vector shells                 0.01 Mb     (    1799)
     Largest temporary arrays     est. size (Mb)     dimensions
        Auxiliary wavefunctions         0.22 Mb     (     277,   52)
        Each subspace H/S matrix        0.01 Mb     (      26,   26)
        Each <psi_i|beta_j> matrix      0.01 Mb     (      26,   13)

     The potential is recalculated from file :
     ./na_hcp_7.008/_ph0/na_hcp_7.008.save/charge-density.dat

     Starting wfc are   10 atomic +    3 random wfc

     Band Structure Calculation
     Davidson diagonalization with overlap

     ethr =  5.56E-11,  avg # of iterations = 22.5

     total cpu time spent up to now is      258.1 secs

     End of band structure calculation

     Number of k-points >= 100: set verbosity='high' to print the bands.

     the Fermi energy is     1.7268 ev

     Writing output data file na_hcp_7.008.save

                                                                                

     bravais-lattice index     =            4
     lattice parameter (alat)  =       7.0080  a.u.
     unit-cell volume          =     485.9852 (a.u.)^3
     number of atoms/cell      =            2
     number of atomic types    =            1
     kinetic-energy cut-off    =      40.0000  Ry
     charge density cut-off    =     320.0000  Ry
     convergence threshold     =      1.0E-15
     beta                      =       0.7000
     number of iterations used =            4
     Exchange-correlation      = SLA  PW   PBE  PBE ( 1  4  3  4 0 0)


     celldm(1)=    7.00800  celldm(2)=    0.00000  celldm(3)=    1.63046
     celldm(4)=    0.00000  celldm(5)=    0.00000  celldm(6)=    0.00000

     crystal axes: (cart. coord. in units of alat)
               a(1) = (  1.0000  0.0000  0.0000 )  
               a(2) = ( -0.5000  0.8660  0.0000 )  
               a(3) = (  0.0000  0.0000  1.6305 )  

     reciprocal axes: (cart. coord. in units 2 pi/alat)
               b(1) = (  1.0000  0.5774  0.0000 )  
               b(2) = (  0.0000  1.1547  0.0000 )  
               b(3) = (  0.0000  0.0000  0.6133 )  


     Atoms inside the unit cell: 

     Cartesian axes

     site n.  atom      mass           positions (alat units)
        1     Na  22.9900   tau(    1) = (    0.00000    0.00000    0.00000  )
        2     Na  22.9900   tau(    2) = (    0.50000    0.28868    0.81523  )

     Computing dynamical matrix for 
                    q = (   0.2500000   0.4330127  -0.3066619 )
 
      2 Sym.Ops. (no q -> -q+G )


     G cutoff =  398.0874  (   5857 G-vectors)     FFT grid: ( 40, 40, 72)
     G cutoff =  199.0437  (   2072 G-vectors)  smooth grid: ( 30, 30, 48)

     number of k points=  6912  Marzari-Vanderbilt smearing, width (Ry)=  0.0200

     PseudoPot. # 1 for Na read from file:
     ./Na_pbe_v1.uspp.F.UPF
     MD5 check sum: 76a99c7e9422403d3e93cbc85ab7bccb
     Pseudo is Ultrasoft, Zval =  9.0
     Generated by new atomic code, or converted to UPF format
     Using radial grid of  819 points,  5 beta functions with: 
                l(1) =   0
                l(2) =   0
                l(3) =   1
                l(4) =   1
                l(5) =   2
     Q(r) pseudized with  8 coefficients,  rinner =    1.250   1.250   1.250
                                                       1.250   1.250

     Mode symmetry, C_s (m)     point group:


     Atomic displacements:
     There are   6 irreducible representations

     Representation     1      1 modes -A'  To be done

     Representation     2      1 modes -A'  To be done

     Representation     3      1 modes -A'  To be done

     Representation     4      1 modes -A''  To be done

     Representation     5      1 modes -A''  To be done

     Representation     6      1 modes -A''  To be done



     Alpha used in Ewald sum =   2.8000
     PHONON       :     1h 2m CPU        1h 8m WALL



     Representation #  1 mode #   1

     Self-consistent Calculation

      iter #   1 total cpu time :  4128.0 secs   av.it.:   5.7
      thresh= 1.000E-02 alpha_mix =  0.700 |ddv_scf|^2 =  1.988E-05

      iter #   2 total cpu time :  4136.7 secs   av.it.:   8.5
      thresh= 4.458E-04 alpha_mix =  0.700 |ddv_scf|^2 =  1.226E-05

      iter #   3 total cpu time :  4145.2 secs   av.it.:   7.7
      thresh= 3.502E-04 alpha_mix =  0.700 |ddv_scf|^2 =  4.111E-08

      iter #   4 total cpu time :  4155.1 secs   av.it.:   8.8
      thresh= 2.027E-05 alpha_mix =  0.700 |ddv_scf|^2 =  1.560E-09

      iter #   5 total cpu time :  4164.1 secs   av.it.:   8.9
      thresh= 3.950E-06 alpha_mix =  0.700 |ddv_scf|^2 =  7.574E-11

      iter #   6 total cpu time :  4172.9 secs   av.it.:   9.0
      thresh= 8.703E-07 alpha_mix =  0.700 |ddv_scf|^2 =  5.512E-12

      iter #   7 total cpu time :  4183.8 secs   av.it.:   8.8
      thresh= 2.348E-07 alpha_mix =  0.700 |ddv_scf|^2 =  3.947E-14

      iter #   8 total cpu time :  4193.1 secs   av.it.:   8.8
      thresh= 1.987E-08 alpha_mix =  0.700 |ddv_scf|^2 =  1.022E-15

      iter #   9 total cpu time :  4202.8 secs   av.it.:   8.5
      thresh= 3.197E-09 alpha_mix =  0.700 |ddv_scf|^2 =  1.101E-16

     End of self-consistent calculation

     Convergence has been achieved 


     Representation #  2 mode #   2

     Self-consistent Calculation

      iter #   1 total cpu time :  4213.4 secs   av.it.:   5.6
      thresh= 1.000E-02 alpha_mix =  0.700 |ddv_scf|^2 =  1.074E-05

      iter #   2 total cpu time :  4223.5 secs   av.it.:   8.6
      thresh= 3.277E-04 alpha_mix =  0.700 |ddv_scf|^2 =  5.247E-06

      iter #   3 total cpu time :  4229.5 secs   av.it.:   7.8
      thresh= 2.291E-04 alpha_mix =  0.700 |ddv_scf|^2 =  6.483E-08

      iter #   4 total cpu time :  4240.5 secs   av.it.:   8.6
      thresh= 2.546E-05 alpha_mix =  0.700 |ddv_scf|^2 =  1.336E-09

      iter #   5 total cpu time :  4249.4 secs   av.it.:   8.7
      thresh= 3.655E-06 alpha_mix =  0.700 |ddv_scf|^2 =  1.120E-10

      iter #   6 total cpu time :  4259.2 secs   av.it.:   8.7
      thresh= 1.058E-06 alpha_mix =  0.700 |ddv_scf|^2 =  3.416E-12

      iter #   7 total cpu time :  4266.2 secs   av.it.:   9.1
      thresh= 1.848E-07 alpha_mix =  0.700 |ddv_scf|^2 =  7.064E-14

      iter #   8 total cpu time :  4279.3 secs   av.it.:   8.9
      thresh= 2.658E-08 alpha_mix =  0.700 |ddv_scf|^2 =  4.258E-15

      iter #   9 total cpu time :  4292.5 secs   av.it.:   8.9
      thresh= 6.525E-09 alpha_mix =  0.700 |ddv_scf|^2 =  1.692E-16

     End of self-consistent calculation

     Convergence has been achieved 


     Representation #  3 mode #   3

     Self-consistent Calculation

      iter #   1 total cpu time :  4300.4 secs   av.it.:   5.7
      thresh= 1.000E-02 alpha_mix =  0.700 |ddv_scf|^2 =  7.735E-06

      iter #   2 total cpu time :  4311.3 secs   av.it.:   8.6
      thresh= 2.781E-04 alpha_mix =  0.700 |ddv_scf|^2 =  1.352E-06

      iter #   3 total cpu time :  4320.5 secs   av.it.:   7.9
      thresh= 1.163E-04 alpha_mix =  0.700 |ddv_scf|^2 =  1.888E-07

      iter #   4 total cpu time :  4329.5 secs   av.it.:   8.0
      thresh= 4.345E-05 alpha_mix =  0.700 |ddv_scf|^2 =  2.626E-09

      iter #   5 total cpu time :  4337.3 secs   av.it.:   8.7
      thresh= 5.125E-06 alpha_mix =  0.700 |ddv_scf|^2 =  4.625E-11

      iter #   6 total cpu time :  4345.4 secs   av.it.:   8.7
      thresh= 6.801E-07 alpha_mix =  0.700 |ddv_scf|^2 =  1.949E-12

      iter #   7 total cpu time :  4354.2 secs   av.it.:   9.2
      thresh= 1.396E-07 alpha_mix =  0.700 |ddv_scf|^2 =  9.083E-14

      iter #   8 total cpu time :  4363.8 secs   av.it.:   9.2
      thresh= 3.014E-08 alpha_mix =  0.700 |ddv_scf|^2 =  9.208E-16

     End of self-consistent calculation

     Convergence has been achieved 


     Representation #  4 mode #   4

     Self-consistent Calculation

      iter #   1 total cpu time :  4374.9 secs   av.it.:   5.6
      thresh= 1.000E-02 alpha_mix =  0.700 |ddv_scf|^2 =  7.900E-06

      iter #   2 total cpu time :  4384.0 secs   av.it.:   8.7
      thresh= 2.811E-04 alpha_mix =  0.700 |ddv_scf|^2 =  1.512E-06

      iter #   3 total cpu time :  4394.3 secs   av.it.:   7.9
      thresh= 1.230E-04 alpha_mix =  0.700 |ddv_scf|^2 =  1.898E-07

      iter #   4 total cpu time :  4406.2 secs   av.it.:   8.0
      thresh= 4.356E-05 alpha_mix =  0.700 |ddv_scf|^2 =  2.538E-09

      iter #   5 total cpu time :  4419.6 secs   av.it.:   8.7
      thresh= 5.038E-06 alpha_mix =  0.700 |ddv_scf|^2 =  4.699E-11

      iter #   6 total cpu time :  4431.2 secs   av.it.:   8.7
      thresh= 6.855E-07 alpha_mix =  0.700 |ddv_scf|^2 =  2.122E-12

      iter #   7 total cpu time :  4438.6 secs   av.it.:   9.2
      thresh= 1.457E-07 alpha_mix =  0.700 |ddv_scf|^2 =  9.634E-14

      iter #   8 total cpu time :  4449.2 secs   av.it.:   9.2
      thresh= 3.104E-08 alpha_mix =  0.700 |ddv_scf|^2 =  9.432E-16

     End of self-consistent calculation

     Convergence has been achieved 


     Representation #  5 mode #   5

     Self-consistent Calculation

      iter #   1 total cpu time :  4459.0 secs   av.it.:   5.6
      thresh= 1.000E-02 alpha_mix =  0.700 |ddv_scf|^2 =  1.074E-05

      iter #   2 total cpu time :  4469.4 secs   av.it.:   8.6
      thresh= 3.277E-04 alpha_mix =  0.700 |ddv_scf|^2 =  5.248E-06

      iter #   3 total cpu time :  4479.8 secs   av.it.:   7.8
      thresh= 2.291E-04 alpha_mix =  0.700 |ddv_scf|^2 =  6.482E-08

      iter #   4 total cpu time :  4493.3 secs   av.it.:   8.6
      thresh= 2.546E-05 alpha_mix =  0.700 |ddv_scf|^2 =  1.337E-09

      iter #   5 total cpu time :  4506.0 secs   av.it.:   8.7
      thresh= 3.656E-06 alpha_mix =  0.700 |ddv_scf|^2 =  1.121E-10

      iter #   6 total cpu time :  4515.4 secs   av.it.:   8.7
      thresh= 1.059E-06 alpha_mix =  0.700 |ddv_scf|^2 =  3.419E-12

      iter #   7 total cpu time :  4524.4 secs   av.it.:   9.1
      thresh= 1.849E-07 alpha_mix =  0.700 |ddv_scf|^2 =  7.070E-14

      iter #   8 total cpu time :  4533.6 secs   av.it.:   8.9
      thresh= 2.659E-08 alpha_mix =  0.700 |ddv_scf|^2 =  4.260E-15

      iter #   9 total cpu time :  4542.0 secs   av.it.:   8.9
      thresh= 6.527E-09 alpha_mix =  0.700 |ddv_scf|^2 =  1.696E-16

     End of self-consistent calculation

     Convergence has been achieved 


     Representation #  6 mode #   6

     Self-consistent Calculation

      iter #   1 total cpu time :  4555.1 secs   av.it.:   5.7
      thresh= 1.000E-02 alpha_mix =  0.700 |ddv_scf|^2 =  1.971E-05

      iter #   2 total cpu time :  4565.9 secs   av.it.:   8.4
      thresh= 4.440E-04 alpha_mix =  0.700 |ddv_scf|^2 =  1.211E-05

      iter #   3 total cpu time :  4575.9 secs   av.it.:   7.7
      thresh= 3.479E-04 alpha_mix =  0.700 |ddv_scf|^2 =  4.181E-08

      iter #   4 total cpu time :  4588.5 secs   av.it.:   8.8
      thresh= 2.045E-05 alpha_mix =  0.700 |ddv_scf|^2 =  1.580E-09

      iter #   5 total cpu time :  4599.9 secs   av.it.:   8.9
      thresh= 3.975E-06 alpha_mix =  0.700 |ddv_scf|^2 =  7.507E-11

      iter #   6 total cpu time :  4610.2 secs   av.it.:   9.0
      thresh= 8.664E-07 alpha_mix =  0.700 |ddv_scf|^2 =  5.525E-12

      iter #   7 total cpu time :  4618.8 secs   av.it.:   8.8
      thresh= 2.350E-07 alpha_mix =  0.700 |ddv_scf|^2 =  3.951E-14

      iter #   8 total cpu time :  4628.8 secs   av.it.:   8.8
      thresh= 1.988E-08 alpha_mix =  0.700 |ddv_scf|^2 =  1.061E-15

      iter #   9 total cpu time :  4638.3 secs   av.it.:   8.6
      thresh= 3.258E-09 alpha_mix =  0.700 |ddv_scf|^2 =  1.056E-16

     End of self-consistent calculation

     Convergence has been achieved 
 
     Number of q in the star =    6
     List of q in the star:
          1   0.250000000   0.433012702  -0.306661924
          2  -0.250000000   0.433012702  -0.306661924
          3   0.250000000  -0.433012702  -0.306661924
          4  -0.500000000   0.000000000  -0.306661924
          5   0.500000000   0.000000000  -0.306661924
          6  -0.250000000  -0.433012702  -0.306661924

     Diagonalizing the dynamical matrix

     q = (    0.250000000   0.433012702  -0.306661924 ) 

 **************************************************************************
     freq (    1) =       2.057798 [THz] =      68.640759 [cm-1]
     freq (    2) =       2.065938 [THz] =      68.912267 [cm-1]
     freq (    3) =       3.085273 [THz] =     102.913637 [cm-1]
     freq (    4) =       3.093908 [THz] =     103.201665 [cm-1]
     freq (    5) =       3.818189 [THz] =     127.361069 [cm-1]
     freq (    6) =       3.826580 [THz] =     127.640978 [cm-1]
 **************************************************************************

     Mode symmetry, C_s (m)     point group:

     freq (  1 -  1) =         68.6  [cm-1]   --> A'                 
     freq (  2 -  2) =         68.9  [cm-1]   --> A''                
     freq (  3 -  3) =        102.9  [cm-1]   --> A'                 
     freq (  4 -  4) =        103.2  [cm-1]   --> A''                
     freq (  5 -  5) =        127.4  [cm-1]   --> A'                 
     freq (  6 -  6) =        127.6  [cm-1]   --> A''                
 
     init_run     :      1.52s CPU      1.71s WALL (      11 calls)
     electrons    :    189.19s CPU    192.85s WALL (      11 calls)

     Called by init_run:
     wfcinit      :      0.00s CPU      0.13s WALL (      11 calls)
     potinit      :      0.30s CPU      0.35s WALL (      11 calls)

     Called by electrons:
     c_bands      :    189.12s CPU    192.77s WALL (      11 calls)
     v_of_rho     :      0.08s CPU      0.09s WALL (      12 calls)
     newd         :      0.12s CPU      0.14s WALL (      12 calls)

     Called by c_bands:
     init_us_2    :      5.50s CPU      5.57s WALL (   80220 calls)
     cegterg      :    102.01s CPU    104.18s WALL (    4226 calls)

     Called by sum_band:

     Called by *egterg:
     h_psi        :     60.07s CPU     60.82s WALL (   67866 calls)
     s_psi        :     68.41s CPU     71.53s WALL ( 1872850 calls)
     g_psi        :      0.57s CPU      0.63s WALL (   61286 calls)
     cdiaghg      :     28.77s CPU     29.81s WALL (   63640 calls)

     Called by h_psi:
     add_vuspsi   :     42.32s CPU     43.86s WALL (  936805 calls)

     General routines
     calbec       :    101.23s CPU    107.82s WALL ( 1992448 calls)
     fft          :      2.72s CPU      2.67s WALL (    9758 calls)
     ffts         :      1.18s CPU      1.26s WALL (    9607 calls)
     fftw         :   2116.14s CPU   2154.51s WALL (14363309 calls)
     interpolate  :      0.62s CPU      0.66s WALL (    1341 calls)
     davcio       :     15.00s CPU    377.29s WALL (  348691 calls)
 
     Parallel routines
     fft_scatter  :   1531.25s CPU   1547.75s WALL (14382674 calls)
 
     PHONON       :     1h 8m CPU        1h17m WALL

     INITIALIZATION: 
     phq_setup    :      0.34s CPU      0.85s WALL (      12 calls)
     phq_init     :     18.67s CPU     19.96s WALL (      12 calls)
 
     phq_init     :     18.67s CPU     19.96s WALL (      12 calls)
     init_vloc    :      0.13s CPU      0.13s WALL (      12 calls)
     init_us_1    :      0.44s CPU      0.45s WALL (      12 calls)
     newd         :      0.12s CPU      0.14s WALL (      12 calls)
     dvanqq       :      1.41s CPU      1.41s WALL (      12 calls)
     drho         :     12.41s CPU     12.77s WALL (      12 calls)
 
     DYNAMICAL MATRIX:
     dynmat0      :      3.08s CPU      3.35s WALL (      12 calls)
     phqscf       :   3881.23s CPU   4338.81s WALL (      12 calls)
     dynmatrix    :      0.03s CPU      0.16s WALL (      12 calls)
 
     phqscf       :   3881.23s CPU   4338.81s WALL (      12 calls)
     solve_linter :   3877.32s CPU   4331.83s WALL (      66 calls)
     drhodv       :      3.77s CPU      4.11s WALL (      66 calls)
 
     dynmat0      :      3.08s CPU      3.35s WALL (      12 calls)
     dynmat_us    :      3.03s CPU      3.11s WALL (      12 calls)
     d2ionq       :      0.03s CPU      0.03s WALL (      12 calls)
 
     dynmat_us    :      3.03s CPU      3.11s WALL (      12 calls)
     addusdynmat  :      0.00s CPU      0.00s WALL (      12 calls)
 
     phqscf       :   3881.23s CPU   4338.81s WALL (      12 calls)
     solve_linter :   3877.32s CPU   4331.83s WALL (      66 calls)
 
     solve_linter :   3877.32s CPU   4331.83s WALL (      66 calls)
     dvqpsi_us    :     16.38s CPU     17.57s WALL (    7158 calls)
     ortho        :     50.47s CPU     51.97s WALL (   67106 calls)
     cgsolve      :   1035.98s CPU   1076.40s WALL (   67106 calls)
     incdrhoscf   :   1386.11s CPU   1396.52s WALL (   67106 calls)
     addusddens   :      8.85s CPU      8.90s WALL (     651 calls)
     vpsifft      :     72.26s CPU     77.35s WALL (   59948 calls)
     dv_of_drho   :      3.25s CPU      3.25s WALL (     621 calls)
     mix_pot      :      2.76s CPU     14.65s WALL (     585 calls)
     ef_shift     :      0.04s CPU      0.61s WALL (      30 calls)
     localdos     :      0.14s CPU      0.15s WALL (       4 calls)
     psymdvscf    :     16.32s CPU     16.40s WALL (     522 calls)
     newdq        :      7.88s CPU      7.93s WALL (     585 calls)
     adddvscf     :      5.34s CPU      5.71s WALL (   59948 calls)
     drhodvus     :      0.06s CPU      0.07s WALL (      66 calls)
 
     dvqpsi_us    :     16.38s CPU     17.57s WALL (    7158 calls)
     dvqpsi_us_on :      4.00s CPU      4.27s WALL (    7158 calls)
 
     cgsolve      :   1035.98s CPU   1076.40s WALL (   67106 calls)
     ch_psi       :    998.26s CPU   1036.31s WALL (  868939 calls)
 
     ch_psi       :    998.26s CPU   1036.31s WALL (  868939 calls)
     h_psiq       :    864.75s CPU    897.46s WALL (  868939 calls)
     last         :    127.82s CPU    133.20s WALL (  868939 calls)
 
     h_psiq       :    864.75s CPU    897.46s WALL (  868939 calls)
     firstfft     :    399.84s CPU    414.04s WALL ( 5432864 calls)
     secondfft    :    305.50s CPU    317.71s WALL ( 5432864 calls)
     add_vuspsi   :     42.32s CPU     43.86s WALL (  936805 calls)
 
     incdrhoscf   :   1386.11s CPU   1396.52s WALL (   67106 calls)
     addusdbec    :      6.55s CPU      6.90s WALL (   74264 calls)
 
     drhodvus     :      0.06s CPU      0.07s WALL (      66 calls)
 
      General routines
     calbec       :    101.23s CPU    107.82s WALL ( 1992448 calls)
     fft          :      2.72s CPU      2.67s WALL (    9758 calls)
     ffts         :      1.18s CPU      1.26s WALL (    9607 calls)
     fftw         :   2116.14s CPU   2154.51s WALL (14363309 calls)
     davcio       :     15.00s CPU    377.29s WALL (  348691 calls)
     write_rec    :      1.12s CPU     22.67s WALL (     651 calls)
 
 
     PHONON       :     1h 8m CPU        1h17m WALL

 
   This run was terminated on:   3: 4:19  28Mar2018            

=------------------------------------------------------------------------------=
   JOB DONE.
=------------------------------------------------------------------------------=
Application 30378269 resources: utime ~820926s, stime ~11510s, Rss ~50296, inblocks ~6156330517, outblocks ~1922308650
