
     Program PHONON v.5.4.0 starts on 28Mar2018 at 21: 9:49 

     This program is part of the open-source Quantum ESPRESSO suite
     for quantum simulation of materials; please cite
         "P. Giannozzi et al., J. Phys.:Condens. Matter 21 395502 (2009);
          URL http://www.quantum-espresso.org", 
     in publications or presentations arising from this work. More details at
     http://www.quantum-espresso.org/quote

     Parallel version (MPI & OpenMP), running on     192 processor cores
     Number of MPI processes:               192
     Threads/MPI process:                     1
     K-points division:     npool     =      24
     R & G space division:  proc/nbgrp/npool/nimage =       8

     Reading data from directory:
     ./na_hcp_7.11/na_hcp_7.11.save

   Info: using nr1, nr2, nr3 values from input

   Info: using nr1, nr2, nr3 values from input

     IMPORTANT: XC functional enforced from input :
     Exchange-correlation      = SLA  PW   PBE  PBE ( 1  4  3  4 0 0)
     Any further DFT definition will be discarded
     Please, verify this is what you really want

 
     Parallelization info
     --------------------
     sticks:   dense  smooth     PW     G-vecs:    dense   smooth      PW
     Min         140      69     20                 6130     2159     356
     Max         142      70     21                 6133     2176     363
     Sum        1123     559    163                49045    17357    2875
 


     Dynamical matrices for ( 4, 4, 4)  uniform grid of q-points
     (  12q-points):
       N         xq(1)         xq(2)         xq(3) 
       1   0.000000000   0.000000000   0.000000000
       2   0.000000000   0.000000000   0.153330962
       3   0.000000000   0.000000000  -0.306661924
       4   0.000000000   0.288675135   0.000000000
       5   0.000000000   0.288675135   0.153330962
       6   0.000000000   0.288675135  -0.306661924
       7   0.000000000  -0.577350269   0.000000000
       8   0.000000000  -0.577350269   0.153330962
       9   0.000000000  -0.577350269  -0.306661924
      10   0.250000000   0.433012702   0.000000000
      11   0.250000000   0.433012702   0.153330962
      12   0.250000000   0.433012702  -0.306661924

     Calculation of q =    0.0000000   0.0000000   0.0000000

                                                                                

     bravais-lattice index     =            4
     lattice parameter (alat)  =       7.1100  a.u.
     unit-cell volume          =     507.5158 (a.u.)^3
     number of atoms/cell      =            2
     number of atomic types    =            1
     kinetic-energy cut-off    =      40.0000  Ry
     charge density cut-off    =     320.0000  Ry
     convergence threshold     =      1.0E-15
     beta                      =       0.7000
     number of iterations used =            4
     Exchange-correlation      = SLA  PW   PBE  PBE ( 1  4  3  4 0 0)


     celldm(1)=    7.11000  celldm(2)=    0.00000  celldm(3)=    1.63046
     celldm(4)=    0.00000  celldm(5)=    0.00000  celldm(6)=    0.00000

     crystal axes: (cart. coord. in units of alat)
               a(1) = (  1.0000  0.0000  0.0000 )  
               a(2) = ( -0.5000  0.8660  0.0000 )  
               a(3) = (  0.0000  0.0000  1.6305 )  

     reciprocal axes: (cart. coord. in units 2 pi/alat)
               b(1) = (  1.0000  0.5774  0.0000 )  
               b(2) = (  0.0000  1.1547  0.0000 )  
               b(3) = (  0.0000  0.0000  0.6133 )  


     Atoms inside the unit cell: 

     Cartesian axes

     site n.  atom      mass           positions (alat units)
        1     Na  22.9900   tau(    1) = (    0.00000    0.00000    0.00000  )
        2     Na  22.9900   tau(    2) = (    0.50000    0.28868    0.81523  )

     Computing dynamical matrix for 
                    q = (   0.0000000   0.0000000   0.0000000 )
 
     25 Sym.Ops. (with q -> -q+G )


     G cutoff =  409.7599  (   6133 G-vectors)     FFT grid: ( 45, 45, 72)
     G cutoff =  204.8799  (   2168 G-vectors)  smooth grid: ( 30, 30, 48)

     number of k points=   366  Marzari-Vanderbilt smearing, width (Ry)=  0.0200

     PseudoPot. # 1 for Na read from file:
     ./Na_pbe_v1.uspp.F.UPF
     MD5 check sum: 76a99c7e9422403d3e93cbc85ab7bccb
     Pseudo is Ultrasoft, Zval =  9.0
     Generated by new atomic code, or converted to UPF format
     Using radial grid of  819 points,  5 beta functions with: 
                l(1) =   0
                l(2) =   0
                l(3) =   1
                l(4) =   1
                l(5) =   2
     Q(r) pseudized with  8 coefficients,  rinner =    1.250   1.250   1.250
                                                       1.250   1.250

     Mode symmetry, D_6h(6/mmm) point group:


     Atomic displacements:
     There are   4 irreducible representations

     Representation     1      1 modes -B_1g  To be done

     Representation     2      2 modes -E_2g  To be done

     Representation     3      1 modes -A_2u  To be done

     Representation     4      2 modes -E_1u  To be done



     Alpha used in Ewald sum =   2.8000
     PHONON       :     5.16s CPU         8.23s WALL



     Representation #  1 mode #   1

     Self-consistent Calculation
 
     Pert. #  1: Fermi energy shift (Ry) =     0.0000E+00     9.7958E-40

      iter #   1 total cpu time :     9.2 secs   av.it.:   5.4
      thresh= 1.000E-02 alpha_mix =  0.700 |ddv_scf|^2 =  2.781E-05
 
     Pert. #  1: Fermi energy shift (Ry) =     2.8234E-22    -1.2245E-40

      iter #   2 total cpu time :     9.9 secs   av.it.:   7.2
      thresh= 5.273E-04 alpha_mix =  0.700 |ddv_scf|^2 =  1.724E-05
 
     Pert. #  1: Fermi energy shift (Ry) =     2.8234E-22     1.5306E-41

      iter #   3 total cpu time :    10.5 secs   av.it.:   6.9
      thresh= 4.152E-04 alpha_mix =  0.700 |ddv_scf|^2 =  2.196E-08
 
     Pert. #  1: Fermi energy shift (Ry) =     1.4117E-22    -1.9132E-42

      iter #   4 total cpu time :    12.5 secs   av.it.:   8.3
      thresh= 1.482E-05 alpha_mix =  0.700 |ddv_scf|^2 =  8.828E-11
 
     Pert. #  1: Fermi energy shift (Ry) =     1.4117E-22    -4.7831E-43

      iter #   5 total cpu time :    13.1 secs   av.it.:   7.3
      thresh= 9.395E-07 alpha_mix =  0.700 |ddv_scf|^2 =  1.778E-12
 
     Pert. #  1: Fermi energy shift (Ry) =    -1.4117E-22    -4.7831E-43

      iter #   6 total cpu time :    13.9 secs   av.it.:   7.2
      thresh= 1.333E-07 alpha_mix =  0.700 |ddv_scf|^2 =  4.838E-15
 
     Pert. #  1: Fermi energy shift (Ry) =     1.4117E-22    -4.7831E-43

      iter #   7 total cpu time :    14.6 secs   av.it.:   8.1
      thresh= 6.956E-09 alpha_mix =  0.700 |ddv_scf|^2 =  1.334E-17

     End of self-consistent calculation

     Convergence has been achieved 


     Representation #  2 modes #   2  3

     Self-consistent Calculation
 
     Pert. #  1: Fermi energy shift (Ry) =    -3.3680E-21    -1.3344E-41
     Pert. #  2: Fermi energy shift (Ry) =     2.1684E-19    -1.3393E-41

      iter #   1 total cpu time :    17.1 secs   av.it.:   5.1
      thresh= 1.000E-02 alpha_mix =  0.700 |ddv_scf|^2 =  7.391E-07
 
     Pert. #  1: Fermi energy shift (Ry) =    -7.9361E-21    -9.1447E-41
     Pert. #  2: Fermi energy shift (Ry) =    -9.0350E-21    -4.5918E-41

      iter #   2 total cpu time :    20.4 secs   av.it.:   8.6
      thresh= 8.597E-05 alpha_mix =  0.700 |ddv_scf|^2 =  1.274E-08
 
     Pert. #  1: Fermi energy shift (Ry) =     7.2998E-21    -3.7779E-42
     Pert. #  2: Fermi energy shift (Ry) =     3.3881E-21     1.1479E-41

      iter #   3 total cpu time :    22.6 secs   av.it.:   8.8
      thresh= 1.129E-05 alpha_mix =  0.700 |ddv_scf|^2 =  4.318E-10
 
     Pert. #  1: Fermi energy shift (Ry) =    -2.2946E-21    -1.1958E-43
     Pert. #  2: Fermi energy shift (Ry) =    -2.2588E-21    -9.5872E-44

      iter #   4 total cpu time :    24.6 secs   av.it.:   8.4
      thresh= 2.078E-06 alpha_mix =  0.700 |ddv_scf|^2 =  1.410E-12
 
     Pert. #  1: Fermi energy shift (Ry) =    -2.8575E-21     4.1700E-43
     Pert. #  2: Fermi energy shift (Ry) =     1.5811E-20     4.1852E-43

      iter #   5 total cpu time :    26.6 secs   av.it.:   8.9
      thresh= 1.187E-07 alpha_mix =  0.700 |ddv_scf|^2 =  2.088E-15
 
     Pert. #  1: Fermi energy shift (Ry) =    -6.2456E-21    -6.1307E-44
     Pert. #  2: Fermi energy shift (Ry) =    -7.9056E-21    -2.3915E-43

      iter #   6 total cpu time :    32.7 secs   av.it.:   7.9
      thresh= 4.570E-09 alpha_mix =  0.700 |ddv_scf|^2 =  9.098E-17

     End of self-consistent calculation

     Convergence has been achieved 


     Representation #  3 mode #   4

     Self-consistent Calculation
 
     Pert. #  1: Fermi energy shift (Ry) =    -6.8932E-26     1.2539E-37

      iter #   1 total cpu time :    35.9 secs   av.it.:   5.1
      thresh= 1.000E-02 alpha_mix =  0.700 |ddv_scf|^2 =  2.771E-06
 
     Pert. #  1: Fermi energy shift (Ry) =     6.8932E-26    -4.8979E-40

      iter #   2 total cpu time :    37.0 secs   av.it.:   8.0
      thresh= 1.665E-04 alpha_mix =  0.700 |ddv_scf|^2 =  5.195E-08
 
     Pert. #  1: Fermi energy shift (Ry) =     4.3082E-27    -1.2245E-40

      iter #   3 total cpu time :    38.2 secs   av.it.:   8.2
      thresh= 2.279E-05 alpha_mix =  0.700 |ddv_scf|^2 =  1.116E-09
 
     Pert. #  1: Fermi energy shift (Ry) =    -2.5849E-26     3.0612E-41

      iter #   4 total cpu time :    39.7 secs   av.it.:   7.7
      thresh= 3.341E-06 alpha_mix =  0.700 |ddv_scf|^2 =  3.736E-12
 
     Pert. #  1: Fermi energy shift (Ry) =     6.4623E-27     3.8265E-42

      iter #   5 total cpu time :    40.7 secs   av.it.:   8.2
      thresh= 1.933E-07 alpha_mix =  0.700 |ddv_scf|^2 =  8.274E-15
 
     Pert. #  1: Fermi energy shift (Ry) =     2.1541E-27     3.8265E-42

      iter #   6 total cpu time :    41.9 secs   av.it.:   7.7
      thresh= 9.096E-09 alpha_mix =  0.700 |ddv_scf|^2 =  1.969E-16

     End of self-consistent calculation

     Convergence has been achieved 


     Representation #  4 modes #   5  6

     Self-consistent Calculation
 
     Pert. #  1: Fermi energy shift (Ry) =     2.4668E-24    -4.7020E-37
     Pert. #  2: Fermi energy shift (Ry) =    -2.7573E-24     4.3885E-37

      iter #   1 total cpu time :    44.3 secs   av.it.:   5.2
      thresh= 1.000E-02 alpha_mix =  0.700 |ddv_scf|^2 =  6.953E-07
 
     Pert. #  1: Fermi energy shift (Ry) =     1.7035E-25     1.8367E-39
     Pert. #  2: Fermi energy shift (Ry) =     1.9301E-24    -1.7143E-39

      iter #   2 total cpu time :    54.3 secs   av.it.:   8.8
      thresh= 8.339E-05 alpha_mix =  0.700 |ddv_scf|^2 =  1.294E-08
 
     Pert. #  1: Fermi energy shift (Ry) =    -5.5578E-26     2.2959E-40
     Pert. #  2: Fermi energy shift (Ry) =     5.5145E-25    -2.1428E-40

      iter #   3 total cpu time :    57.0 secs   av.it.:   9.0
      thresh= 1.138E-05 alpha_mix =  0.700 |ddv_scf|^2 =  2.901E-10
 
     Pert. #  1: Fermi energy shift (Ry) =    -5.2334E-25     1.7219E-41
     Pert. #  2: Fermi energy shift (Ry) =    -2.7573E-25    -7.6530E-42

      iter #   4 total cpu time :    59.2 secs   av.it.:   8.7
      thresh= 1.703E-06 alpha_mix =  0.700 |ddv_scf|^2 =  9.727E-13
 
     Pert. #  1: Fermi energy shift (Ry) =     2.8595E-25     2.1524E-42
     Pert. #  2: Fermi energy shift (Ry) =    -1.3786E-25    -9.5662E-43

      iter #   5 total cpu time :    61.4 secs   av.it.:   9.1
      thresh= 9.863E-08 alpha_mix =  0.700 |ddv_scf|^2 =  2.014E-15
 
     Pert. #  1: Fermi energy shift (Ry) =     4.4728E-26     2.1524E-42
     Pert. #  2: Fermi energy shift (Ry) =    -5.5145E-25    -9.5662E-43

      iter #   6 total cpu time :    66.1 secs   av.it.:   8.6
      thresh= 4.488E-09 alpha_mix =  0.700 |ddv_scf|^2 =  4.885E-17

     End of self-consistent calculation

     Convergence has been achieved 
 
     Number of q in the star =    1
     List of q in the star:
          1   0.000000000   0.000000000   0.000000000

     Diagonalizing the dynamical matrix

     q = (    0.000000000   0.000000000   0.000000000 ) 

 **************************************************************************
     freq (    1) =      -0.549260 [THz] =     -18.321344 [cm-1]
     freq (    2) =      -0.494693 [THz] =     -16.501193 [cm-1]
     freq (    3) =      -0.494693 [THz] =     -16.501193 [cm-1]
     freq (    4) =       1.537307 [THz] =      51.279031 [cm-1]
     freq (    5) =       1.537307 [THz] =      51.279031 [cm-1]
     freq (    6) =       3.761685 [THz] =     125.476311 [cm-1]
 **************************************************************************

     Mode symmetry, D_6h(6/mmm) point group:

     freq (  1 -  1) =        -18.3  [cm-1]   --> A_2u            I  
     freq (  2 -  3) =        -16.5  [cm-1]   --> E_1u            I  
     freq (  4 -  5) =         51.3  [cm-1]   --> E_2g            R  
     freq (  6 -  6) =        125.5  [cm-1]   --> B_1g               

     Calculation of q =    0.0000000   0.0000000   0.1533310
 
     Parallelization info
     --------------------
     sticks:   dense  smooth     PW     G-vecs:    dense   smooth      PW
     Min         140      69     20                 6130     2157     366
     Max         142      70     21                 6133     2178     373
     Sum        1123     559    163                49045    17357    2947
 


     bravais-lattice index     =            4
     lattice parameter (alat)  =       7.1100  a.u.
     unit-cell volume          =     507.5158 (a.u.)^3
     number of atoms/cell      =            2
     number of atomic types    =            1
     number of electrons       =        18.00
     number of Kohn-Sham states=           13
     kinetic-energy cutoff     =      40.0000  Ry
     charge density cutoff     =     320.0000  Ry
     Exchange-correlation      = SLA  PW   PBE  PBE ( 1  4  3  4 0 0)

     celldm(1)=   7.110000  celldm(2)=   0.000000  celldm(3)=   1.630460
     celldm(4)=   0.000000  celldm(5)=   0.000000  celldm(6)=   0.000000

     crystal axes: (cart. coord. in units of alat)
               a(1) = (   1.000000   0.000000   0.000000 )  
               a(2) = (  -0.500000   0.866025   0.000000 )  
               a(3) = (   0.000000   0.000000   1.630460 )  

     reciprocal axes: (cart. coord. in units 2 pi/alat)
               b(1) = (  1.000000  0.577350  0.000000 )  
               b(2) = (  0.000000  1.154701  0.000000 )  
               b(3) = (  0.000000  0.000000  0.613324 )  


     PseudoPot. # 1 for Na read from file:
     ./Na_pbe_v1.uspp.F.UPF
     MD5 check sum: 76a99c7e9422403d3e93cbc85ab7bccb
     Pseudo is Ultrasoft, Zval =  9.0
     Generated by new atomic code, or converted to UPF format
     Using radial grid of  819 points,  5 beta functions with: 
                l(1) =   0
                l(2) =   0
                l(3) =   1
                l(4) =   1
                l(5) =   2
     Q(r) pseudized with  8 coefficients,  rinner =    1.250   1.250   1.250
                                                       1.250   1.250

     atomic species   valence    mass     pseudopotential
        Na             9.00    22.99000     Na( 1.00)

     24 Sym. Ops., with inversion, found



   Cartesian axes

     site n.     atom                  positions (alat units)
         1           Na  tau(   1) = (   0.0000000   0.0000000   0.0000000  )
         2           Na  tau(   2) = (   0.4999999   0.2886751   0.8152300  )

     number of k points=  1464  Marzari-Vanderbilt smearing, width (Ry)=  0.0200

     Number of k-points >= 100: set verbosity='high' to print them.

     Dense  grid:    49045 G-vectors     FFT dimensions: (  45,  45,  72)

     Smooth grid:    17357 G-vectors     FFT dimensions: (  30,  30,  48)

     Largest allocated arrays     est. size (Mb)     dimensions
        Kohn-Sham Wavefunctions         0.06 Mb     (     288,   13)
        NL pseudopotentials             0.11 Mb     (     288,   26)
        Each V/rho on FFT grid          0.28 Mb     (   18225)
        Each G-vector array             0.05 Mb     (    6133)
        G-vector shells                 0.01 Mb     (    1694)
     Largest temporary arrays     est. size (Mb)     dimensions
        Auxiliary wavefunctions         0.23 Mb     (     288,   52)
        Each subspace H/S matrix        0.01 Mb     (      26,   26)
        Each <psi_i|beta_j> matrix      0.01 Mb     (      26,   13)

     The potential is recalculated from file :
     ./na_hcp_7.11/_ph0/na_hcp_7.11.save/charge-density.dat

     Starting wfc are   10 atomic +    3 random wfc

     Band Structure Calculation
     Davidson diagonalization with overlap

     ethr =  5.56E-11,  avg # of iterations = 23.8

     total cpu time spent up to now is        6.4 secs

     End of band structure calculation

     Number of k-points >= 100: set verbosity='high' to print the bands.

     the Fermi energy is     1.5452 ev

     Writing output data file na_hcp_7.11.save

                                                                                

     bravais-lattice index     =            4
     lattice parameter (alat)  =       7.1100  a.u.
     unit-cell volume          =     507.5158 (a.u.)^3
     number of atoms/cell      =            2
     number of atomic types    =            1
     kinetic-energy cut-off    =      40.0000  Ry
     charge density cut-off    =     320.0000  Ry
     convergence threshold     =      1.0E-15
     beta                      =       0.7000
     number of iterations used =            4
     Exchange-correlation      = SLA  PW   PBE  PBE ( 1  4  3  4 0 0)


     celldm(1)=    7.11000  celldm(2)=    0.00000  celldm(3)=    1.63046
     celldm(4)=    0.00000  celldm(5)=    0.00000  celldm(6)=    0.00000

     crystal axes: (cart. coord. in units of alat)
               a(1) = (  1.0000  0.0000  0.0000 )  
               a(2) = ( -0.5000  0.8660  0.0000 )  
               a(3) = (  0.0000  0.0000  1.6305 )  

     reciprocal axes: (cart. coord. in units 2 pi/alat)
               b(1) = (  1.0000  0.5774  0.0000 )  
               b(2) = (  0.0000  1.1547  0.0000 )  
               b(3) = (  0.0000  0.0000  0.6133 )  


     Atoms inside the unit cell: 

     Cartesian axes

     site n.  atom      mass           positions (alat units)
        1     Na  22.9900   tau(    1) = (    0.00000    0.00000    0.00000  )
        2     Na  22.9900   tau(    2) = (    0.50000    0.28868    0.81523  )

     Computing dynamical matrix for 
                    q = (   0.0000000   0.0000000   0.1533310 )
 
     12 Sym.Ops. (no q -> -q+G )


     G cutoff =  409.7599  (   6133 G-vectors)     FFT grid: ( 45, 45, 72)
     G cutoff =  204.8799  (   2164 G-vectors)  smooth grid: ( 30, 30, 48)

     number of k points=  1464  Marzari-Vanderbilt smearing, width (Ry)=  0.0200

     PseudoPot. # 1 for Na read from file:
     ./Na_pbe_v1.uspp.F.UPF
     MD5 check sum: 76a99c7e9422403d3e93cbc85ab7bccb
     Pseudo is Ultrasoft, Zval =  9.0
     Generated by new atomic code, or converted to UPF format
     Using radial grid of  819 points,  5 beta functions with: 
                l(1) =   0
                l(2) =   0
                l(3) =   1
                l(4) =   1
                l(5) =   2
     Q(r) pseudized with  8 coefficients,  rinner =    1.250   1.250   1.250
                                                       1.250   1.250

     Mode symmetry, C_6v (6mm)  point group:


     Atomic displacements:
     There are   4 irreducible representations

     Representation     1      1 modes -A_1  To be done

     Representation     2      1 modes -B_2  To be done

     Representation     3      2 modes -E_1  To be done

     Representation     4      2 modes -E_2  To be done



     Alpha used in Ewald sum =   2.8000
     PHONON       :  1m 7.81s CPU     1m15.96s WALL



     Representation #  1 mode #   1

     Self-consistent Calculation

      iter #   1 total cpu time :    77.2 secs   av.it.:   5.4
      thresh= 1.000E-02 alpha_mix =  0.700 |ddv_scf|^2 =  4.626E-02

      iter #   2 total cpu time :    79.8 secs   av.it.:   6.8
      thresh= 1.000E-02 alpha_mix =  0.700 |ddv_scf|^2 =  2.597E+01

      iter #   3 total cpu time :    82.5 secs   av.it.:   6.8
      thresh= 1.000E-02 alpha_mix =  0.700 |ddv_scf|^2 =  9.923E-05

      iter #   4 total cpu time :    84.5 secs   av.it.:   5.5
      thresh= 9.961E-04 alpha_mix =  0.700 |ddv_scf|^2 =  3.619E-08

      iter #   5 total cpu time :    86.9 secs   av.it.:   7.7
      thresh= 1.902E-05 alpha_mix =  0.700 |ddv_scf|^2 =  1.093E-09

      iter #   6 total cpu time :    89.9 secs   av.it.:   7.7
      thresh= 3.306E-06 alpha_mix =  0.700 |ddv_scf|^2 =  1.095E-07

      iter #   7 total cpu time :    92.0 secs   av.it.:   4.0
      thresh= 3.310E-05 alpha_mix =  0.700 |ddv_scf|^2 =  3.411E-11

      iter #   8 total cpu time :    94.1 secs   av.it.:   8.0
      thresh= 5.840E-07 alpha_mix =  0.700 |ddv_scf|^2 =  2.703E-13

      iter #   9 total cpu time :    96.1 secs   av.it.:   8.8
      thresh= 5.199E-08 alpha_mix =  0.700 |ddv_scf|^2 =  1.253E-14

      iter #  10 total cpu time :    98.6 secs   av.it.:   8.7
      thresh= 1.120E-08 alpha_mix =  0.700 |ddv_scf|^2 =  2.509E-14

      iter #  11 total cpu time :   101.5 secs   av.it.:   6.9
      thresh= 1.584E-08 alpha_mix =  0.700 |ddv_scf|^2 =  5.113E-13

      iter #  12 total cpu time :   104.2 secs   av.it.:   5.3
      thresh= 7.150E-08 alpha_mix =  0.700 |ddv_scf|^2 =  2.783E-16

     End of self-consistent calculation

     Convergence has been achieved 


     Representation #  2 mode #   2

     Self-consistent Calculation

      iter #   1 total cpu time :   108.9 secs   av.it.:   5.4
      thresh= 1.000E-02 alpha_mix =  0.700 |ddv_scf|^2 =  7.323E-05

      iter #   2 total cpu time :   110.7 secs   av.it.:   7.2
      thresh= 8.558E-04 alpha_mix =  0.700 |ddv_scf|^2 =  2.504E-04

      iter #   3 total cpu time :   112.3 secs   av.it.:   6.4
      thresh= 1.582E-03 alpha_mix =  0.700 |ddv_scf|^2 =  1.224E-07

      iter #   4 total cpu time :   114.6 secs   av.it.:   8.2
      thresh= 3.499E-05 alpha_mix =  0.700 |ddv_scf|^2 =  3.292E-09

      iter #   5 total cpu time :   117.3 secs   av.it.:   8.7
      thresh= 5.738E-06 alpha_mix =  0.700 |ddv_scf|^2 =  7.697E-11

      iter #   6 total cpu time :   119.4 secs   av.it.:   8.7
      thresh= 8.773E-07 alpha_mix =  0.700 |ddv_scf|^2 =  5.508E-12

      iter #   7 total cpu time :   122.3 secs   av.it.:   8.3
      thresh= 2.347E-07 alpha_mix =  0.700 |ddv_scf|^2 =  3.274E-13

      iter #   8 total cpu time :   125.4 secs   av.it.:   8.5
      thresh= 5.722E-08 alpha_mix =  0.700 |ddv_scf|^2 =  1.715E-14

      iter #   9 total cpu time :   127.3 secs   av.it.:   7.8
      thresh= 1.310E-08 alpha_mix =  0.700 |ddv_scf|^2 =  7.196E-16

     End of self-consistent calculation

     Convergence has been achieved 


     Representation #  3 modes #   3  4

     Self-consistent Calculation

      iter #   1 total cpu time :   131.4 secs   av.it.:   5.1
      thresh= 1.000E-02 alpha_mix =  0.700 |ddv_scf|^2 =  7.010E-07

      iter #   2 total cpu time :   136.3 secs   av.it.:   8.6
      thresh= 8.372E-05 alpha_mix =  0.700 |ddv_scf|^2 =  1.292E-08

      iter #   3 total cpu time :   141.2 secs   av.it.:   8.8
      thresh= 1.137E-05 alpha_mix =  0.700 |ddv_scf|^2 =  3.055E-10

      iter #   4 total cpu time :   148.8 secs   av.it.:   8.5
      thresh= 1.748E-06 alpha_mix =  0.700 |ddv_scf|^2 =  1.013E-12

      iter #   5 total cpu time :   153.2 secs   av.it.:   8.9
      thresh= 1.007E-07 alpha_mix =  0.700 |ddv_scf|^2 =  2.056E-15

      iter #   6 total cpu time :   157.8 secs   av.it.:   8.3
      thresh= 4.535E-09 alpha_mix =  0.700 |ddv_scf|^2 =  5.735E-17

     End of self-consistent calculation

     Convergence has been achieved 


     Representation #  4 modes #   5  6

     Self-consistent Calculation

      iter #   1 total cpu time :   164.0 secs   av.it.:   5.1
      thresh= 1.000E-02 alpha_mix =  0.700 |ddv_scf|^2 =  7.318E-07

      iter #   2 total cpu time :   168.1 secs   av.it.:   8.6
      thresh= 8.555E-05 alpha_mix =  0.700 |ddv_scf|^2 =  1.278E-08

      iter #   3 total cpu time :   172.4 secs   av.it.:   8.8
      thresh= 1.130E-05 alpha_mix =  0.700 |ddv_scf|^2 =  4.052E-10

      iter #   4 total cpu time :   177.1 secs   av.it.:   8.5
      thresh= 2.013E-06 alpha_mix =  0.700 |ddv_scf|^2 =  1.323E-12

      iter #   5 total cpu time :   190.9 secs   av.it.:   8.9
      thresh= 1.150E-07 alpha_mix =  0.700 |ddv_scf|^2 =  2.109E-15

      iter #   6 total cpu time :   197.3 secs   av.it.:   8.0
      thresh= 4.593E-09 alpha_mix =  0.700 |ddv_scf|^2 =  8.684E-17

     End of self-consistent calculation

     Convergence has been achieved 
 
     Number of q in the star =    2
     List of q in the star:
          1   0.000000000   0.000000000   0.153330962
          2   0.000000000   0.000000000  -0.153330962

     Diagonalizing the dynamical matrix

     q = (    0.000000000   0.000000000   0.153330962 ) 

 **************************************************************************
     freq (    1) =       0.488435 [THz] =      16.292439 [cm-1]
     freq (    2) =       0.488435 [THz] =      16.292439 [cm-1]
     freq (    3) =       1.441442 [THz] =      48.081344 [cm-1]
     freq (    4) =       1.441442 [THz] =      48.081344 [cm-1]
     freq (    5) =       1.512049 [THz] =      50.436539 [cm-1]
     freq (    6) =       3.515008 [THz] =     117.248037 [cm-1]
 **************************************************************************

     Mode symmetry, C_6v (6mm)  point group:

     freq (  1 -  2) =         16.3  [cm-1]   --> E_1                
     freq (  3 -  4) =         48.1  [cm-1]   --> E_2                
     freq (  5 -  5) =         50.4  [cm-1]   --> A_1                
     freq (  6 -  6) =        117.2  [cm-1]   --> B_2                

     Calculation of q =    0.0000000   0.0000000  -0.3066619
 
     Parallelization info
     --------------------
     sticks:   dense  smooth     PW     G-vecs:    dense   smooth      PW
     Min         140      69     20                 6130     2159     356
     Max         142      70     21                 6133     2176     363
     Sum        1123     559    163                49045    17357    2875
 


     bravais-lattice index     =            4
     lattice parameter (alat)  =       7.1100  a.u.
     unit-cell volume          =     507.5158 (a.u.)^3
     number of atoms/cell      =            2
     number of atomic types    =            1
     number of electrons       =        18.00
     number of Kohn-Sham states=           13
     kinetic-energy cutoff     =      40.0000  Ry
     charge density cutoff     =     320.0000  Ry
     Exchange-correlation      = SLA  PW   PBE  PBE ( 1  4  3  4 0 0)

     celldm(1)=   7.110000  celldm(2)=   0.000000  celldm(3)=   1.630460
     celldm(4)=   0.000000  celldm(5)=   0.000000  celldm(6)=   0.000000

     crystal axes: (cart. coord. in units of alat)
               a(1) = (   1.000000   0.000000   0.000000 )  
               a(2) = (  -0.500000   0.866025   0.000000 )  
               a(3) = (   0.000000   0.000000   1.630460 )  

     reciprocal axes: (cart. coord. in units 2 pi/alat)
               b(1) = (  1.000000  0.577350  0.000000 )  
               b(2) = (  0.000000  1.154701  0.000000 )  
               b(3) = (  0.000000  0.000000  0.613324 )  


     PseudoPot. # 1 for Na read from file:
     ./Na_pbe_v1.uspp.F.UPF
     MD5 check sum: 76a99c7e9422403d3e93cbc85ab7bccb
     Pseudo is Ultrasoft, Zval =  9.0
     Generated by new atomic code, or converted to UPF format
     Using radial grid of  819 points,  5 beta functions with: 
                l(1) =   0
                l(2) =   0
                l(3) =   1
                l(4) =   1
                l(5) =   2
     Q(r) pseudized with  8 coefficients,  rinner =    1.250   1.250   1.250
                                                       1.250   1.250

     atomic species   valence    mass     pseudopotential
        Na             9.00    22.99000     Na( 1.00)

     24 Sym. Ops., with inversion, found



   Cartesian axes

     site n.     atom                  positions (alat units)
         1           Na  tau(   1) = (   0.0000000   0.0000000   0.0000000  )
         2           Na  tau(   2) = (   0.4999999   0.2886751   0.8152300  )

     number of k points=   732  Marzari-Vanderbilt smearing, width (Ry)=  0.0200

     Number of k-points >= 100: set verbosity='high' to print them.

     Dense  grid:    49045 G-vectors     FFT dimensions: (  45,  45,  72)

     Smooth grid:    17357 G-vectors     FFT dimensions: (  30,  30,  48)

     Largest allocated arrays     est. size (Mb)     dimensions
        Kohn-Sham Wavefunctions         0.06 Mb     (     287,   13)
        NL pseudopotentials             0.11 Mb     (     287,   26)
        Each V/rho on FFT grid          0.28 Mb     (   18225)
        Each G-vector array             0.05 Mb     (    6133)
        G-vector shells                 0.01 Mb     (    1816)
     Largest temporary arrays     est. size (Mb)     dimensions
        Auxiliary wavefunctions         0.23 Mb     (     287,   52)
        Each subspace H/S matrix        0.01 Mb     (      26,   26)
        Each <psi_i|beta_j> matrix      0.01 Mb     (      26,   13)

     The potential is recalculated from file :
     ./na_hcp_7.11/_ph0/na_hcp_7.11.save/charge-density.dat

     Starting wfc are   10 atomic +    3 random wfc

     Band Structure Calculation
     Davidson diagonalization with overlap

     ethr =  5.56E-11,  avg # of iterations = 23.8

     total cpu time spent up to now is       10.9 secs

     End of band structure calculation

     Number of k-points >= 100: set verbosity='high' to print the bands.

     the Fermi energy is     1.5452 ev

     Writing output data file na_hcp_7.11.save

                                                                                

     bravais-lattice index     =            4
     lattice parameter (alat)  =       7.1100  a.u.
     unit-cell volume          =     507.5158 (a.u.)^3
     number of atoms/cell      =            2
     number of atomic types    =            1
     kinetic-energy cut-off    =      40.0000  Ry
     charge density cut-off    =     320.0000  Ry
     convergence threshold     =      1.0E-15
     beta                      =       0.7000
     number of iterations used =            4
     Exchange-correlation      = SLA  PW   PBE  PBE ( 1  4  3  4 0 0)


     celldm(1)=    7.11000  celldm(2)=    0.00000  celldm(3)=    1.63046
     celldm(4)=    0.00000  celldm(5)=    0.00000  celldm(6)=    0.00000

     crystal axes: (cart. coord. in units of alat)
               a(1) = (  1.0000  0.0000  0.0000 )  
               a(2) = ( -0.5000  0.8660  0.0000 )  
               a(3) = (  0.0000  0.0000  1.6305 )  

     reciprocal axes: (cart. coord. in units 2 pi/alat)
               b(1) = (  1.0000  0.5774  0.0000 )  
               b(2) = (  0.0000  1.1547  0.0000 )  
               b(3) = (  0.0000  0.0000  0.6133 )  


     Atoms inside the unit cell: 

     Cartesian axes

     site n.  atom      mass           positions (alat units)
        1     Na  22.9900   tau(    1) = (    0.00000    0.00000    0.00000  )
        2     Na  22.9900   tau(    2) = (    0.50000    0.28868    0.81523  )

     Computing dynamical matrix for 
                    q = (   0.0000000   0.0000000  -0.3066619 )
 
     25 Sym.Ops. (with q -> -q+G )


     G cutoff =  409.7599  (   6133 G-vectors)     FFT grid: ( 45, 45, 72)
     G cutoff =  204.8799  (   2168 G-vectors)  smooth grid: ( 30, 30, 48)

     number of k points=   732  Marzari-Vanderbilt smearing, width (Ry)=  0.0200

     PseudoPot. # 1 for Na read from file:
     ./Na_pbe_v1.uspp.F.UPF
     MD5 check sum: 76a99c7e9422403d3e93cbc85ab7bccb
     Pseudo is Ultrasoft, Zval =  9.0
     Generated by new atomic code, or converted to UPF format
     Using radial grid of  819 points,  5 beta functions with: 
                l(1) =   0
                l(2) =   0
                l(3) =   1
                l(4) =   1
                l(5) =   2
     Q(r) pseudized with  8 coefficients,  rinner =    1.250   1.250   1.250
                                                       1.250   1.250


     Atomic displacements:
     There are   2 irreducible representations

     Representation     1      4 modes -  To be done

     Representation     2      2 modes -  To be done



     Alpha used in Ewald sum =   2.8000
     PHONON       :  3m 3.72s CPU     3m22.45s WALL



     Representation #  1 modes #   1  2  3  4

     Self-consistent Calculation

      iter #   1 total cpu time :   207.9 secs   av.it.:   5.2
      thresh= 1.000E-02 alpha_mix =  0.700 |ddv_scf|^2 =  1.789E-07

      iter #   2 total cpu time :   213.7 secs   av.it.:   9.4
      thresh= 4.230E-05 alpha_mix =  0.700 |ddv_scf|^2 =  3.211E-09

      iter #   3 total cpu time :   222.0 secs   av.it.:   9.7
      thresh= 5.667E-06 alpha_mix =  0.700 |ddv_scf|^2 =  8.719E-11

      iter #   4 total cpu time :   227.6 secs   av.it.:   9.2
      thresh= 9.337E-07 alpha_mix =  0.700 |ddv_scf|^2 =  2.874E-13

      iter #   5 total cpu time :   233.6 secs   av.it.:   9.5
      thresh= 5.361E-08 alpha_mix =  0.700 |ddv_scf|^2 =  5.307E-16

     End of self-consistent calculation

     Convergence has been achieved 


     Representation #  2 modes #   5  6

     Self-consistent Calculation

      iter #   1 total cpu time :   236.3 secs   av.it.:   5.7
      thresh= 1.000E-02 alpha_mix =  0.700 |ddv_scf|^2 =  1.842E-04

      iter #   2 total cpu time :   239.0 secs   av.it.:   7.7
      thresh= 1.357E-03 alpha_mix =  0.700 |ddv_scf|^2 =  5.070E-03

      iter #   3 total cpu time :   241.4 secs   av.it.:   6.1
      thresh= 7.120E-03 alpha_mix =  0.700 |ddv_scf|^2 =  1.288E-07

      iter #   4 total cpu time :   247.1 secs   av.it.:   8.6
      thresh= 3.588E-05 alpha_mix =  0.700 |ddv_scf|^2 =  6.784E-10

      iter #   5 total cpu time :   253.4 secs   av.it.:   9.5
      thresh= 2.605E-06 alpha_mix =  0.700 |ddv_scf|^2 =  5.276E-11

      iter #   6 total cpu time :   258.5 secs   av.it.:   9.4
      thresh= 7.264E-07 alpha_mix =  0.700 |ddv_scf|^2 =  1.313E-12

      iter #   7 total cpu time :   263.4 secs   av.it.:   9.7
      thresh= 1.146E-07 alpha_mix =  0.700 |ddv_scf|^2 =  1.975E-13

      iter #   8 total cpu time :   266.5 secs   av.it.:   8.3
      thresh= 4.444E-08 alpha_mix =  0.700 |ddv_scf|^2 =  3.057E-16

     End of self-consistent calculation

     Convergence has been achieved 
 
     Number of q in the star =    1
     List of q in the star:
          1   0.000000000   0.000000000  -0.306661924

     Diagonalizing the dynamical matrix

     q = (    0.000000000   0.000000000  -0.306661924 ) 

 **************************************************************************
     freq (    1) =       0.978221 [THz] =      32.629941 [cm-1]
     freq (    2) =       0.978221 [THz] =      32.629941 [cm-1]
     freq (    3) =       0.978221 [THz] =      32.629941 [cm-1]
     freq (    4) =       0.978221 [THz] =      32.629941 [cm-1]
     freq (    5) =       2.759366 [THz] =      92.042531 [cm-1]
     freq (    6) =       2.759366 [THz] =      92.042531 [cm-1]
 **************************************************************************

     Calculation of q =    0.0000000   0.2886751   0.0000000
 
     Parallelization info
     --------------------
     sticks:   dense  smooth     PW     G-vecs:    dense   smooth      PW
     Min         140      69     23                 6130     2159     395
     Max         142      70     24                 6133     2176     398
     Sum        1123     559    187                49045    17357    3177
 


     bravais-lattice index     =            4
     lattice parameter (alat)  =       7.1100  a.u.
     unit-cell volume          =     507.5158 (a.u.)^3
     number of atoms/cell      =            2
     number of atomic types    =            1
     number of electrons       =        18.00
     number of Kohn-Sham states=           13
     kinetic-energy cutoff     =      40.0000  Ry
     charge density cutoff     =     320.0000  Ry
     Exchange-correlation      = SLA  PW   PBE  PBE ( 1  4  3  4 0 0)

     celldm(1)=   7.110000  celldm(2)=   0.000000  celldm(3)=   1.630460
     celldm(4)=   0.000000  celldm(5)=   0.000000  celldm(6)=   0.000000

     crystal axes: (cart. coord. in units of alat)
               a(1) = (   1.000000   0.000000   0.000000 )  
               a(2) = (  -0.500000   0.866025   0.000000 )  
               a(3) = (   0.000000   0.000000   1.630460 )  

     reciprocal axes: (cart. coord. in units 2 pi/alat)
               b(1) = (  1.000000  0.577350  0.000000 )  
               b(2) = (  0.000000  1.154701  0.000000 )  
               b(3) = (  0.000000  0.000000  0.613324 )  


     PseudoPot. # 1 for Na read from file:
     ./Na_pbe_v1.uspp.F.UPF
     MD5 check sum: 76a99c7e9422403d3e93cbc85ab7bccb
     Pseudo is Ultrasoft, Zval =  9.0
     Generated by new atomic code, or converted to UPF format
     Using radial grid of  819 points,  5 beta functions with: 
                l(1) =   0
                l(2) =   0
                l(3) =   1
                l(4) =   1
                l(5) =   2
     Q(r) pseudized with  8 coefficients,  rinner =    1.250   1.250   1.250
                                                       1.250   1.250

     atomic species   valence    mass     pseudopotential
        Na             9.00    22.99000     Na( 1.00)

     24 Sym. Ops., with inversion, found



   Cartesian axes

     site n.     atom                  positions (alat units)
         1           Na  tau(   1) = (   0.0000000   0.0000000   0.0000000  )
         2           Na  tau(   2) = (   0.4999999   0.2886751   0.8152300  )

     number of k points=  3600  Marzari-Vanderbilt smearing, width (Ry)=  0.0200

     Number of k-points >= 100: set verbosity='high' to print them.

     Dense  grid:    49045 G-vectors     FFT dimensions: (  45,  45,  72)

     Smooth grid:    17357 G-vectors     FFT dimensions: (  30,  30,  48)

     Largest allocated arrays     est. size (Mb)     dimensions
        Kohn-Sham Wavefunctions         0.06 Mb     (     292,   13)
        NL pseudopotentials             0.12 Mb     (     292,   26)
        Each V/rho on FFT grid          0.28 Mb     (   18225)
        Each G-vector array             0.05 Mb     (    6133)
        G-vector shells                 0.01 Mb     (    1849)
     Largest temporary arrays     est. size (Mb)     dimensions
        Auxiliary wavefunctions         0.23 Mb     (     292,   52)
        Each subspace H/S matrix        0.01 Mb     (      26,   26)
        Each <psi_i|beta_j> matrix      0.01 Mb     (      26,   13)

     The potential is recalculated from file :
     ./na_hcp_7.11/_ph0/na_hcp_7.11.save/charge-density.dat

     Starting wfc are   10 atomic +    3 random wfc

     Band Structure Calculation
     Davidson diagonalization with overlap

     ethr =  5.56E-11,  avg # of iterations = 23.1

     total cpu time spent up to now is       25.7 secs

     End of band structure calculation

     Number of k-points >= 100: set verbosity='high' to print the bands.

     the Fermi energy is     1.5452 ev

     Writing output data file na_hcp_7.11.save

                                                                                

     bravais-lattice index     =            4
     lattice parameter (alat)  =       7.1100  a.u.
     unit-cell volume          =     507.5158 (a.u.)^3
     number of atoms/cell      =            2
     number of atomic types    =            1
     kinetic-energy cut-off    =      40.0000  Ry
     charge density cut-off    =     320.0000  Ry
     convergence threshold     =      1.0E-15
     beta                      =       0.7000
     number of iterations used =            4
     Exchange-correlation      = SLA  PW   PBE  PBE ( 1  4  3  4 0 0)


     celldm(1)=    7.11000  celldm(2)=    0.00000  celldm(3)=    1.63046
     celldm(4)=    0.00000  celldm(5)=    0.00000  celldm(6)=    0.00000

     crystal axes: (cart. coord. in units of alat)
               a(1) = (  1.0000  0.0000  0.0000 )  
               a(2) = ( -0.5000  0.8660  0.0000 )  
               a(3) = (  0.0000  0.0000  1.6305 )  

     reciprocal axes: (cart. coord. in units 2 pi/alat)
               b(1) = (  1.0000  0.5774  0.0000 )  
               b(2) = (  0.0000  1.1547  0.0000 )  
               b(3) = (  0.0000  0.0000  0.6133 )  


     Atoms inside the unit cell: 

     Cartesian axes

     site n.  atom      mass           positions (alat units)
        1     Na  22.9900   tau(    1) = (    0.00000    0.00000    0.00000  )
        2     Na  22.9900   tau(    2) = (    0.50000    0.28868    0.81523  )

     Computing dynamical matrix for 
                    q = (   0.0000000   0.2886751   0.0000000 )
 
      4 Sym.Ops. (no q -> -q+G )


     G cutoff =  409.7599  (   6133 G-vectors)     FFT grid: ( 45, 45, 72)
     G cutoff =  204.8799  (   2168 G-vectors)  smooth grid: ( 30, 30, 48)

     number of k points=  3600  Marzari-Vanderbilt smearing, width (Ry)=  0.0200

     PseudoPot. # 1 for Na read from file:
     ./Na_pbe_v1.uspp.F.UPF
     MD5 check sum: 76a99c7e9422403d3e93cbc85ab7bccb
     Pseudo is Ultrasoft, Zval =  9.0
     Generated by new atomic code, or converted to UPF format
     Using radial grid of  819 points,  5 beta functions with: 
                l(1) =   0
                l(2) =   0
                l(3) =   1
                l(4) =   1
                l(5) =   2
     Q(r) pseudized with  8 coefficients,  rinner =    1.250   1.250   1.250
                                                       1.250   1.250

     Mode symmetry, C_2v (mm2)  point group:


     Atomic displacements:
     There are   6 irreducible representations

     Representation     1      1 modes -A_1  D_1  S_1  To be done

     Representation     2      1 modes -A_1  D_1  S_1  To be done

     Representation     3      1 modes -B_1  D_3  S_3  To be done

     Representation     4      1 modes -B_1  D_3  S_3  To be done

     Representation     5      1 modes -B_2  D_4  S_4  To be done

     Representation     6      1 modes -B_2  D_4  S_4  To be done



     Alpha used in Ewald sum =   2.8000
     PHONON       :  4m20.26s CPU     4m46.81s WALL



     Representation #  1 mode #   1

     Self-consistent Calculation

      iter #   1 total cpu time :   289.0 secs   av.it.:   5.7
      thresh= 1.000E-02 alpha_mix =  0.700 |ddv_scf|^2 =  5.320E-04

      iter #   2 total cpu time :   302.2 secs   av.it.:   7.3
      thresh= 2.306E-03 alpha_mix =  0.700 |ddv_scf|^2 =  1.929E-02

      iter #   3 total cpu time :   310.1 secs   av.it.:   5.3
      thresh= 1.000E-02 alpha_mix =  0.700 |ddv_scf|^2 =  4.551E-07

      iter #   4 total cpu time :   321.9 secs   av.it.:   8.2
      thresh= 6.746E-05 alpha_mix =  0.700 |ddv_scf|^2 =  2.663E-08

      iter #   5 total cpu time :   327.2 secs   av.it.:   8.3
      thresh= 1.632E-05 alpha_mix =  0.700 |ddv_scf|^2 =  6.541E-10

      iter #   6 total cpu time :   342.5 secs   av.it.:   8.7
      thresh= 2.557E-06 alpha_mix =  0.700 |ddv_scf|^2 =  1.369E-10

      iter #   7 total cpu time :   346.8 secs   av.it.:   7.9
      thresh= 1.170E-06 alpha_mix =  0.700 |ddv_scf|^2 =  1.523E-09

      iter #   8 total cpu time :   351.6 secs   av.it.:   6.6
      thresh= 3.902E-06 alpha_mix =  0.700 |ddv_scf|^2 =  2.542E-12

      iter #   9 total cpu time :   355.2 secs   av.it.:   8.7
      thresh= 1.594E-07 alpha_mix =  0.700 |ddv_scf|^2 =  4.770E-13

      iter #  10 total cpu time :   359.1 secs   av.it.:   7.7
      thresh= 6.907E-08 alpha_mix =  0.700 |ddv_scf|^2 =  1.918E-12

      iter #  11 total cpu time :   363.6 secs   av.it.:   6.9
      thresh= 1.385E-07 alpha_mix =  0.700 |ddv_scf|^2 =  1.536E-15

      iter #  12 total cpu time :   367.7 secs   av.it.:   8.9
      thresh= 3.920E-09 alpha_mix =  0.700 |ddv_scf|^2 =  9.067E-17

     End of self-consistent calculation

     Convergence has been achieved 


     Representation #  2 mode #   2

     Self-consistent Calculation

      iter #   1 total cpu time :   371.9 secs   av.it.:   5.7
      thresh= 1.000E-02 alpha_mix =  0.700 |ddv_scf|^2 =  5.320E-04

      iter #   2 total cpu time :   375.9 secs   av.it.:   7.3
      thresh= 2.306E-03 alpha_mix =  0.700 |ddv_scf|^2 =  1.929E-02

      iter #   3 total cpu time :   379.6 secs   av.it.:   5.3
      thresh= 1.000E-02 alpha_mix =  0.700 |ddv_scf|^2 =  4.551E-07

      iter #   4 total cpu time :   384.5 secs   av.it.:   8.2
      thresh= 6.746E-05 alpha_mix =  0.700 |ddv_scf|^2 =  2.663E-08

      iter #   5 total cpu time :   389.5 secs   av.it.:   8.3
      thresh= 1.632E-05 alpha_mix =  0.700 |ddv_scf|^2 =  6.551E-10

      iter #   6 total cpu time :   395.5 secs   av.it.:   8.7
      thresh= 2.559E-06 alpha_mix =  0.700 |ddv_scf|^2 =  1.971E-10

      iter #   7 total cpu time :   408.2 secs   av.it.:   7.6
      thresh= 1.404E-06 alpha_mix =  0.700 |ddv_scf|^2 =  1.474E-09

      iter #   8 total cpu time :   412.1 secs   av.it.:   6.8
      thresh= 3.839E-06 alpha_mix =  0.700 |ddv_scf|^2 =  2.267E-12

      iter #   9 total cpu time :   415.8 secs   av.it.:   8.8
      thresh= 1.506E-07 alpha_mix =  0.700 |ddv_scf|^2 =  4.784E-13

      iter #  10 total cpu time :   420.9 secs   av.it.:   7.7
      thresh= 6.917E-08 alpha_mix =  0.700 |ddv_scf|^2 =  1.879E-12

      iter #  11 total cpu time :   424.6 secs   av.it.:   6.9
      thresh= 1.371E-07 alpha_mix =  0.700 |ddv_scf|^2 =  1.535E-15

      iter #  12 total cpu time :   428.7 secs   av.it.:   8.9
      thresh= 3.917E-09 alpha_mix =  0.700 |ddv_scf|^2 =  9.044E-17

     End of self-consistent calculation

     Convergence has been achieved 


     Representation #  3 mode #   3

     Self-consistent Calculation

      iter #   1 total cpu time :   432.9 secs   av.it.:   5.3
      thresh= 1.000E-02 alpha_mix =  0.700 |ddv_scf|^2 =  3.103E-06

      iter #   2 total cpu time :   437.0 secs   av.it.:   8.3
      thresh= 1.762E-04 alpha_mix =  0.700 |ddv_scf|^2 =  4.980E-08

      iter #   3 total cpu time :   441.5 secs   av.it.:   8.6
      thresh= 2.231E-05 alpha_mix =  0.700 |ddv_scf|^2 =  2.316E-09

      iter #   4 total cpu time :   445.3 secs   av.it.:   8.2
      thresh= 4.812E-06 alpha_mix =  0.700 |ddv_scf|^2 =  1.370E-11

      iter #   5 total cpu time :   450.3 secs   av.it.:   8.3
      thresh= 3.701E-07 alpha_mix =  0.700 |ddv_scf|^2 =  1.026E-13

      iter #   6 total cpu time :   457.1 secs   av.it.:   8.7
      thresh= 3.204E-08 alpha_mix =  0.700 |ddv_scf|^2 =  3.667E-16

     End of self-consistent calculation

     Convergence has been achieved 


     Representation #  4 mode #   4

     Self-consistent Calculation

      iter #   1 total cpu time :   460.9 secs   av.it.:   5.3
      thresh= 1.000E-02 alpha_mix =  0.700 |ddv_scf|^2 =  3.103E-06

      iter #   2 total cpu time :   466.5 secs   av.it.:   8.3
      thresh= 1.762E-04 alpha_mix =  0.700 |ddv_scf|^2 =  4.980E-08

      iter #   3 total cpu time :   471.7 secs   av.it.:   8.6
      thresh= 2.231E-05 alpha_mix =  0.700 |ddv_scf|^2 =  2.316E-09

      iter #   4 total cpu time :   476.0 secs   av.it.:   8.2
      thresh= 4.812E-06 alpha_mix =  0.700 |ddv_scf|^2 =  1.370E-11

      iter #   5 total cpu time :   480.3 secs   av.it.:   8.3
      thresh= 3.701E-07 alpha_mix =  0.700 |ddv_scf|^2 =  1.027E-13

      iter #   6 total cpu time :   484.0 secs   av.it.:   8.7
      thresh= 3.204E-08 alpha_mix =  0.700 |ddv_scf|^2 =  3.667E-16

     End of self-consistent calculation

     Convergence has been achieved 


     Representation #  5 mode #   5

     Self-consistent Calculation

      iter #   1 total cpu time :   489.7 secs   av.it.:   5.5
      thresh= 1.000E-02 alpha_mix =  0.700 |ddv_scf|^2 =  8.489E-06

      iter #   2 total cpu time :   494.3 secs   av.it.:   8.4
      thresh= 2.914E-04 alpha_mix =  0.700 |ddv_scf|^2 =  1.802E-06

      iter #   3 total cpu time :   498.0 secs   av.it.:   7.7
      thresh= 1.342E-04 alpha_mix =  0.700 |ddv_scf|^2 =  1.055E-08

      iter #   4 total cpu time :   502.6 secs   av.it.:   8.8
      thresh= 1.027E-05 alpha_mix =  0.700 |ddv_scf|^2 =  3.691E-10

      iter #   5 total cpu time :   506.8 secs   av.it.:   8.2
      thresh= 1.921E-06 alpha_mix =  0.700 |ddv_scf|^2 =  2.142E-12

      iter #   6 total cpu time :   512.3 secs   av.it.:   8.6
      thresh= 1.464E-07 alpha_mix =  0.700 |ddv_scf|^2 =  1.131E-14

      iter #   7 total cpu time :   523.1 secs   av.it.:   8.3
      thresh= 1.063E-08 alpha_mix =  0.700 |ddv_scf|^2 =  5.284E-16

     End of self-consistent calculation

     Convergence has been achieved 


     Representation #  6 mode #   6

     Self-consistent Calculation

      iter #   1 total cpu time :   527.9 secs   av.it.:   5.5
      thresh= 1.000E-02 alpha_mix =  0.700 |ddv_scf|^2 =  8.489E-06

      iter #   2 total cpu time :   532.0 secs   av.it.:   8.4
      thresh= 2.914E-04 alpha_mix =  0.700 |ddv_scf|^2 =  1.802E-06

      iter #   3 total cpu time :   536.2 secs   av.it.:   7.7
      thresh= 1.342E-04 alpha_mix =  0.700 |ddv_scf|^2 =  1.055E-08

      iter #   4 total cpu time :   540.1 secs   av.it.:   8.8
      thresh= 1.027E-05 alpha_mix =  0.700 |ddv_scf|^2 =  3.691E-10

      iter #   5 total cpu time :   544.5 secs   av.it.:   8.2
      thresh= 1.921E-06 alpha_mix =  0.700 |ddv_scf|^2 =  2.142E-12

      iter #   6 total cpu time :   548.8 secs   av.it.:   8.6
      thresh= 1.464E-07 alpha_mix =  0.700 |ddv_scf|^2 =  1.131E-14

      iter #   7 total cpu time :   553.2 secs   av.it.:   8.3
      thresh= 1.063E-08 alpha_mix =  0.700 |ddv_scf|^2 =  5.284E-16

     End of self-consistent calculation

     Convergence has been achieved 
 
     Number of q in the star =    6
     List of q in the star:
          1   0.000000000   0.288675135   0.000000000
          2  -0.250000000   0.144337567   0.000000000
          3   0.250000000  -0.144337567   0.000000000
          4  -0.250000000  -0.144337567   0.000000000
          5   0.250000000   0.144337567   0.000000000
          6   0.000000000  -0.288675135   0.000000000

     Diagonalizing the dynamical matrix

     q = (    0.000000000   0.288675135   0.000000000 ) 

 **************************************************************************
     freq (    1) =       1.137615 [THz] =      37.946758 [cm-1]
     freq (    2) =       1.376058 [THz] =      45.900338 [cm-1]
     freq (    3) =       2.321942 [THz] =      77.451643 [cm-1]
     freq (    4) =       2.440342 [THz] =      81.401063 [cm-1]
     freq (    5) =       2.973699 [THz] =      99.191915 [cm-1]
     freq (    6) =       3.520533 [THz] =     117.432354 [cm-1]
 **************************************************************************

     Mode symmetry, C_2v (mm2)  point group:

     freq (  1 -  1) =         37.9  [cm-1]   --> B_1  D_3  S_3      
     freq (  2 -  2) =         45.9  [cm-1]   --> B_2  D_4  S_4      
     freq (  3 -  3) =         77.5  [cm-1]   --> B_1  D_3  S_3      
     freq (  4 -  4) =         81.4  [cm-1]   --> A_1  D_1  S_1      
     freq (  5 -  5) =         99.2  [cm-1]   --> A_1  D_1  S_1      
     freq (  6 -  6) =        117.4  [cm-1]   --> B_2  D_4  S_4      

     Calculation of q =    0.0000000   0.2886751   0.1533310
 
     Parallelization info
     --------------------
     sticks:   dense  smooth     PW     G-vecs:    dense   smooth      PW
     Min         140      69     22                 6130     2159     407
     Max         142      70     24                 6133     2178     412
     Sum        1123     559    187                49045    17357    3285
 


     bravais-lattice index     =            4
     lattice parameter (alat)  =       7.1100  a.u.
     unit-cell volume          =     507.5158 (a.u.)^3
     number of atoms/cell      =            2
     number of atomic types    =            1
     number of electrons       =        18.00
     number of Kohn-Sham states=           13
     kinetic-energy cutoff     =      40.0000  Ry
     charge density cutoff     =     320.0000  Ry
     Exchange-correlation      = SLA  PW   PBE  PBE ( 1  4  3  4 0 0)

     celldm(1)=   7.110000  celldm(2)=   0.000000  celldm(3)=   1.630460
     celldm(4)=   0.000000  celldm(5)=   0.000000  celldm(6)=   0.000000

     crystal axes: (cart. coord. in units of alat)
               a(1) = (   1.000000   0.000000   0.000000 )  
               a(2) = (  -0.500000   0.866025   0.000000 )  
               a(3) = (   0.000000   0.000000   1.630460 )  

     reciprocal axes: (cart. coord. in units 2 pi/alat)
               b(1) = (  1.000000  0.577350  0.000000 )  
               b(2) = (  0.000000  1.154701  0.000000 )  
               b(3) = (  0.000000  0.000000  0.613324 )  


     PseudoPot. # 1 for Na read from file:
     ./Na_pbe_v1.uspp.F.UPF
     MD5 check sum: 76a99c7e9422403d3e93cbc85ab7bccb
     Pseudo is Ultrasoft, Zval =  9.0
     Generated by new atomic code, or converted to UPF format
     Using radial grid of  819 points,  5 beta functions with: 
                l(1) =   0
                l(2) =   0
                l(3) =   1
                l(4) =   1
                l(5) =   2
     Q(r) pseudized with  8 coefficients,  rinner =    1.250   1.250   1.250
                                                       1.250   1.250

     atomic species   valence    mass     pseudopotential
        Na             9.00    22.99000     Na( 1.00)

     24 Sym. Ops., with inversion, found



   Cartesian axes

     site n.     atom                  positions (alat units)
         1           Na  tau(   1) = (   0.0000000   0.0000000   0.0000000  )
         2           Na  tau(   2) = (   0.4999999   0.2886751   0.8152300  )

     number of k points=  7200  Marzari-Vanderbilt smearing, width (Ry)=  0.0200

     Number of k-points >= 100: set verbosity='high' to print them.

     Dense  grid:    49045 G-vectors     FFT dimensions: (  45,  45,  72)

     Smooth grid:    17357 G-vectors     FFT dimensions: (  30,  30,  48)

     Largest allocated arrays     est. size (Mb)     dimensions
        Kohn-Sham Wavefunctions         0.06 Mb     (     302,   13)
        NL pseudopotentials             0.12 Mb     (     302,   26)
        Each V/rho on FFT grid          0.28 Mb     (   18225)
        Each G-vector array             0.05 Mb     (    6133)
        G-vector shells                 0.01 Mb     (    1758)
     Largest temporary arrays     est. size (Mb)     dimensions
        Auxiliary wavefunctions         0.24 Mb     (     302,   52)
        Each subspace H/S matrix        0.01 Mb     (      26,   26)
        Each <psi_i|beta_j> matrix      0.01 Mb     (      26,   13)

     The potential is recalculated from file :
     ./na_hcp_7.11/_ph0/na_hcp_7.11.save/charge-density.dat

     Starting wfc are   10 atomic +    3 random wfc

     Band Structure Calculation
     Davidson diagonalization with overlap

     ethr =  5.56E-11,  avg # of iterations = 23.1

     total cpu time spent up to now is       71.1 secs

     End of band structure calculation

     Number of k-points >= 100: set verbosity='high' to print the bands.

     the Fermi energy is     1.5452 ev

     Writing output data file na_hcp_7.11.save

                                                                                

     bravais-lattice index     =            4
     lattice parameter (alat)  =       7.1100  a.u.
     unit-cell volume          =     507.5158 (a.u.)^3
     number of atoms/cell      =            2
     number of atomic types    =            1
     kinetic-energy cut-off    =      40.0000  Ry
     charge density cut-off    =     320.0000  Ry
     convergence threshold     =      1.0E-15
     beta                      =       0.7000
     number of iterations used =            4
     Exchange-correlation      = SLA  PW   PBE  PBE ( 1  4  3  4 0 0)


     celldm(1)=    7.11000  celldm(2)=    0.00000  celldm(3)=    1.63046
     celldm(4)=    0.00000  celldm(5)=    0.00000  celldm(6)=    0.00000

     crystal axes: (cart. coord. in units of alat)
               a(1) = (  1.0000  0.0000  0.0000 )  
               a(2) = ( -0.5000  0.8660  0.0000 )  
               a(3) = (  0.0000  0.0000  1.6305 )  

     reciprocal axes: (cart. coord. in units 2 pi/alat)
               b(1) = (  1.0000  0.5774  0.0000 )  
               b(2) = (  0.0000  1.1547  0.0000 )  
               b(3) = (  0.0000  0.0000  0.6133 )  


     Atoms inside the unit cell: 

     Cartesian axes

     site n.  atom      mass           positions (alat units)
        1     Na  22.9900   tau(    1) = (    0.00000    0.00000    0.00000  )
        2     Na  22.9900   tau(    2) = (    0.50000    0.28868    0.81523  )

     Computing dynamical matrix for 
                    q = (   0.0000000   0.2886751   0.1533310 )
 
      2 Sym.Ops. (no q -> -q+G )


     G cutoff =  409.7599  (   6133 G-vectors)     FFT grid: ( 45, 45, 72)
     G cutoff =  204.8799  (   2166 G-vectors)  smooth grid: ( 30, 30, 48)

     number of k points=  7200  Marzari-Vanderbilt smearing, width (Ry)=  0.0200

     PseudoPot. # 1 for Na read from file:
     ./Na_pbe_v1.uspp.F.UPF
     MD5 check sum: 76a99c7e9422403d3e93cbc85ab7bccb
     Pseudo is Ultrasoft, Zval =  9.0
     Generated by new atomic code, or converted to UPF format
     Using radial grid of  819 points,  5 beta functions with: 
                l(1) =   0
                l(2) =   0
                l(3) =   1
                l(4) =   1
                l(5) =   2
     Q(r) pseudized with  8 coefficients,  rinner =    1.250   1.250   1.250
                                                       1.250   1.250

     Mode symmetry, C_s (m)     point group:


     Atomic displacements:
     There are   6 irreducible representations

     Representation     1      1 modes -A'  To be done

     Representation     2      1 modes -A'  To be done

     Representation     3      1 modes -A'  To be done

     Representation     4      1 modes -A'  To be done

     Representation     5      1 modes -A''  To be done

     Representation     6      1 modes -A''  To be done



     Alpha used in Ewald sum =   2.8000
     PHONON       :  9m12.27s CPU    10m 6.04s WALL



     Representation #  1 mode #   1

     Self-consistent Calculation

      iter #   1 total cpu time :   611.2 secs   av.it.:   5.7
      thresh= 1.000E-02 alpha_mix =  0.700 |ddv_scf|^2 =  2.082E-04

      iter #   2 total cpu time :   642.4 secs   av.it.:   7.6
      thresh= 1.443E-03 alpha_mix =  0.700 |ddv_scf|^2 =  4.180E-03

      iter #   3 total cpu time :   666.3 secs   av.it.:   5.5
      thresh= 6.466E-03 alpha_mix =  0.700 |ddv_scf|^2 =  1.916E-06

      iter #   4 total cpu time :   676.9 secs   av.it.:   7.8
      thresh= 1.384E-04 alpha_mix =  0.700 |ddv_scf|^2 =  2.750E-07

      iter #   5 total cpu time :   699.5 secs   av.it.:   7.8
      thresh= 5.244E-05 alpha_mix =  0.700 |ddv_scf|^2 =  1.224E-09

      iter #   6 total cpu time :   710.2 secs   av.it.:   8.7
      thresh= 3.499E-06 alpha_mix =  0.700 |ddv_scf|^2 =  5.830E-11

      iter #   7 total cpu time :   721.9 secs   av.it.:   8.7
      thresh= 7.635E-07 alpha_mix =  0.700 |ddv_scf|^2 =  1.502E-11

      iter #   8 total cpu time :   741.8 secs   av.it.:   8.0
      thresh= 3.875E-07 alpha_mix =  0.700 |ddv_scf|^2 =  5.138E-11

      iter #   9 total cpu time :   749.9 secs   av.it.:   7.3
      thresh= 7.168E-07 alpha_mix =  0.700 |ddv_scf|^2 =  2.034E-13

      iter #  10 total cpu time :   762.0 secs   av.it.:   8.8
      thresh= 4.510E-08 alpha_mix =  0.700 |ddv_scf|^2 =  1.112E-13

      iter #  11 total cpu time :   773.2 secs   av.it.:   7.7
      thresh= 3.335E-08 alpha_mix =  0.700 |ddv_scf|^2 =  4.832E-14

      iter #  12 total cpu time :   781.1 secs   av.it.:   7.7
      thresh= 2.198E-08 alpha_mix =  0.700 |ddv_scf|^2 =  2.487E-14

      iter #  13 total cpu time :   793.6 secs   av.it.:   7.6
      thresh= 1.577E-08 alpha_mix =  0.700 |ddv_scf|^2 =  5.008E-16

     End of self-consistent calculation

     Convergence has been achieved 


     Representation #  2 mode #   2

     Self-consistent Calculation

      iter #   1 total cpu time :   815.7 secs   av.it.:   5.7
      thresh= 1.000E-02 alpha_mix =  0.700 |ddv_scf|^2 =  3.565E-05

      iter #   2 total cpu time :   834.2 secs   av.it.:   8.0
      thresh= 5.971E-04 alpha_mix =  0.700 |ddv_scf|^2 =  4.367E-04

      iter #   3 total cpu time :   846.8 secs   av.it.:   5.9
      thresh= 2.090E-03 alpha_mix =  0.700 |ddv_scf|^2 =  1.406E-05

      iter #   4 total cpu time :   852.6 secs   av.it.:   7.2
      thresh= 3.750E-04 alpha_mix =  0.700 |ddv_scf|^2 =  6.805E-08

      iter #   5 total cpu time :   864.3 secs   av.it.:   8.6
      thresh= 2.609E-05 alpha_mix =  0.700 |ddv_scf|^2 =  7.820E-10

      iter #   6 total cpu time :   875.0 secs   av.it.:   8.9
      thresh= 2.796E-06 alpha_mix =  0.700 |ddv_scf|^2 =  6.394E-11

      iter #   7 total cpu time :   885.3 secs   av.it.:   8.8
      thresh= 7.996E-07 alpha_mix =  0.700 |ddv_scf|^2 =  4.857E-11

      iter #   8 total cpu time :   895.9 secs   av.it.:   7.7
      thresh= 6.969E-07 alpha_mix =  0.700 |ddv_scf|^2 =  1.417E-10

      iter #   9 total cpu time :   906.7 secs   av.it.:   7.0
      thresh= 1.190E-06 alpha_mix =  0.700 |ddv_scf|^2 =  4.263E-12

      iter #  10 total cpu time :   920.8 secs   av.it.:   7.6
      thresh= 2.065E-07 alpha_mix =  0.700 |ddv_scf|^2 =  2.589E-12

      iter #  11 total cpu time :   931.3 secs   av.it.:   7.6
      thresh= 1.609E-07 alpha_mix =  0.700 |ddv_scf|^2 =  2.128E-14

      iter #  12 total cpu time :   942.0 secs   av.it.:   7.9
      thresh= 1.459E-08 alpha_mix =  0.700 |ddv_scf|^2 =  2.850E-15

      iter #  13 total cpu time :   955.3 secs   av.it.:   8.7
      thresh= 5.339E-09 alpha_mix =  0.700 |ddv_scf|^2 =  6.806E-17

     End of self-consistent calculation

     Convergence has been achieved 


     Representation #  3 mode #   3

     Self-consistent Calculation

      iter #   1 total cpu time :   967.4 secs   av.it.:   5.8
      thresh= 1.000E-02 alpha_mix =  0.700 |ddv_scf|^2 =  2.385E-04

      iter #   2 total cpu time :   979.8 secs   av.it.:   7.6
      thresh= 1.544E-03 alpha_mix =  0.700 |ddv_scf|^2 =  4.853E-03

      iter #   3 total cpu time :   993.3 secs   av.it.:   5.5
      thresh= 6.966E-03 alpha_mix =  0.700 |ddv_scf|^2 =  6.201E-07

      iter #   4 total cpu time :  1027.3 secs   av.it.:   8.0
      thresh= 7.875E-05 alpha_mix =  0.700 |ddv_scf|^2 =  2.878E-07

      iter #   5 total cpu time :  1042.4 secs   av.it.:   7.7
      thresh= 5.365E-05 alpha_mix =  0.700 |ddv_scf|^2 =  1.520E-09

      iter #   6 total cpu time :  1056.0 secs   av.it.:   8.7
      thresh= 3.899E-06 alpha_mix =  0.700 |ddv_scf|^2 =  7.366E-11

      iter #   7 total cpu time :  1068.1 secs   av.it.:   8.6
      thresh= 8.582E-07 alpha_mix =  0.700 |ddv_scf|^2 =  2.003E-12

      iter #   8 total cpu time :  1090.5 secs   av.it.:   9.2
      thresh= 1.415E-07 alpha_mix =  0.700 |ddv_scf|^2 =  4.461E-12

      iter #   9 total cpu time :  1112.9 secs   av.it.:   7.5
      thresh= 2.112E-07 alpha_mix =  0.700 |ddv_scf|^2 =  3.404E-12

      iter #  10 total cpu time :  1132.2 secs   av.it.:   7.5
      thresh= 1.845E-07 alpha_mix =  0.700 |ddv_scf|^2 =  2.150E-13

      iter #  11 total cpu time :  1145.6 secs   av.it.:   7.5
      thresh= 4.637E-08 alpha_mix =  0.700 |ddv_scf|^2 =  2.615E-14

      iter #  12 total cpu time :  1159.8 secs   av.it.:   8.0
      thresh= 1.617E-08 alpha_mix =  0.700 |ddv_scf|^2 =  4.604E-16

     End of self-consistent calculation

     Convergence has been achieved 


     Representation #  4 mode #   4

     Self-consistent Calculation

      iter #   1 total cpu time :  1169.9 secs   av.it.:   5.7
      thresh= 1.000E-02 alpha_mix =  0.700 |ddv_scf|^2 =  6.588E-05

      iter #   2 total cpu time :  1184.2 secs   av.it.:   7.8
      thresh= 8.117E-04 alpha_mix =  0.700 |ddv_scf|^2 =  1.109E-03

      iter #   3 total cpu time :  1196.9 secs   av.it.:   5.7
      thresh= 3.330E-03 alpha_mix =  0.700 |ddv_scf|^2 =  7.006E-06

      iter #   4 total cpu time :  1205.9 secs   av.it.:   7.5
      thresh= 2.647E-04 alpha_mix =  0.700 |ddv_scf|^2 =  1.072E-07

      iter #   5 total cpu time :  1225.0 secs   av.it.:   8.2
      thresh= 3.275E-05 alpha_mix =  0.700 |ddv_scf|^2 =  8.868E-10

      iter #   6 total cpu time :  1236.1 secs   av.it.:   8.9
      thresh= 2.978E-06 alpha_mix =  0.700 |ddv_scf|^2 =  7.457E-11

      iter #   7 total cpu time :  1250.2 secs   av.it.:   8.7
      thresh= 8.635E-07 alpha_mix =  0.700 |ddv_scf|^2 =  1.197E-11

      iter #   8 total cpu time :  1261.2 secs   av.it.:   8.6
      thresh= 3.459E-07 alpha_mix =  0.700 |ddv_scf|^2 =  1.388E-10

      iter #   9 total cpu time :  1270.8 secs   av.it.:   6.5
      thresh= 1.178E-06 alpha_mix =  0.700 |ddv_scf|^2 =  4.991E-13

      iter #  10 total cpu time :  1283.1 secs   av.it.:   8.4
      thresh= 7.065E-08 alpha_mix =  0.700 |ddv_scf|^2 =  1.055E-12

      iter #  11 total cpu time :  1295.2 secs   av.it.:   7.3
      thresh= 1.027E-07 alpha_mix =  0.700 |ddv_scf|^2 =  8.230E-14

      iter #  12 total cpu time :  1305.3 secs   av.it.:   7.7
      thresh= 2.869E-08 alpha_mix =  0.700 |ddv_scf|^2 =  9.839E-15

      iter #  13 total cpu time :  1319.4 secs   av.it.:   8.3
      thresh= 9.919E-09 alpha_mix =  0.700 |ddv_scf|^2 =  1.259E-16

     End of self-consistent calculation

     Convergence has been achieved 


     Representation #  5 mode #   5

     Self-consistent Calculation

      iter #   1 total cpu time :  1340.7 secs   av.it.:   5.3
      thresh= 1.000E-02 alpha_mix =  0.700 |ddv_scf|^2 =  3.096E-06

      iter #   2 total cpu time :  1351.7 secs   av.it.:   8.4
      thresh= 1.760E-04 alpha_mix =  0.700 |ddv_scf|^2 =  4.962E-08

      iter #   3 total cpu time :  1377.1 secs   av.it.:   8.7
      thresh= 2.228E-05 alpha_mix =  0.700 |ddv_scf|^2 =  2.328E-09

      iter #   4 total cpu time :  1411.1 secs   av.it.:   8.1
      thresh= 4.825E-06 alpha_mix =  0.700 |ddv_scf|^2 =  1.067E-11

      iter #   5 total cpu time :  1427.4 secs   av.it.:   8.4
      thresh= 3.267E-07 alpha_mix =  0.700 |ddv_scf|^2 =  7.581E-14

      iter #   6 total cpu time :  1442.3 secs   av.it.:   8.7
      thresh= 2.753E-08 alpha_mix =  0.700 |ddv_scf|^2 =  3.482E-16

     End of self-consistent calculation

     Convergence has been achieved 


     Representation #  6 mode #   6

     Self-consistent Calculation

      iter #   1 total cpu time :  1450.3 secs   av.it.:   5.3
      thresh= 1.000E-02 alpha_mix =  0.700 |ddv_scf|^2 =  3.096E-06

      iter #   2 total cpu time :  1468.6 secs   av.it.:   8.4
      thresh= 1.760E-04 alpha_mix =  0.700 |ddv_scf|^2 =  4.962E-08

      iter #   3 total cpu time :  1482.2 secs   av.it.:   8.7
      thresh= 2.228E-05 alpha_mix =  0.700 |ddv_scf|^2 =  2.328E-09

      iter #   4 total cpu time :  1498.8 secs   av.it.:   8.1
      thresh= 4.825E-06 alpha_mix =  0.700 |ddv_scf|^2 =  1.067E-11

      iter #   5 total cpu time :  1520.3 secs   av.it.:   8.4
      thresh= 3.267E-07 alpha_mix =  0.700 |ddv_scf|^2 =  7.581E-14

      iter #   6 total cpu time :  1533.2 secs   av.it.:   8.7
      thresh= 2.753E-08 alpha_mix =  0.700 |ddv_scf|^2 =  3.482E-16

     End of self-consistent calculation

     Convergence has been achieved 
 
     Number of q in the star =   12
     List of q in the star:
          1   0.000000000   0.288675135   0.153330962
          2   0.000000000   0.288675135  -0.153330962
          3  -0.250000000   0.144337567   0.153330962
          4   0.250000000  -0.144337567   0.153330962
          5  -0.250000000  -0.144337567   0.153330962
          6   0.250000000   0.144337567   0.153330962
          7   0.000000000  -0.288675135   0.153330962
          8   0.000000000  -0.288675135  -0.153330962
          9   0.250000000   0.144337567  -0.153330962
         10   0.250000000  -0.144337567  -0.153330962
         11  -0.250000000  -0.144337567  -0.153330962
         12  -0.250000000   0.144337567  -0.153330962

     Diagonalizing the dynamical matrix

     q = (    0.000000000   0.288675135   0.153330962 ) 

 **************************************************************************
     freq (    1) =       1.371155 [THz] =      45.736817 [cm-1]
     freq (    2) =       1.581581 [THz] =      52.755871 [cm-1]
     freq (    3) =       2.198620 [THz] =      73.338064 [cm-1]
     freq (    4) =       2.666319 [THz] =      88.938844 [cm-1]
     freq (    5) =       2.789637 [THz] =      93.052267 [cm-1]
     freq (    6) =       3.442234 [THz] =     114.820576 [cm-1]
 **************************************************************************

     Mode symmetry, C_s (m)     point group:

     freq (  1 -  1) =         45.7  [cm-1]   --> A''                
     freq (  2 -  2) =         52.8  [cm-1]   --> A'                 
     freq (  3 -  3) =         73.3  [cm-1]   --> A''                
     freq (  4 -  4) =         88.9  [cm-1]   --> A'                 
     freq (  5 -  5) =         93.1  [cm-1]   --> A'                 
     freq (  6 -  6) =        114.8  [cm-1]   --> A'                 

     Calculation of q =    0.0000000   0.2886751  -0.3066619
 
     Parallelization info
     --------------------
     sticks:   dense  smooth     PW     G-vecs:    dense   smooth      PW
     Min         140      69     23                 6130     2159     395
     Max         142      70     24                 6133     2176     398
     Sum        1123     559    187                49045    17357    3177
 


     bravais-lattice index     =            4
     lattice parameter (alat)  =       7.1100  a.u.
     unit-cell volume          =     507.5158 (a.u.)^3
     number of atoms/cell      =            2
     number of atomic types    =            1
     number of electrons       =        18.00
     number of Kohn-Sham states=           13
     kinetic-energy cutoff     =      40.0000  Ry
     charge density cutoff     =     320.0000  Ry
     Exchange-correlation      = SLA  PW   PBE  PBE ( 1  4  3  4 0 0)

     celldm(1)=   7.110000  celldm(2)=   0.000000  celldm(3)=   1.630460
     celldm(4)=   0.000000  celldm(5)=   0.000000  celldm(6)=   0.000000

     crystal axes: (cart. coord. in units of alat)
               a(1) = (   1.000000   0.000000   0.000000 )  
               a(2) = (  -0.500000   0.866025   0.000000 )  
               a(3) = (   0.000000   0.000000   1.630460 )  

     reciprocal axes: (cart. coord. in units 2 pi/alat)
               b(1) = (  1.000000  0.577350  0.000000 )  
               b(2) = (  0.000000  1.154701  0.000000 )  
               b(3) = (  0.000000  0.000000  0.613324 )  


     PseudoPot. # 1 for Na read from file:
     ./Na_pbe_v1.uspp.F.UPF
     MD5 check sum: 76a99c7e9422403d3e93cbc85ab7bccb
     Pseudo is Ultrasoft, Zval =  9.0
     Generated by new atomic code, or converted to UPF format
     Using radial grid of  819 points,  5 beta functions with: 
                l(1) =   0
                l(2) =   0
                l(3) =   1
                l(4) =   1
                l(5) =   2
     Q(r) pseudized with  8 coefficients,  rinner =    1.250   1.250   1.250
                                                       1.250   1.250

     atomic species   valence    mass     pseudopotential
        Na             9.00    22.99000     Na( 1.00)

     24 Sym. Ops., with inversion, found



   Cartesian axes

     site n.     atom                  positions (alat units)
         1           Na  tau(   1) = (   0.0000000   0.0000000   0.0000000  )
         2           Na  tau(   2) = (   0.4999999   0.2886751   0.8152300  )

     number of k points=  3600  Marzari-Vanderbilt smearing, width (Ry)=  0.0200

     Number of k-points >= 100: set verbosity='high' to print them.

     Dense  grid:    49045 G-vectors     FFT dimensions: (  45,  45,  72)

     Smooth grid:    17357 G-vectors     FFT dimensions: (  30,  30,  48)

     Largest allocated arrays     est. size (Mb)     dimensions
        Kohn-Sham Wavefunctions         0.06 Mb     (     292,   13)
        NL pseudopotentials             0.12 Mb     (     292,   26)
        Each V/rho on FFT grid          0.28 Mb     (   18225)
        Each G-vector array             0.05 Mb     (    6133)
        G-vector shells                 0.01 Mb     (    1849)
     Largest temporary arrays     est. size (Mb)     dimensions
        Auxiliary wavefunctions         0.23 Mb     (     292,   52)
        Each subspace H/S matrix        0.01 Mb     (      26,   26)
        Each <psi_i|beta_j> matrix      0.01 Mb     (      26,   13)

     The potential is recalculated from file :
     ./na_hcp_7.11/_ph0/na_hcp_7.11.save/charge-density.dat

     Starting wfc are   10 atomic +    3 random wfc

     Band Structure Calculation
     Davidson diagonalization with overlap

     ethr =  5.56E-11,  avg # of iterations = 23.2

     total cpu time spent up to now is       93.1 secs

     End of band structure calculation

     Number of k-points >= 100: set verbosity='high' to print the bands.

     the Fermi energy is     1.5452 ev

     Writing output data file na_hcp_7.11.save

                                                                                

     bravais-lattice index     =            4
     lattice parameter (alat)  =       7.1100  a.u.
     unit-cell volume          =     507.5158 (a.u.)^3
     number of atoms/cell      =            2
     number of atomic types    =            1
     kinetic-energy cut-off    =      40.0000  Ry
     charge density cut-off    =     320.0000  Ry
     convergence threshold     =      1.0E-15
     beta                      =       0.7000
     number of iterations used =            4
     Exchange-correlation      = SLA  PW   PBE  PBE ( 1  4  3  4 0 0)


     celldm(1)=    7.11000  celldm(2)=    0.00000  celldm(3)=    1.63046
     celldm(4)=    0.00000  celldm(5)=    0.00000  celldm(6)=    0.00000

     crystal axes: (cart. coord. in units of alat)
               a(1) = (  1.0000  0.0000  0.0000 )  
               a(2) = ( -0.5000  0.8660  0.0000 )  
               a(3) = (  0.0000  0.0000  1.6305 )  

     reciprocal axes: (cart. coord. in units 2 pi/alat)
               b(1) = (  1.0000  0.5774  0.0000 )  
               b(2) = (  0.0000  1.1547  0.0000 )  
               b(3) = (  0.0000  0.0000  0.6133 )  


     Atoms inside the unit cell: 

     Cartesian axes

     site n.  atom      mass           positions (alat units)
        1     Na  22.9900   tau(    1) = (    0.00000    0.00000    0.00000  )
        2     Na  22.9900   tau(    2) = (    0.50000    0.28868    0.81523  )

     Computing dynamical matrix for 
                    q = (   0.0000000   0.2886751  -0.3066619 )
 
      4 Sym.Ops. (no q -> -q+G )


     G cutoff =  409.7599  (   6133 G-vectors)     FFT grid: ( 45, 45, 72)
     G cutoff =  204.8799  (   2168 G-vectors)  smooth grid: ( 30, 30, 48)

     number of k points=  3600  Marzari-Vanderbilt smearing, width (Ry)=  0.0200

     PseudoPot. # 1 for Na read from file:
     ./Na_pbe_v1.uspp.F.UPF
     MD5 check sum: 76a99c7e9422403d3e93cbc85ab7bccb
     Pseudo is Ultrasoft, Zval =  9.0
     Generated by new atomic code, or converted to UPF format
     Using radial grid of  819 points,  5 beta functions with: 
                l(1) =   0
                l(2) =   0
                l(3) =   1
                l(4) =   1
                l(5) =   2
     Q(r) pseudized with  8 coefficients,  rinner =    1.250   1.250   1.250
                                                       1.250   1.250

     Mode symmetry, C_2v (mm2)  point group:


     Atomic displacements:
     There are   6 irreducible representations

     Representation     1      1 modes -A_1  D_1  S_1  To be done

     Representation     2      1 modes -A_1  D_1  S_1  To be done

     Representation     3      1 modes -A_2  D_2  S_2  To be done

     Representation     4      1 modes -B_1  D_3  S_3  To be done

     Representation     5      1 modes -B_2  D_4  S_4  To be done

     Representation     6      1 modes -B_2  D_4  S_4  To be done



     Alpha used in Ewald sum =   2.8000
     PHONON       : 22m37.76s CPU    25m52.43s WALL



     Representation #  1 mode #   1

     Self-consistent Calculation

      iter #   1 total cpu time :  1554.6 secs   av.it.:   5.6
      thresh= 1.000E-02 alpha_mix =  0.700 |ddv_scf|^2 =  5.699E-05

      iter #   2 total cpu time :  1558.5 secs   av.it.:   7.9
      thresh= 7.549E-04 alpha_mix =  0.700 |ddv_scf|^2 =  3.173E-04

      iter #   3 total cpu time :  1562.4 secs   av.it.:   6.7
      thresh= 1.781E-03 alpha_mix =  0.700 |ddv_scf|^2 =  3.858E-08

      iter #   4 total cpu time :  1569.9 secs   av.it.:   8.9
      thresh= 1.964E-05 alpha_mix =  0.700 |ddv_scf|^2 =  1.972E-09

      iter #   5 total cpu time :  1575.2 secs   av.it.:   8.9
      thresh= 4.441E-06 alpha_mix =  0.700 |ddv_scf|^2 =  7.284E-11

      iter #   6 total cpu time :  1579.6 secs   av.it.:   9.1
      thresh= 8.535E-07 alpha_mix =  0.700 |ddv_scf|^2 =  3.602E-12

      iter #   7 total cpu time :  1585.0 secs   av.it.:   8.8
      thresh= 1.898E-07 alpha_mix =  0.700 |ddv_scf|^2 =  2.869E-12

      iter #   8 total cpu time :  1588.8 secs   av.it.:   7.6
      thresh= 1.694E-07 alpha_mix =  0.700 |ddv_scf|^2 =  1.939E-12

      iter #   9 total cpu time :  1593.9 secs   av.it.:   7.6
      thresh= 1.392E-07 alpha_mix =  0.700 |ddv_scf|^2 =  5.736E-13

      iter #  10 total cpu time :  1597.6 secs   av.it.:   7.4
      thresh= 7.574E-08 alpha_mix =  0.700 |ddv_scf|^2 =  4.653E-16

     End of self-consistent calculation

     Convergence has been achieved 


     Representation #  2 mode #   2

     Self-consistent Calculation

      iter #   1 total cpu time :  1602.8 secs   av.it.:   5.7
      thresh= 1.000E-02 alpha_mix =  0.700 |ddv_scf|^2 =  6.393E-05

      iter #   2 total cpu time :  1611.8 secs   av.it.:   7.9
      thresh= 7.996E-04 alpha_mix =  0.700 |ddv_scf|^2 =  3.603E-04

      iter #   3 total cpu time :  1617.0 secs   av.it.:   6.7
      thresh= 1.898E-03 alpha_mix =  0.700 |ddv_scf|^2 =  5.025E-08

      iter #   4 total cpu time :  1620.9 secs   av.it.:   8.8
      thresh= 2.242E-05 alpha_mix =  0.700 |ddv_scf|^2 =  1.818E-09

      iter #   5 total cpu time :  1635.3 secs   av.it.:   8.9
      thresh= 4.264E-06 alpha_mix =  0.700 |ddv_scf|^2 =  9.421E-11

      iter #   6 total cpu time :  1640.9 secs   av.it.:   9.2
      thresh= 9.706E-07 alpha_mix =  0.700 |ddv_scf|^2 =  3.555E-12

      iter #   7 total cpu time :  1654.5 secs   av.it.:   8.8
      thresh= 1.886E-07 alpha_mix =  0.700 |ddv_scf|^2 =  3.171E-12

      iter #   8 total cpu time :  1665.8 secs   av.it.:   7.6
      thresh= 1.781E-07 alpha_mix =  0.700 |ddv_scf|^2 =  1.126E-12

      iter #   9 total cpu time :  1676.8 secs   av.it.:   7.7
      thresh= 1.061E-07 alpha_mix =  0.700 |ddv_scf|^2 =  3.549E-13

      iter #  10 total cpu time :  1684.3 secs   av.it.:   7.5
      thresh= 5.957E-08 alpha_mix =  0.700 |ddv_scf|^2 =  8.115E-16

     End of self-consistent calculation

     Convergence has been achieved 


     Representation #  3 mode #   3

     Self-consistent Calculation

      iter #   1 total cpu time :  1692.6 secs   av.it.:   5.3
      thresh= 1.000E-02 alpha_mix =  0.700 |ddv_scf|^2 =  3.090E-06

      iter #   2 total cpu time :  1699.5 secs   av.it.:   8.4
      thresh= 1.758E-04 alpha_mix =  0.700 |ddv_scf|^2 =  4.936E-08

      iter #   3 total cpu time :  1708.0 secs   av.it.:   8.7
      thresh= 2.222E-05 alpha_mix =  0.700 |ddv_scf|^2 =  2.362E-09

[...]
      iter #   4 total cpu time :  3976.6 secs   av.it.:   8.5
      thresh= 1.184E-05 alpha_mix =  0.700 |ddv_scf|^2 =  1.165E-09

      iter #   5 total cpu time :  4003.8 secs   av.it.:   8.6
      thresh= 3.413E-06 alpha_mix =  0.700 |ddv_scf|^2 =  1.438E-11

      iter #   6 total cpu time :  4023.1 secs   av.it.:   8.5
      thresh= 3.792E-07 alpha_mix =  0.700 |ddv_scf|^2 =  8.072E-13

      iter #   7 total cpu time :  4045.5 secs   av.it.:   8.8
      thresh= 8.984E-08 alpha_mix =  0.700 |ddv_scf|^2 =  1.917E-14

      iter #   8 total cpu time :  4060.7 secs   av.it.:   8.9
      thresh= 1.384E-08 alpha_mix =  0.700 |ddv_scf|^2 =  4.113E-16

     End of self-consistent calculation

     Convergence has been achieved 
 
     Number of q in the star =   12
     List of q in the star:
          1   0.250000000   0.433012702   0.153330962
          2   0.250000000   0.433012702  -0.153330962
          3  -0.250000000   0.433012702   0.153330962
          4   0.250000000  -0.433012702  -0.153330962
          5  -0.250000000   0.433012702  -0.153330962
          6  -0.250000000  -0.433012702  -0.153330962
          7   0.500000000  -0.000000000   0.153330962
          8   0.250000000  -0.433012702   0.153330962
          9  -0.500000000   0.000000000   0.153330962
         10  -0.250000000  -0.433012702   0.153330962
         11  -0.500000000   0.000000000  -0.153330962
         12   0.500000000  -0.000000000  -0.153330962

     Diagonalizing the dynamical matrix

     q = (    0.250000000   0.433012702   0.153330962 ) 

 **************************************************************************
     freq (    1) =       1.897015 [THz] =      63.277603 [cm-1]
     freq (    2) =       2.353549 [THz] =      78.505950 [cm-1]
     freq (    3) =       2.907902 [THz] =      96.997166 [cm-1]
     freq (    4) =       2.927422 [THz] =      97.648280 [cm-1]
     freq (    5) =       3.426736 [THz] =     114.303621 [cm-1]
     freq (    6) =       3.576382 [THz] =     119.295276 [cm-1]
 **************************************************************************

     Mode symmetry, C_s (m)     point group:

     freq (  1 -  1) =         63.3  [cm-1]   --> A'                 
     freq (  2 -  2) =         78.5  [cm-1]   --> A''                
     freq (  3 -  3) =         97.0  [cm-1]   --> A''                
     freq (  4 -  4) =         97.6  [cm-1]   --> A'                 
     freq (  5 -  5) =        114.3  [cm-1]   --> A'                 
     freq (  6 -  6) =        119.3  [cm-1]   --> A''                

     Calculation of q =    0.2500000   0.4330127  -0.3066619
 
     Parallelization info
     --------------------
     sticks:   dense  smooth     PW     G-vecs:    dense   smooth      PW
     Min         140      69     24                 6130     2162     428
     Max         142      70     25                 6133     2176     431
     Sum        1123     559    199                49045    17357    3441
 


     bravais-lattice index     =            4
     lattice parameter (alat)  =       7.1100  a.u.
     unit-cell volume          =     507.5158 (a.u.)^3
     number of atoms/cell      =            2
     number of atomic types    =            1
     number of electrons       =        18.00
     number of Kohn-Sham states=           13
     kinetic-energy cutoff     =      40.0000  Ry
     charge density cutoff     =     320.0000  Ry
     Exchange-correlation      = SLA  PW   PBE  PBE ( 1  4  3  4 0 0)

     celldm(1)=   7.110000  celldm(2)=   0.000000  celldm(3)=   1.630460
     celldm(4)=   0.000000  celldm(5)=   0.000000  celldm(6)=   0.000000

     crystal axes: (cart. coord. in units of alat)
               a(1) = (   1.000000   0.000000   0.000000 )  
               a(2) = (  -0.500000   0.866025   0.000000 )  
               a(3) = (   0.000000   0.000000   1.630460 )  

     reciprocal axes: (cart. coord. in units 2 pi/alat)
               b(1) = (  1.000000  0.577350  0.000000 )  
               b(2) = (  0.000000  1.154701  0.000000 )  
               b(3) = (  0.000000  0.000000  0.613324 )  


     PseudoPot. # 1 for Na read from file:
     ./Na_pbe_v1.uspp.F.UPF
     MD5 check sum: 76a99c7e9422403d3e93cbc85ab7bccb
     Pseudo is Ultrasoft, Zval =  9.0
     Generated by new atomic code, or converted to UPF format
     Using radial grid of  819 points,  5 beta functions with: 
                l(1) =   0
                l(2) =   0
                l(3) =   1
                l(4) =   1
                l(5) =   2
     Q(r) pseudized with  8 coefficients,  rinner =    1.250   1.250   1.250
                                                       1.250   1.250

     atomic species   valence    mass     pseudopotential
        Na             9.00    22.99000     Na( 1.00)

     24 Sym. Ops., with inversion, found



   Cartesian axes

     site n.     atom                  positions (alat units)
         1           Na  tau(   1) = (   0.0000000   0.0000000   0.0000000  )
         2           Na  tau(   2) = (   0.4999999   0.2886751   0.8152300  )

     number of k points=  3600  Marzari-Vanderbilt smearing, width (Ry)=  0.0200

     Number of k-points >= 100: set verbosity='high' to print them.

     Dense  grid:    49045 G-vectors     FFT dimensions: (  45,  45,  72)

     Smooth grid:    17357 G-vectors     FFT dimensions: (  30,  30,  48)

     Largest allocated arrays     est. size (Mb)     dimensions
        Kohn-Sham Wavefunctions         0.06 Mb     (     284,   13)
        NL pseudopotentials             0.11 Mb     (     284,   26)
        Each V/rho on FFT grid          0.28 Mb     (   18225)
        Each G-vector array             0.05 Mb     (    6133)
        G-vector shells                 0.01 Mb     (    1812)
     Largest temporary arrays     est. size (Mb)     dimensions
        Auxiliary wavefunctions         0.23 Mb     (     284,   52)
        Each subspace H/S matrix        0.01 Mb     (      26,   26)
        Each <psi_i|beta_j> matrix      0.01 Mb     (      26,   13)

     The potential is recalculated from file :
     ./na_hcp_7.11/_ph0/na_hcp_7.11.save/charge-density.dat

     Starting wfc are   10 atomic +    3 random wfc

     Band Structure Calculation
     Davidson diagonalization with overlap

     ethr =  5.56E-11,  avg # of iterations = 22.9

     total cpu time spent up to now is      214.3 secs

     End of band structure calculation

     Number of k-points >= 100: set verbosity='high' to print the bands.

     the Fermi energy is     1.5452 ev

     Writing output data file na_hcp_7.11.save

                                                                                

     bravais-lattice index     =            4
     lattice parameter (alat)  =       7.1100  a.u.
     unit-cell volume          =     507.5158 (a.u.)^3
     number of atoms/cell      =            2
     number of atomic types    =            1
     kinetic-energy cut-off    =      40.0000  Ry
     charge density cut-off    =     320.0000  Ry
     convergence threshold     =      1.0E-15
     beta                      =       0.7000
     number of iterations used =            4
     Exchange-correlation      = SLA  PW   PBE  PBE ( 1  4  3  4 0 0)


     celldm(1)=    7.11000  celldm(2)=    0.00000  celldm(3)=    1.63046
     celldm(4)=    0.00000  celldm(5)=    0.00000  celldm(6)=    0.00000

     crystal axes: (cart. coord. in units of alat)
               a(1) = (  1.0000  0.0000  0.0000 )  
               a(2) = ( -0.5000  0.8660  0.0000 )  
               a(3) = (  0.0000  0.0000  1.6305 )  

     reciprocal axes: (cart. coord. in units 2 pi/alat)
               b(1) = (  1.0000  0.5774  0.0000 )  
               b(2) = (  0.0000  1.1547  0.0000 )  
               b(3) = (  0.0000  0.0000  0.6133 )  


     Atoms inside the unit cell: 

     Cartesian axes

     site n.  atom      mass           positions (alat units)
        1     Na  22.9900   tau(    1) = (    0.00000    0.00000    0.00000  )
        2     Na  22.9900   tau(    2) = (    0.50000    0.28868    0.81523  )

     Computing dynamical matrix for 
                    q = (   0.2500000   0.4330127  -0.3066619 )
 
      4 Sym.Ops. (no q -> -q+G )


     G cutoff =  409.7599  (   6133 G-vectors)     FFT grid: ( 45, 45, 72)
     G cutoff =  204.8799  (   2162 G-vectors)  smooth grid: ( 30, 30, 48)

     number of k points=  3600  Marzari-Vanderbilt smearing, width (Ry)=  0.0200

     PseudoPot. # 1 for Na read from file:
     ./Na_pbe_v1.uspp.F.UPF
     MD5 check sum: 76a99c7e9422403d3e93cbc85ab7bccb
     Pseudo is Ultrasoft, Zval =  9.0
     Generated by new atomic code, or converted to UPF format
     Using radial grid of  819 points,  5 beta functions with: 
                l(1) =   0
                l(2) =   0
                l(3) =   1
                l(4) =   1
                l(5) =   2
     Q(r) pseudized with  8 coefficients,  rinner =    1.250   1.250   1.250
                                                       1.250   1.250


     Atomic displacements:
     There are   3 irreducible representations

     Representation     1      2 modes -  To be done

     Representation     2      2 modes -  To be done

     Representation     3      2 modes -  To be done



     Alpha used in Ewald sum =   2.8000
     PHONON       :     1h 2m CPU        1h 8m WALL



     Representation #  1 modes #   1  2

     Self-consistent Calculation

      iter #   1 total cpu time :  4105.5 secs   av.it.:   5.7
      thresh= 1.000E-02 alpha_mix =  0.700 |ddv_scf|^2 =  2.898E-06

      iter #   2 total cpu time :  4131.9 secs   av.it.:   9.0
      thresh= 1.702E-04 alpha_mix =  0.700 |ddv_scf|^2 =  1.638E-06

      iter #   3 total cpu time :  4154.8 secs   av.it.:   8.1
      thresh= 1.280E-04 alpha_mix =  0.700 |ddv_scf|^2 =  1.099E-08

      iter #   4 total cpu time :  4185.4 secs   av.it.:   9.3
      thresh= 1.048E-05 alpha_mix =  0.700 |ddv_scf|^2 =  2.993E-10

      iter #   5 total cpu time :  4216.4 secs   av.it.:   9.6
      thresh= 1.730E-06 alpha_mix =  0.700 |ddv_scf|^2 =  1.640E-11

      iter #   6 total cpu time :  4258.0 secs   av.it.:   9.7
      thresh= 4.050E-07 alpha_mix =  0.700 |ddv_scf|^2 =  1.106E-12

      iter #   7 total cpu time :  4280.3 secs   av.it.:   9.8
      thresh= 1.052E-07 alpha_mix =  0.700 |ddv_scf|^2 =  1.228E-14

      iter #   8 total cpu time :  4303.0 secs   av.it.:   9.6
      thresh= 1.108E-08 alpha_mix =  0.700 |ddv_scf|^2 =  3.120E-16

     End of self-consistent calculation

     Convergence has been achieved 


     Representation #  2 modes #   3  4

     Self-consistent Calculation

      iter #   1 total cpu time :  4343.3 secs   av.it.:   5.7
      thresh= 1.000E-02 alpha_mix =  0.700 |ddv_scf|^2 =  2.243E-06

      iter #   2 total cpu time :  4381.6 secs   av.it.:   9.0
      thresh= 1.498E-04 alpha_mix =  0.700 |ddv_scf|^2 =  1.135E-06

      iter #   3 total cpu time :  4402.8 secs   av.it.:   8.2
      thresh= 1.065E-04 alpha_mix =  0.700 |ddv_scf|^2 =  1.325E-08

      iter #   4 total cpu time :  4424.1 secs   av.it.:   9.2
      thresh= 1.151E-05 alpha_mix =  0.700 |ddv_scf|^2 =  2.869E-10

      iter #   5 total cpu time :  4450.1 secs   av.it.:   9.4
      thresh= 1.694E-06 alpha_mix =  0.700 |ddv_scf|^2 =  2.116E-11

      iter #   6 total cpu time :  4480.1 secs   av.it.:   9.5
      thresh= 4.600E-07 alpha_mix =  0.700 |ddv_scf|^2 =  7.763E-13

      iter #   7 total cpu time :  4507.2 secs   av.it.:  10.0
      thresh= 8.811E-08 alpha_mix =  0.700 |ddv_scf|^2 =  1.469E-14

      iter #   8 total cpu time :  4539.1 secs   av.it.:   9.8
      thresh= 1.212E-08 alpha_mix =  0.700 |ddv_scf|^2 =  8.834E-16

     End of self-consistent calculation

     Convergence has been achieved 


     Representation #  3 modes #   5  6

     Self-consistent Calculation

      iter #   1 total cpu time :  4571.1 secs   av.it.:   5.7
      thresh= 1.000E-02 alpha_mix =  0.700 |ddv_scf|^2 =  2.136E-06

      iter #   2 total cpu time :  4598.3 secs   av.it.:   9.0
      thresh= 1.462E-04 alpha_mix =  0.700 |ddv_scf|^2 =  8.631E-07

      iter #   3 total cpu time :  4617.8 secs   av.it.:   8.3
      thresh= 9.290E-05 alpha_mix =  0.700 |ddv_scf|^2 =  2.402E-08

      iter #   4 total cpu time :  4639.8 secs   av.it.:   9.0
      thresh= 1.550E-05 alpha_mix =  0.700 |ddv_scf|^2 =  3.951E-10

      iter #   5 total cpu time :  4665.3 secs   av.it.:   9.5
      thresh= 1.988E-06 alpha_mix =  0.700 |ddv_scf|^2 =  1.045E-11

      iter #   6 total cpu time :  4682.5 secs   av.it.:   9.7
      thresh= 3.233E-07 alpha_mix =  0.700 |ddv_scf|^2 =  8.087E-13

      iter #   7 total cpu time :  4709.2 secs   av.it.:   9.9
      thresh= 8.993E-08 alpha_mix =  0.700 |ddv_scf|^2 =  1.933E-14

      iter #   8 total cpu time :  4742.2 secs   av.it.:   9.9
      thresh= 1.390E-08 alpha_mix =  0.700 |ddv_scf|^2 =  2.121E-16

     End of self-consistent calculation

     Convergence has been achieved 
 
     Number of q in the star =    6
     List of q in the star:
          1   0.250000000   0.433012702  -0.306661924
          2  -0.250000000   0.433012702  -0.306661924
          3   0.250000000  -0.433012702   0.306661924
          4  -0.250000000  -0.433012702   0.306661924
          5   0.500000000  -0.000000000  -0.306661924
          6  -0.500000000   0.000000000  -0.306661924

     Diagonalizing the dynamical matrix

     q = (    0.250000000   0.433012702  -0.306661924 ) 

 **************************************************************************
     freq (    1) =       1.989179 [THz] =      66.351853 [cm-1]
     freq (    2) =       1.989179 [THz] =      66.351853 [cm-1]
     freq (    3) =       2.948144 [THz] =      98.339500 [cm-1]
     freq (    4) =       2.948144 [THz] =      98.339500 [cm-1]
     freq (    5) =       3.631764 [THz] =     121.142613 [cm-1]
     freq (    6) =       3.631764 [THz] =     121.142613 [cm-1]
 **************************************************************************
 
     init_run     :      1.54s CPU      1.71s WALL (      11 calls)
     electrons    :    164.91s CPU    168.34s WALL (      11 calls)

     Called by init_run:
     wfcinit      :      0.01s CPU      0.11s WALL (      11 calls)
     potinit      :      0.25s CPU      0.30s WALL (      11 calls)

     Called by electrons:
     c_bands      :    164.86s CPU    168.30s WALL (      11 calls)
     v_of_rho     :      0.10s CPU      0.12s WALL (      12 calls)
     newd         :      0.13s CPU      0.14s WALL (      12 calls)

     Called by c_bands:
     init_us_2    :      3.22s CPU      3.49s WALL (   48070 calls)
     cegterg      :     74.80s CPU     76.43s WALL (    3048 calls)

     Called by sum_band:

     Called by *egterg:
     h_psi        :     43.85s CPU     44.59s WALL (   49524 calls)
     s_psi        :     44.47s CPU     47.37s WALL ( 1179397 calls)
     g_psi        :      0.44s CPU      0.46s WALL (   44864 calls)
     cdiaghg      :     21.17s CPU     21.69s WALL (   46476 calls)

     Called by h_psi:
     add_vuspsi   :     26.95s CPU     28.58s WALL (  593308 calls)

     General routines
     calbec       :     68.25s CPU     71.52s WALL ( 1257870 calls)
     fft          :      2.86s CPU      2.96s WALL (    8961 calls)
     ffts         :      1.25s CPU      1.30s WALL (    7227 calls)
     fftw         :   1570.45s CPU   1597.97s WALL ( 9195700 calls)
     interpolate  :      0.62s CPU      0.73s WALL (    1235 calls)
     davcio       :     10.22s CPU    332.50s WALL (  215449 calls)
 
     Parallel routines
     fft_scatter  :   1196.64s CPU   1208.78s WALL ( 9211888 calls)
 
     PHONON       :     1h11m CPU        1h19m WALL

     INITIALIZATION: 
     phq_setup    :      0.36s CPU      1.44s WALL (      12 calls)
     phq_init     :     25.92s CPU     26.60s WALL (      12 calls)
 
     phq_init     :     25.92s CPU     26.60s WALL (      12 calls)
     init_vloc    :      0.13s CPU      0.13s WALL (      12 calls)
     init_us_1    :      0.44s CPU      0.45s WALL (      12 calls)
     newd         :      0.13s CPU      0.14s WALL (      12 calls)
     dvanqq       :      1.46s CPU      1.48s WALL (      12 calls)
     drho         :     19.49s CPU     19.79s WALL (      12 calls)
 
     DYNAMICAL MATRIX:
     dynmat0      :      3.22s CPU      3.35s WALL (      12 calls)
     phqscf       :   4082.38s CPU   4479.26s WALL (      12 calls)
     dynmatrix    :      3.30s CPU      3.45s WALL (      12 calls)
 
     phqscf       :   4082.38s CPU   4479.26s WALL (      12 calls)
     solve_linter :   4079.66s CPU   4473.97s WALL (      58 calls)
     drhodv       :      2.60s CPU      2.89s WALL (      58 calls)
 
     dynmat0      :      3.22s CPU      3.35s WALL (      12 calls)
     dynmat_us    :      3.16s CPU      3.20s WALL (      12 calls)
     d2ionq       :      0.02s CPU      0.03s WALL (      12 calls)
 
     dynmat_us    :      3.16s CPU      3.20s WALL (      12 calls)
     addusdynmat  :      0.00s CPU      0.00s WALL (      12 calls)
 
     phqscf       :   4082.38s CPU   4479.26s WALL (      12 calls)
     solve_linter :   4079.66s CPU   4473.97s WALL (      58 calls)
 
     solve_linter :   4079.66s CPU   4473.97s WALL (      58 calls)
     dvqpsi_us    :     12.69s CPU     13.54s WALL (    4932 calls)
     ortho        :     70.48s CPU     71.51s WALL (   42305 calls)
     cgsolve      :    682.91s CPU    711.63s WALL (   42305 calls)
     incdrhoscf   :   1097.29s CPU   1105.75s WALL (   42305 calls)
     addusddens   :      7.90s CPU      7.98s WALL (     533 calls)
     vpsifft      :     45.92s CPU     49.17s WALL (   37373 calls)
     dv_of_drho   :      3.56s CPU      3.63s WALL (     568 calls)
     mix_pot      :      4.40s CPU     13.74s WALL (     475 calls)
     ef_shift     :      0.03s CPU      0.77s WALL (      29 calls)
     localdos     :      0.25s CPU      0.25s WALL (       4 calls)
     psymdvscf    :     28.47s CPU     28.55s WALL (     475 calls)
     newdq        :      7.44s CPU      7.52s WALL (     475 calls)
     adddvscf     :      3.52s CPU      3.73s WALL (   37373 calls)
     drhodvus     :      0.05s CPU      0.07s WALL (      58 calls)
 
     dvqpsi_us    :     12.69s CPU     13.54s WALL (    4932 calls)
     dvqpsi_us_on :      3.53s CPU      3.83s WALL (    4932 calls)
 
     cgsolve      :    682.91s CPU    711.63s WALL (   42305 calls)
     ch_psi       :    657.88s CPU    685.35s WALL (  543784 calls)
 
     ch_psi       :    657.88s CPU    685.35s WALL (  543784 calls)
     h_psiq       :    571.26s CPU    593.86s WALL (  543784 calls)
     last         :     83.15s CPU     87.76s WALL (  543784 calls)
 
     h_psiq       :    571.26s CPU    593.86s WALL (  543784 calls)
     firstfft     :    269.10s CPU    279.95s WALL ( 3459640 calls)
     secondfft    :    198.48s CPU    206.02s WALL ( 3459640 calls)
     add_vuspsi   :     26.95s CPU     28.58s WALL (  593308 calls)
 
     incdrhoscf   :   1097.29s CPU   1105.75s WALL (   42305 calls)
     addusdbec    :      4.22s CPU      4.53s WALL (   47237 calls)
 
     drhodvus     :      0.05s CPU      0.07s WALL (      58 calls)
 
      General routines
     calbec       :     68.25s CPU     71.52s WALL ( 1257870 calls)
     fft          :      2.86s CPU      2.96s WALL (    8961 calls)
     ffts         :      1.25s CPU      1.30s WALL (    7227 calls)
     fftw         :   1570.45s CPU   1597.97s WALL ( 9195700 calls)
     davcio       :     10.22s CPU    332.50s WALL (  215449 calls)
     write_rec    :      0.93s CPU     18.73s WALL (     533 calls)
 
 
     PHONON       :     1h11m CPU        1h19m WALL

 
   This run was terminated on:  22:28:53  28Mar2018            

=------------------------------------------------------------------------------=
   JOB DONE.
=------------------------------------------------------------------------------=
Application 30383872 resources: utime ~847568s, stime ~8608s, Rss ~59200, inblocks ~4089975247, outblocks ~1410243197
