
     Program PWSCF v.6.1 (svn rev. 13369) starts on 20Dec2017 at 11: 4:14 

     This program is part of the open-source Quantum ESPRESSO suite
     for quantum simulation of materials; please cite
         "P. Giannozzi et al., J. Phys.:Condens. Matter 21 395502 (2009);
          URL http://www.quantum-espresso.org", 
     in publications or presentations arising from this work. More details at
     http://www.quantum-espresso.org/quote

     Parallel version (MPI), running on     4 processors
     R & G space division:  proc/nbgrp/npool/nimage =       4
     Waiting for input...
     Reading input from standard input

     Current dimensions of program PWSCF are:
     Max number of different atomic species (ntypx) = 10
     Max number of k-points (npk) =  40000
     Max angular momentum in pseudopotentials (lmaxx) =  3

     Subspace diagonalization in iterative solution of the eigenvalue problem:
     a serial algorithm will be used


     Parallelization info
     --------------------
     sticks:   dense  smooth     PW     G-vecs:    dense   smooth      PW
     Min         175      90     30                 3084     1095     234
     Max         176      91     31                 3086     1096     238
     Sum         703     361    121                12339     4381     941



     bravais-lattice index     =            2
     lattice parameter (alat)  =       8.0000  a.u.
     unit-cell volume          =     128.0000 (a.u.)^3
     number of atoms/cell      =            1
     number of atomic types    =            1
     number of electrons       =         9.00
     number of Kohn-Sham states=            9
     kinetic-energy cutoff     =      40.0000  Ry
     charge density cutoff     =     320.0000  Ry
     convergence threshold     =      1.0E-08
     mixing beta               =       0.7000
     number of iterations used =            8  plain     mixing
     Exchange-correlation      = SLA  PW   PBE  PBE ( 1  4  3  4 0 0)
     nstep                     =           50


     celldm(1)=   8.000000  celldm(2)=   0.000000  celldm(3)=   0.000000
     celldm(4)=   0.000000  celldm(5)=   0.000000  celldm(6)=   0.000000

     crystal axes: (cart. coord. in units of alat)
               a(1) = (  -0.500000   0.000000   0.500000 )  
               a(2) = (   0.000000   0.500000   0.500000 )  
               a(3) = (  -0.500000   0.500000   0.000000 )  

     reciprocal axes: (cart. coord. in units 2 pi/alat)
               b(1) = ( -1.000000 -1.000000  1.000000 )  
               b(2) = (  1.000000  1.000000  1.000000 )  
               b(3) = ( -1.000000  1.000000 -1.000000 )  


     PseudoPot. # 1 for Na read from file:
     /home/s1333534/quantum_espresso/qe-6.1/pseudo/Na_pbe_v1.uspp.F.UPF
     MD5 check sum: 76a99c7e9422403d3e93cbc85ab7bccb
     Pseudo is Ultrasoft, Zval =  9.0
     Generated by new atomic code, or converted to UPF format
     Using radial grid of  819 points,  5 beta functions with: 
                l(1) =   0
                l(2) =   0
                l(3) =   1
                l(4) =   1
                l(5) =   2
     Q(r) pseudized with  8 coefficients,  rinner =    1.250   1.250   1.250
                                                       1.250   1.250

     atomic species   valence    mass     pseudopotential
        Na             9.00    22.99000     Na( 1.00)

     48 Sym. Ops., with inversion, found



   Cartesian axes

     site n.     atom                  positions (alat units)
         1           Na  tau(   1) = (   0.0000000   0.0000000   0.0000000  )

     number of k points=   770  Marzari-Vanderbilt smearing, width (Ry)=  0.0200

     Number of k-points >= 100: set verbosity='high' to print them.

     Dense  grid:    12339 G-vectors     FFT dimensions: (  36,  36,  36)

     Smooth grid:     4381 G-vectors     FFT dimensions: (  24,  24,  24)

     Estimated max dynamical RAM per process >      16.64MB

     Estimated total allocated dynamical RAM >      66.55MB

     Initial potential from superposition of free atoms

     starting charge    8.99371, renormalised to    9.00000
     Starting wfc are    5 randomized atomic wfcs +    4 random wfc

     total cpu time spent up to now is        1.2 secs

     per-process dynamical memory:    24.8 Mb

     Self-consistent Calculation

     iteration #  1     ecut=    40.00 Ry     beta=0.70
     Davidson diagonalization with overlap
     ethr =  1.00E-02,  avg # of iterations =  5.1

     Threshold (ethr) on eigenvalues was too large:
     Diagonalizing with lowered threshold

     Davidson diagonalization with overlap
     ethr =  2.47E-05,  avg # of iterations =  2.4

     total cpu time spent up to now is        8.3 secs

     total energy              =     -95.06263719 Ry
     Harris-Foulkes estimate   =     -95.06346383 Ry
     estimated scf accuracy    <       0.00221907 Ry

     iteration #  2     ecut=    40.00 Ry     beta=0.70
     Davidson diagonalization with overlap
     ethr =  2.47E-05,  avg # of iterations =  2.0

     total cpu time spent up to now is       10.8 secs

     total energy              =     -95.06293327 Ry
     Harris-Foulkes estimate   =     -95.06299962 Ry
     estimated scf accuracy    <       0.00025023 Ry

     iteration #  3     ecut=    40.00 Ry     beta=0.70
     Davidson diagonalization with overlap
     ethr =  2.78E-06,  avg # of iterations =  2.1

     total cpu time spent up to now is       13.4 secs

     total energy              =     -95.06296602 Ry
     Harris-Foulkes estimate   =     -95.06296754 Ry
     estimated scf accuracy    <       0.00001446 Ry

     iteration #  4     ecut=    40.00 Ry     beta=0.70
     Davidson diagonalization with overlap
     ethr =  1.61E-07,  avg # of iterations =  1.0

     total cpu time spent up to now is       15.6 secs

     total energy              =     -95.06296732 Ry
     Harris-Foulkes estimate   =     -95.06296725 Ry
     estimated scf accuracy    <       0.00000002 Ry

     iteration #  5     ecut=    40.00 Ry     beta=0.70
     Davidson diagonalization with overlap
     ethr =  2.20E-10,  avg # of iterations =  3.0

     total cpu time spent up to now is       18.8 secs

     End of self-consistent calculation

     Number of k-points >= 100: set verbosity='high' to print the bands.

     the Fermi energy is     5.7098 ev

!    total energy              =     -95.06296737 Ry
     Harris-Foulkes estimate   =     -95.06296737 Ry
     estimated scf accuracy    <          2.7E-09 Ry

     The total energy is the sum of the following terms:

     one-electron contribution =     -72.01868817 Ry
     hartree contribution      =      37.75480527 Ry
     xc contribution           =     -14.37732448 Ry
     ewald contribution        =     -46.42172850 Ry
     smearing contrib. (-TS)   =      -0.00003149 Ry

     convergence has been achieved in   5 iterations

     Forces acting on atoms (cartesian axes, Ry/au):

     atom    1 type  1   force =     0.00000000    0.00000000    0.00000000

     Total force =     0.000000     Total SCF correction =     0.000000


     Computing stress (Cartesian axis) and pressure

          total   stress  (Ry/bohr**3)                   (kbar)     P=  175.59
   0.00119366   0.00000000   0.00000000        175.59      0.00      0.00
   0.00000000   0.00119366  -0.00000000          0.00    175.59     -0.00
   0.00000000  -0.00000000   0.00119366          0.00     -0.00    175.59


     BFGS Geometry Optimization

     number of scf cycles    =   1
     number of bfgs steps    =   0

     enthalpy new            =     -95.0368635763 Ry

     new trust radius        =       0.0559874738 bohr
     new conv_thr            =       0.0000000100 Ry

     new unit-cell volume =    137.73842 a.u.^3 (    20.41073 Ang^3 )
     density =      1.87038 g/cm^3

CELL_PARAMETERS (alat=  8.00000000)
  -0.512371601  -0.000000000   0.512371601
   0.000000000   0.512371601   0.512371601
  -0.512371601   0.512371601  -0.000000000

ATOMIC_POSITIONS (crystal)
Na       0.000000000   0.000000000   0.000000000



     Writing output data file na.fcc.save
     NEW-OLD atomic charge density approx. for the potential
     extrapolated charge    9.63588, renormalised to    9.00000

     total cpu time spent up to now is       20.7 secs

     per-process dynamical memory:    31.6 Mb

     Self-consistent Calculation

     iteration #  1     ecut=    40.00 Ry     beta=0.70
     Davidson diagonalization with overlap
     ethr =  1.00E-06,  avg # of iterations =  4.3

     total cpu time spent up to now is       25.2 secs

     total energy              =     -94.74605474 Ry
     Harris-Foulkes estimate   =     -90.92847099 Ry
     estimated scf accuracy    <       0.18337350 Ry

     iteration #  2     ecut=    40.00 Ry     beta=0.70
     Davidson diagonalization with overlap
     ethr =  2.04E-03,  avg # of iterations =  3.0

     total cpu time spent up to now is       28.6 secs

     total energy              =     -95.08696418 Ry
     Harris-Foulkes estimate   =     -95.22093179 Ry
     estimated scf accuracy    <       0.30413144 Ry

     iteration #  3     ecut=    40.00 Ry     beta=0.70
     Davidson diagonalization with overlap
     ethr =  2.04E-03,  avg # of iterations =  1.1

     total cpu time spent up to now is       30.9 secs

     total energy              =     -95.08051226 Ry
     Harris-Foulkes estimate   =     -95.10424620 Ry
     estimated scf accuracy    <       0.06759750 Ry

     iteration #  4     ecut=    40.00 Ry     beta=0.70
     Davidson diagonalization with overlap
     ethr =  7.51E-04,  avg # of iterations =  1.0

     total cpu time spent up to now is       33.1 secs

     total energy              =     -95.07983707 Ry
     Harris-Foulkes estimate   =     -95.08348044 Ry
     estimated scf accuracy    <       0.02192421 Ry

     iteration #  5     ecut=    40.00 Ry     beta=0.70
     Davidson diagonalization with overlap
     ethr =  2.44E-04,  avg # of iterations =  1.0

     total cpu time spent up to now is       35.3 secs

     total energy              =     -95.07632284 Ry
     Harris-Foulkes estimate   =     -95.08010850 Ry
     estimated scf accuracy    <       0.01482167 Ry

     iteration #  6     ecut=    40.00 Ry     beta=0.70
     Davidson diagonalization with overlap
     ethr =  1.65E-04,  avg # of iterations =  1.0

     total cpu time spent up to now is       37.5 secs

     total energy              =     -95.07200339 Ry
     Harris-Foulkes estimate   =     -95.07659073 Ry
     estimated scf accuracy    <       0.00742565 Ry

     iteration #  7     ecut=    40.00 Ry     beta=0.70
     Davidson diagonalization with overlap
     ethr =  8.25E-05,  avg # of iterations =  2.0

     total cpu time spent up to now is       40.1 secs

     total energy              =     -95.07313077 Ry
     Harris-Foulkes estimate   =     -95.07319962 Ry
     estimated scf accuracy    <       0.00014963 Ry

     iteration #  8     ecut=    40.00 Ry     beta=0.70
     Davidson diagonalization with overlap
     ethr =  1.66E-06,  avg # of iterations =  2.1

     total cpu time spent up to now is       42.7 secs

     total energy              =     -95.07312638 Ry
     Harris-Foulkes estimate   =     -95.07314440 Ry
     estimated scf accuracy    <       0.00002438 Ry

     iteration #  9     ecut=    40.00 Ry     beta=0.70
     Davidson diagonalization with overlap
     ethr =  2.71E-07,  avg # of iterations =  2.1

     total cpu time spent up to now is       45.5 secs

     total energy              =     -95.07315439 Ry
     Harris-Foulkes estimate   =     -95.07315942 Ry
     estimated scf accuracy    <       0.00005624 Ry

     iteration # 10     ecut=    40.00 Ry     beta=0.70
     Davidson diagonalization with overlap
     ethr =  2.71E-07,  avg # of iterations =  1.0

     total cpu time spent up to now is       47.7 secs

     total energy              =     -95.07312099 Ry
     Harris-Foulkes estimate   =     -95.07315454 Ry
     estimated scf accuracy    <       0.00004435 Ry

     iteration # 11     ecut=    40.00 Ry     beta=0.70
     Davidson diagonalization with overlap
     ethr =  2.71E-07,  avg # of iterations =  2.0

     total cpu time spent up to now is       51.6 secs

     total energy              =     -95.07313396 Ry
     Harris-Foulkes estimate   =     -95.07313530 Ry
     estimated scf accuracy    <       0.00000357 Ry

     iteration # 12     ecut=    40.00 Ry     beta=0.70
     Davidson diagonalization with overlap
     ethr =  3.97E-08,  avg # of iterations =  1.0

     total cpu time spent up to now is       53.8 secs

     total energy              =     -95.07313397 Ry
     Harris-Foulkes estimate   =     -95.07313419 Ry
     estimated scf accuracy    <       0.00000040 Ry

     iteration # 13     ecut=    40.00 Ry     beta=0.70
     Davidson diagonalization with overlap
     ethr =  4.41E-09,  avg # of iterations =  2.0

     total cpu time spent up to now is       56.5 secs

     total energy              =     -95.07313406 Ry
     Harris-Foulkes estimate   =     -95.07313408 Ry
     estimated scf accuracy    <       0.00000002 Ry

     iteration # 14     ecut=    40.00 Ry     beta=0.70
     Davidson diagonalization with overlap
     ethr =  2.53E-10,  avg # of iterations =  1.3

     total cpu time spent up to now is       58.8 secs

     End of self-consistent calculation

     Number of k-points >= 100: set verbosity='high' to print the bands.

     the Fermi energy is     5.0991 ev

!    total energy              =     -95.07313406 Ry
     Harris-Foulkes estimate   =     -95.07313407 Ry
     estimated scf accuracy    <          2.3E-09 Ry

     The total energy is the sum of the following terms:

     one-electron contribution =     -73.94243811 Ry
     hartree contribution      =      38.53278360 Ry
     xc contribution           =     -14.36260710 Ry
     ewald contribution        =     -45.30084066 Ry
     smearing contrib. (-TS)   =      -0.00003180 Ry

     convergence has been achieved in  14 iterations

     Forces acting on atoms (cartesian axes, Ry/au):

     atom    1 type  1   force =     0.00000000    0.00000000    0.00000000

     Total force =     0.000000     Total SCF correction =     0.000000


     Computing stress (Cartesian axis) and pressure

          total   stress  (Ry/bohr**3)                   (kbar)     P=  132.82
   0.00090291  -0.00000000  -0.00000000        132.82     -0.00     -0.00
   0.00000000   0.00090291   0.00000000          0.00    132.82      0.00
  -0.00000000   0.00000000   0.00090291         -0.00      0.00    132.82


     number of scf cycles    =   2
     number of bfgs steps    =   1

     enthalpy old            =     -95.0368635763 Ry
     enthalpy new            =     -95.0450442568 Ry

     CASE: enthalpy_new < enthalpy_old

     new trust radius        =       0.0623434856 bohr
     new conv_thr            =            1.0E-10 Ry

     new unit-cell volume =    149.00764 a.u.^3 (    22.08065 Ang^3 )
     density =      1.72892 g/cm^3

CELL_PARAMETERS (alat=  8.00000000)
  -0.525980362  -0.000000000   0.525980362
   0.000000000   0.525980362   0.525980362
  -0.525980362   0.525980362  -0.000000000

ATOMIC_POSITIONS (crystal)
Na       0.000000000   0.000000000   0.000000000



     Writing output data file na.fcc.save
     NEW-OLD atomic charge density approx. for the potential
     extrapolated charge    9.68018, renormalised to    9.00000

     total cpu time spent up to now is       60.7 secs

     per-process dynamical memory:    31.6 Mb

     Self-consistent Calculation

     iteration #  1     ecut=    40.00 Ry     beta=0.70
     Davidson diagonalization with overlap
     ethr =  1.00E-06,  avg # of iterations =  4.4

     total cpu time spent up to now is       65.2 secs

     total energy              =     -94.69319632 Ry
     Harris-Foulkes estimate   =     -90.52081384 Ry
     estimated scf accuracy    <       0.21802463 Ry

     iteration #  2     ecut=    40.00 Ry     beta=0.70
     Davidson diagonalization with overlap
     ethr =  2.42E-03,  avg # of iterations =  3.0

     total cpu time spent up to now is       68.7 secs

     total energy              =     -95.09908263 Ry
     Harris-Foulkes estimate   =     -95.25802978 Ry
     estimated scf accuracy    <       0.36044472 Ry

     iteration #  3     ecut=    40.00 Ry     beta=0.70
     Davidson diagonalization with overlap
     ethr =  2.42E-03,  avg # of iterations =  1.1

     total cpu time spent up to now is       70.9 secs

     total energy              =     -95.09055290 Ry
     Harris-Foulkes estimate   =     -95.11932589 Ry
     estimated scf accuracy    <       0.08088246 Ry

     iteration #  4     ecut=    40.00 Ry     beta=0.70
     Davidson diagonalization with overlap
     ethr =  8.99E-04,  avg # of iterations =  1.0

     total cpu time spent up to now is       73.1 secs

     total energy              =     -95.08937529 Ry
     Harris-Foulkes estimate   =     -95.09414670 Ry
     estimated scf accuracy    <       0.02587318 Ry

     iteration #  5     ecut=    40.00 Ry     beta=0.70
     Davidson diagonalization with overlap
     ethr =  2.87E-04,  avg # of iterations =  1.0

     total cpu time spent up to now is       75.3 secs

     total energy              =     -95.08510210 Ry
     Harris-Foulkes estimate   =     -95.08973885 Ry
     estimated scf accuracy    <       0.01648287 Ry

     iteration #  6     ecut=    40.00 Ry     beta=0.70
     Davidson diagonalization with overlap
     ethr =  1.83E-04,  avg # of iterations =  1.0

     total cpu time spent up to now is       77.5 secs

     total energy              =     -95.08052205 Ry
     Harris-Foulkes estimate   =     -95.08545307 Ry
     estimated scf accuracy    <       0.00759502 Ry

     iteration #  7     ecut=    40.00 Ry     beta=0.70
     Davidson diagonalization with overlap
     ethr =  8.44E-05,  avg # of iterations =  2.0

     total cpu time spent up to now is       80.2 secs

     total energy              =     -95.08195026 Ry
     Harris-Foulkes estimate   =     -95.08193401 Ry
     estimated scf accuracy    <       0.00004977 Ry

     iteration #  8     ecut=    40.00 Ry     beta=0.70
     Davidson diagonalization with overlap
     ethr =  5.53E-07,  avg # of iterations =  2.4

     total cpu time spent up to now is       82.8 secs

     total energy              =     -95.08188111 Ry
     Harris-Foulkes estimate   =     -95.08195489 Ry
     estimated scf accuracy    <       0.00008853 Ry

     iteration #  9     ecut=    40.00 Ry     beta=0.70
     Davidson diagonalization with overlap
     ethr =  5.53E-07,  avg # of iterations =  2.0

     total cpu time spent up to now is       85.6 secs

     total energy              =     -95.08193026 Ry
     Harris-Foulkes estimate   =     -95.08192956 Ry
     estimated scf accuracy    <       0.00003422 Ry

     iteration # 10     ecut=    40.00 Ry     beta=0.70
     Davidson diagonalization with overlap
     ethr =  3.80E-07,  avg # of iterations =  1.0

     total cpu time spent up to now is       87.8 secs

     total energy              =     -95.08191141 Ry
     Harris-Foulkes estimate   =     -95.08193028 Ry
     estimated scf accuracy    <       0.00003581 Ry

     iteration # 11     ecut=    40.00 Ry     beta=0.70
     Davidson diagonalization with overlap
     ethr =  3.80E-07,  avg # of iterations =  1.7

     total cpu time spent up to now is       90.2 secs

     total energy              =     -95.08191389 Ry
     Harris-Foulkes estimate   =     -95.08191550 Ry
     estimated scf accuracy    <       0.00000308 Ry

     iteration # 12     ecut=    40.00 Ry     beta=0.70
     Davidson diagonalization with overlap
     ethr =  3.42E-08,  avg # of iterations =  2.0

     total cpu time spent up to now is       93.0 secs

     total energy              =     -95.08191451 Ry
     Harris-Foulkes estimate   =     -95.08191450 Ry
     estimated scf accuracy    <       0.00000001 Ry

     iteration # 13     ecut=    40.00 Ry     beta=0.70
     Davidson diagonalization with overlap
     ethr =  1.40E-10,  avg # of iterations =  2.0

     total cpu time spent up to now is       95.7 secs

     total energy              =     -95.08191452 Ry
     Harris-Foulkes estimate   =     -95.08191452 Ry
     estimated scf accuracy    <       0.00000006 Ry

     iteration # 14     ecut=    40.00 Ry     beta=0.70
     Davidson diagonalization with overlap
     ethr =  1.40E-10,  avg # of iterations =  1.2

     total cpu time spent up to now is       98.0 secs

     total energy              =     -95.08191449 Ry
     Harris-Foulkes estimate   =     -95.08191452 Ry
     estimated scf accuracy    <       0.00000005 Ry

     iteration # 15     ecut=    40.00 Ry     beta=0.70
     Davidson diagonalization with overlap
     ethr =  1.40E-10,  avg # of iterations =  2.0

     total cpu time spent up to now is      100.7 secs

     total energy              =     -95.08191449 Ry
     Harris-Foulkes estimate   =     -95.08191450 Ry
     estimated scf accuracy    <          8.9E-09 Ry

     iteration # 16     ecut=    40.00 Ry     beta=0.70
     Davidson diagonalization with overlap
     ethr =  9.92E-11,  avg # of iterations =  2.0

     total cpu time spent up to now is      103.3 secs

     total energy              =     -95.08191449 Ry
     Harris-Foulkes estimate   =     -95.08191449 Ry
     estimated scf accuracy    <          1.9E-10 Ry

     iteration # 17     ecut=    40.00 Ry     beta=0.70
     Davidson diagonalization with overlap
     ethr =  2.06E-12,  avg # of iterations =  2.0

     total cpu time spent up to now is      106.0 secs

     End of self-consistent calculation

     Number of k-points >= 100: set verbosity='high' to print the bands.

     the Fermi energy is     4.4967 ev

!    total energy              =     -95.08191449 Ry
     Harris-Foulkes estimate   =     -95.08191449 Ry
     estimated scf accuracy    <          2.0E-12 Ry

     The total energy is the sum of the following terms:

     one-electron contribution =     -75.96079067 Ry
     hartree contribution      =      39.35553414 Ry
     xc contribution           =     -14.34785948 Ry
     ewald contribution        =     -44.12876589 Ry
     smearing contrib. (-TS)   =      -0.00003259 Ry

     convergence has been achieved in  17 iterations

     Forces acting on atoms (cartesian axes, Ry/au):

     atom    1 type  1   force =     0.00000000    0.00000000    0.00000000

     Total force =     0.000000     Total SCF correction =     0.000000


     Computing stress (Cartesian axis) and pressure

          total   stress  (Ry/bohr**3)                   (kbar)     P=   97.78
   0.00066470   0.00000000   0.00000000         97.78      0.00      0.00
   0.00000000   0.00066470   0.00000000          0.00     97.78      0.00
   0.00000000   0.00000000   0.00066470          0.00      0.00     97.78


     number of scf cycles    =   3
     number of bfgs steps    =   2

     enthalpy old            =     -95.0450442568 Ry
     enthalpy new            =     -95.0515264870 Ry

     CASE: enthalpy_new < enthalpy_old

     new trust radius        =       0.0947489877 bohr
     new conv_thr            =            1.0E-10 Ry

     new unit-cell volume =    167.03848 a.u.^3 (    24.75255 Ang^3 )
     density =      1.54230 g/cm^3

CELL_PARAMETERS (alat=  8.00000000)
  -0.546393503  -0.000000000   0.546393503
   0.000000000   0.546393503   0.546393503
  -0.546393503   0.546393503  -0.000000000

ATOMIC_POSITIONS (crystal)
Na       0.000000000   0.000000000   0.000000000



     Writing output data file na.fcc.save
     NEW-OLD atomic charge density approx. for the potential
     extrapolated charge    9.97082, renormalised to    9.00000

     total cpu time spent up to now is      107.9 secs

     per-process dynamical memory:    31.6 Mb

     Self-consistent Calculation

     iteration #  1     ecut=    40.00 Ry     beta=0.70
     Davidson diagonalization with overlap
     ethr =  1.00E-06,  avg # of iterations =  4.9

     total cpu time spent up to now is      112.7 secs

     total energy              =     -94.13324687 Ry
     Harris-Foulkes estimate   =     -88.33338296 Ry
     estimated scf accuracy    <       0.54390447 Ry

     iteration #  2     ecut=    40.00 Ry     beta=0.70
     Davidson diagonalization with overlap
     ethr =  6.04E-03,  avg # of iterations =  3.0

     total cpu time spent up to now is      116.0 secs

     total energy              =     -95.14484827 Ry
     Harris-Foulkes estimate   =     -95.53313894 Ry
     estimated scf accuracy    <       0.87213201 Ry

     iteration #  3     ecut=    40.00 Ry     beta=0.70
     Davidson diagonalization with overlap
     ethr =  6.04E-03,  avg # of iterations =  1.0

     total cpu time spent up to now is      118.2 secs

     total energy              =     -95.11209082 Ry
     Harris-Foulkes estimate   =     -95.19025252 Ry
     estimated scf accuracy    <       0.20728244 Ry

     iteration #  4     ecut=    40.00 Ry     beta=0.70
     Davidson diagonalization with overlap
     ethr =  2.30E-03,  avg # of iterations =  1.0

     total cpu time spent up to now is      120.4 secs

     total energy              =     -95.10858630 Ry
     Harris-Foulkes estimate   =     -95.12164897 Ry
     estimated scf accuracy    <       0.06291240 Ry

     iteration #  5     ecut=    40.00 Ry     beta=0.70
     Davidson diagonalization with overlap
     ethr =  6.99E-04,  avg # of iterations =  1.0

     total cpu time spent up to now is      122.6 secs

     total energy              =     -95.09544535 Ry
     Harris-Foulkes estimate   =     -95.10958781 Ry
     estimated scf accuracy    <       0.03742565 Ry

     iteration #  6     ecut=    40.00 Ry     beta=0.70
     Davidson diagonalization with overlap
     ethr =  4.16E-04,  avg # of iterations =  1.0

     total cpu time spent up to now is      124.8 secs

     total energy              =     -95.08874267 Ry
     Harris-Foulkes estimate   =     -95.09691762 Ry
     estimated scf accuracy    <       0.01176434 Ry

     iteration #  7     ecut=    40.00 Ry     beta=0.70
     Davidson diagonalization with overlap
     ethr =  1.31E-04,  avg # of iterations =  2.1

     total cpu time spent up to now is      127.5 secs

     total energy              =     -95.09142445 Ry
     Harris-Foulkes estimate   =     -95.09141878 Ry
     estimated scf accuracy    <       0.00001227 Ry

     iteration #  8     ecut=    40.00 Ry     beta=0.70
     Davidson diagonalization with overlap
     ethr =  1.36E-07,  avg # of iterations =  3.1

     total cpu time spent up to now is      130.7 secs

     total energy              =     -95.09142603 Ry
     Harris-Foulkes estimate   =     -95.09142726 Ry
     estimated scf accuracy    <       0.00002889 Ry

     iteration #  9     ecut=    40.00 Ry     beta=0.70
     Davidson diagonalization with overlap
     ethr =  1.36E-07,  avg # of iterations =  1.0

     total cpu time spent up to now is      133.0 secs

     total energy              =     -95.09142294 Ry
     Harris-Foulkes estimate   =     -95.09142605 Ry
     estimated scf accuracy    <       0.00002611 Ry

     iteration # 10     ecut=    40.00 Ry     beta=0.70
     Davidson diagonalization with overlap
     ethr =  1.36E-07,  avg # of iterations =  1.0

     total cpu time spent up to now is      135.2 secs

     total energy              =     -95.09141494 Ry
     Harris-Foulkes estimate   =     -95.09142318 Ry
     estimated scf accuracy    <       0.00002076 Ry

     iteration # 11     ecut=    40.00 Ry     beta=0.70
     Davidson diagonalization with overlap
     ethr =  1.36E-07,  avg # of iterations =  2.0

     total cpu time spent up to now is      137.9 secs

     total energy              =     -95.09141727 Ry
     Harris-Foulkes estimate   =     -95.09141781 Ry
     estimated scf accuracy    <       0.00000139 Ry

     iteration # 12     ecut=    40.00 Ry     beta=0.70
     Davidson diagonalization with overlap
     ethr =  1.54E-08,  avg # of iterations =  2.0

     total cpu time spent up to now is      140.6 secs

     total energy              =     -95.09141931 Ry
     Harris-Foulkes estimate   =     -95.09141810 Ry
     estimated scf accuracy    <       0.00000249 Ry

     iteration # 13     ecut=    40.00 Ry     beta=0.70
     Davidson diagonalization with overlap
     ethr =  1.54E-08,  avg # of iterations =  1.6

     total cpu time spent up to now is      143.0 secs

     total energy              =     -95.09141734 Ry
     Harris-Foulkes estimate   =     -95.09141942 Ry
     estimated scf accuracy    <       0.00000690 Ry

     iteration # 14     ecut=    40.00 Ry     beta=0.70
     Davidson diagonalization with overlap
     ethr =  1.54E-08,  avg # of iterations =  3.0

     total cpu time spent up to now is      146.2 secs

     total energy              =     -95.09141492 Ry
     Harris-Foulkes estimate   =     -95.09142334 Ry
     estimated scf accuracy    <       0.00002301 Ry

     iteration # 15     ecut=    40.00 Ry     beta=0.70
     Davidson diagonalization with overlap
     ethr =  1.54E-08,  avg # of iterations =  2.7

     total cpu time spent up to now is      149.2 secs

     total energy              =     -95.09141757 Ry
     Harris-Foulkes estimate   =     -95.09141757 Ry
     estimated scf accuracy    <          3.7E-09 Ry

     iteration # 16     ecut=    40.00 Ry     beta=0.70
     Davidson diagonalization with overlap
     ethr =  4.11E-11,  avg # of iterations =  1.6

     total cpu time spent up to now is      151.5 secs

     End of self-consistent calculation

     Number of k-points >= 100: set verbosity='high' to print the bands.

     the Fermi energy is     3.7099 ev

!    total energy              =     -95.09141757 Ry
     Harris-Foulkes estimate   =     -95.09141757 Ry
     estimated scf accuracy    <          1.2E-11 Ry

     The total energy is the sum of the following terms:

     one-electron contribution =     -78.81094309 Ry
     hartree contribution      =      40.52773947 Ry
     xc contribution           =     -14.32805456 Ry
     ewald contribution        =     -42.48012487 Ry
     smearing contrib. (-TS)   =      -0.00003451 Ry

     convergence has been achieved in  16 iterations

     Forces acting on atoms (cartesian axes, Ry/au):

     atom    1 type  1   force =     0.00000000    0.00000000    0.00000000

     Total force =     0.000000     Total SCF correction =     0.000000


     Computing stress (Cartesian axis) and pressure

          total   stress  (Ry/bohr**3)                   (kbar)     P=   60.60
   0.00041193   0.00000000   0.00000000         60.60      0.00      0.00
   0.00000000   0.00041193   0.00000000          0.00     60.60      0.00
   0.00000000   0.00000000   0.00041193          0.00      0.00     60.60


     number of scf cycles    =   4
     number of bfgs steps    =   3

     enthalpy old            =     -95.0515264870 Ry
     enthalpy new            =     -95.0573524249 Ry

     CASE: enthalpy_new < enthalpy_old

     new trust radius        =       0.0917257795 bohr
     new conv_thr            =            1.0E-10 Ry

     new unit-cell volume =    185.45939 a.u.^3 (    27.48225 Ang^3 )
     density =      1.38911 g/cm^3

CELL_PARAMETERS (alat=  8.00000000)
  -0.565782649  -0.000000000   0.565782649
   0.000000000   0.565782649   0.565782649
  -0.565782649   0.565782649  -0.000000000

ATOMIC_POSITIONS (crystal)
Na       0.000000000   0.000000000   0.000000000



     Writing output data file na.fcc.save
     NEW-OLD atomic charge density approx. for the potential
     extrapolated charge    9.89331, renormalised to    9.00000

     total cpu time spent up to now is      153.4 secs

     per-process dynamical memory:    31.6 Mb

     Self-consistent Calculation

     iteration #  1     ecut=    40.00 Ry     beta=0.70
     Davidson diagonalization with overlap
     ethr =  1.00E-06,  avg # of iterations =  4.9

     total cpu time spent up to now is      158.2 secs

     total energy              =     -94.30747350 Ry
     Harris-Foulkes estimate   =     -88.65851331 Ry
     estimated scf accuracy    <       0.44640206 Ry

     iteration #  2     ecut=    40.00 Ry     beta=0.70
     Davidson diagonalization with overlap
     ethr =  4.96E-03,  avg # of iterations =  3.0

     total cpu time spent up to now is      161.5 secs

     total energy              =     -95.13929612 Ry
     Harris-Foulkes estimate   =     -95.45931962 Ry
     estimated scf accuracy    <       0.72014166 Ry

     iteration #  3     ecut=    40.00 Ry     beta=0.70
     Davidson diagonalization with overlap
     ethr =  4.96E-03,  avg # of iterations =  1.0

     total cpu time spent up to now is      163.7 secs

     total energy              =     -95.11451911 Ry
     Harris-Foulkes estimate   =     -95.17750590 Ry
     estimated scf accuracy    <       0.16877301 Ry

     iteration #  4     ecut=    40.00 Ry     beta=0.70
     Davidson diagonalization with overlap
     ethr =  1.88E-03,  avg # of iterations =  1.0

     total cpu time spent up to now is      165.9 secs

     total energy              =     -95.10940631 Ry
     Harris-Foulkes estimate   =     -95.12224873 Ry
     estimated scf accuracy    <       0.05172442 Ry

     iteration #  5     ecut=    40.00 Ry     beta=0.70
     Davidson diagonalization with overlap
     ethr =  5.75E-04,  avg # of iterations =  1.0

     total cpu time spent up to now is      168.1 secs

     total energy              =     -95.09633516 Ry
     Harris-Foulkes estimate   =     -95.11046126 Ry
     estimated scf accuracy    <       0.02680469 Ry

     iteration #  6     ecut=    40.00 Ry     beta=0.70
     Davidson diagonalization with overlap
     ethr =  2.98E-04,  avg # of iterations =  1.0

     total cpu time spent up to now is      170.3 secs

     total energy              =     -95.09664648 Ry
     Harris-Foulkes estimate   =     -95.09876013 Ry
     estimated scf accuracy    <       0.00298732 Ry

     iteration #  7     ecut=    40.00 Ry     beta=0.70
     Davidson diagonalization with overlap
     ethr =  3.32E-05,  avg # of iterations =  2.2

     total cpu time spent up to now is      173.1 secs

     total energy              =     -95.09756067 Ry
     Harris-Foulkes estimate   =     -95.09746366 Ry
     estimated scf accuracy    <       0.00001211 Ry

     iteration #  8     ecut=    40.00 Ry     beta=0.70
     Davidson diagonalization with overlap
     ethr =  1.35E-07,  avg # of iterations =  3.2

     total cpu time spent up to now is      176.6 secs

     total energy              =     -95.09741250 Ry
     Harris-Foulkes estimate   =     -95.09760460 Ry
     estimated scf accuracy    <       0.00031527 Ry

     iteration #  9     ecut=    40.00 Ry     beta=0.70
     Davidson diagonalization with overlap
     ethr =  1.35E-07,  avg # of iterations =  3.0

     total cpu time spent up to now is      179.8 secs

     total energy              =     -95.09745792 Ry
     Harris-Foulkes estimate   =     -95.09746182 Ry
     estimated scf accuracy    <       0.00000652 Ry

     iteration # 10     ecut=    40.00 Ry     beta=0.70
     Davidson diagonalization with overlap
     ethr =  7.24E-08,  avg # of iterations =  2.0

     total cpu time spent up to now is      182.4 secs

     total energy              =     -95.09745866 Ry
     Harris-Foulkes estimate   =     -95.09745885 Ry
     estimated scf accuracy    <       0.00000022 Ry

     iteration # 11     ecut=    40.00 Ry     beta=0.70
     Davidson diagonalization with overlap
     ethr =  2.47E-09,  avg # of iterations =  2.0

     total cpu time spent up to now is      185.2 secs

     total energy              =     -95.09745880 Ry
     Harris-Foulkes estimate   =     -95.09745880 Ry
     estimated scf accuracy    <       0.00000011 Ry

     iteration # 12     ecut=    40.00 Ry     beta=0.70
     Davidson diagonalization with overlap
     ethr =  1.17E-09,  avg # of iterations =  1.0

     total cpu time spent up to now is      187.4 secs

     total energy              =     -95.09745873 Ry
     Harris-Foulkes estimate   =     -95.09745880 Ry
     estimated scf accuracy    <       0.00000011 Ry

     iteration # 13     ecut=    40.00 Ry     beta=0.70
     Davidson diagonalization with overlap
     ethr =  1.17E-09,  avg # of iterations =  2.0

     total cpu time spent up to now is      190.3 secs

     total energy              =     -95.09745875 Ry
     Harris-Foulkes estimate   =     -95.09745875 Ry
     estimated scf accuracy    <          2.8E-09 Ry

     iteration # 14     ecut=    40.00 Ry     beta=0.70
     Davidson diagonalization with overlap
     ethr =  3.14E-11,  avg # of iterations =  1.0

     total cpu time spent up to now is      192.5 secs

     total energy              =     -95.09745875 Ry
     Harris-Foulkes estimate   =     -95.09745875 Ry
     estimated scf accuracy    <          1.4E-09 Ry

     iteration # 15     ecut=    40.00 Ry     beta=0.70
     Davidson diagonalization with overlap
     ethr =  1.56E-11,  avg # of iterations =  1.0

     total cpu time spent up to now is      194.7 secs

     total energy              =     -95.09745875 Ry
     Harris-Foulkes estimate   =     -95.09745875 Ry
     estimated scf accuracy    <          9.3E-10 Ry

     iteration # 16     ecut=    40.00 Ry     beta=0.70
     Davidson diagonalization with overlap
     ethr =  1.04E-11,  avg # of iterations =  1.0

     total cpu time spent up to now is      196.9 secs

     total energy              =     -95.09745875 Ry
     Harris-Foulkes estimate   =     -95.09745875 Ry
     estimated scf accuracy    <          1.9E-10 Ry

     iteration # 17     ecut=    40.00 Ry     beta=0.70
     Davidson diagonalization with overlap
     ethr =  2.06E-12,  avg # of iterations =  1.0

     total cpu time spent up to now is      199.1 secs

     total energy              =     -95.09745875 Ry
     Harris-Foulkes estimate   =     -95.09745875 Ry
     estimated scf accuracy    <          1.1E-10 Ry

     iteration # 18     ecut=    40.00 Ry     beta=0.70
     Davidson diagonalization with overlap
     ethr =  1.20E-12,  avg # of iterations =  1.5

     total cpu time spent up to now is      201.4 secs

     End of self-consistent calculation

     Number of k-points >= 100: set verbosity='high' to print the bands.

     the Fermi energy is     3.0713 ev

!    total energy              =     -95.09745875 Ry
     Harris-Foulkes estimate   =     -95.09745875 Ry
     estimated scf accuracy    <          2.8E-12 Ry

     The total energy is the sum of the following terms:

     one-electron contribution =     -81.33870095 Ry
     hartree contribution      =      41.57706762 Ry
     xc contribution           =     -14.31144054 Ry
     ewald contribution        =     -41.02434793 Ry
     smearing contrib. (-TS)   =      -0.00003696 Ry

     convergence has been achieved in  18 iterations

     Forces acting on atoms (cartesian axes, Ry/au):

     atom    1 type  1   force =     0.00000000    0.00000000    0.00000000

     Total force =     0.000000     Total SCF correction =     0.000000


     Computing stress (Cartesian axis) and pressure

          total   stress  (Ry/bohr**3)                   (kbar)     P=   37.74
   0.00025655   0.00000000   0.00000000         37.74      0.00      0.00
   0.00000000   0.00025655   0.00000000          0.00     37.74      0.00
   0.00000000   0.00000000   0.00025655          0.00      0.00     37.74


     number of scf cycles    =   5
     number of bfgs steps    =   4

     enthalpy old            =     -95.0573524249 Ry
     enthalpy new            =     -95.0596369282 Ry

     CASE: enthalpy_new < enthalpy_old

     new trust radius        =       0.0347377173 bohr
     new conv_thr            =            1.0E-10 Ry

     new unit-cell volume =    192.64633 a.u.^3 (    28.54724 Ang^3 )
     density =      1.33728 g/cm^3

CELL_PARAMETERS (alat=  8.00000000)
  -0.572998649  -0.000000000   0.572998649
   0.000000000   0.572998649   0.572998649
  -0.572998649   0.572998649  -0.000000000

ATOMIC_POSITIONS (crystal)
Na       0.000000000   0.000000000   0.000000000



     Writing output data file na.fcc.save
     NEW-OLD atomic charge density approx. for the potential
     extrapolated charge    9.33552, renormalised to    9.00000

     total cpu time spent up to now is      203.3 secs

     per-process dynamical memory:    31.6 Mb

     Self-consistent Calculation

     iteration #  1     ecut=    40.00 Ry     beta=0.70
     Davidson diagonalization with overlap
     ethr =  1.00E-06,  avg # of iterations =  3.8

     total cpu time spent up to now is      207.6 secs

     total energy              =     -95.01581762 Ry
     Harris-Foulkes estimate   =     -92.65346601 Ry
     estimated scf accuracy    <       0.04642205 Ry

     iteration #  2     ecut=    40.00 Ry     beta=0.70
     Davidson diagonalization with overlap
     ethr =  5.16E-04,  avg # of iterations =  2.9

     total cpu time spent up to now is      211.0 secs

     total energy              =     -95.10176497 Ry
     Harris-Foulkes estimate   =     -95.13589870 Ry
     estimated scf accuracy    <       0.07771230 Ry

     iteration #  3     ecut=    40.00 Ry     beta=0.70
     Davidson diagonalization with overlap
     ethr =  5.16E-04,  avg # of iterations =  1.3

     total cpu time spent up to now is      213.3 secs

     total energy              =     -95.10099663 Ry
     Harris-Foulkes estimate   =     -95.10651059 Ry
     estimated scf accuracy    <       0.01621059 Ry

     iteration #  4     ecut=    40.00 Ry     beta=0.70
     Davidson diagonalization with overlap
     ethr =  1.80E-04,  avg # of iterations =  1.0

     total cpu time spent up to now is      215.5 secs

     total energy              =     -95.09989878 Ry
     Harris-Foulkes estimate   =     -95.10167586 Ry
     estimated scf accuracy    <       0.00544389 Ry

     iteration #  5     ecut=    40.00 Ry     beta=0.70
     Davidson diagonalization with overlap
     ethr =  6.05E-05,  avg # of iterations =  1.0

     total cpu time spent up to now is      217.7 secs

     total energy              =     -95.09917254 Ry
     Harris-Foulkes estimate   =     -95.10008728 Ry
     estimated scf accuracy    <       0.00201785 Ry

     iteration #  6     ecut=    40.00 Ry     beta=0.70
     Davidson diagonalization with overlap
     ethr =  2.24E-05,  avg # of iterations =  1.0

     total cpu time spent up to now is      219.9 secs

     total energy              =     -95.09908039 Ry
     Harris-Foulkes estimate   =     -95.09930817 Ry
     estimated scf accuracy    <       0.00037386 Ry

     iteration #  7     ecut=    40.00 Ry     beta=0.70
     Davidson diagonalization with overlap
     ethr =  4.15E-06,  avg # of iterations =  2.2

     total cpu time spent up to now is      222.6 secs

     total energy              =     -95.09914556 Ry
     Harris-Foulkes estimate   =     -95.09914349 Ry
     estimated scf accuracy    <       0.00000818 Ry

     iteration #  8     ecut=    40.00 Ry     beta=0.70
     Davidson diagonalization with overlap
     ethr =  9.08E-08,  avg # of iterations =  1.0

     total cpu time spent up to now is      224.8 secs

     total energy              =     -95.09913573 Ry
     Harris-Foulkes estimate   =     -95.09914577 Ry
     estimated scf accuracy    <       0.00001289 Ry

     iteration #  9     ecut=    40.00 Ry     beta=0.70
     Davidson diagonalization with overlap
     ethr =  9.08E-08,  avg # of iterations =  2.0

     total cpu time spent up to now is      227.5 secs

     total energy              =     -95.09913952 Ry
     Harris-Foulkes estimate   =     -95.09914031 Ry
     estimated scf accuracy    <       0.00000112 Ry

     iteration # 10     ecut=    40.00 Ry     beta=0.70
     Davidson diagonalization with overlap
     ethr =  1.24E-08,  avg # of iterations =  2.0

     total cpu time spent up to now is      230.2 secs

     total energy              =     -95.09913980 Ry
     Harris-Foulkes estimate   =     -95.09913981 Ry
     estimated scf accuracy    <       0.00000001 Ry

     iteration # 11     ecut=    40.00 Ry     beta=0.70
     Davidson diagonalization with overlap
     ethr =  1.54E-10,  avg # of iterations =  1.6

     total cpu time spent up to now is      232.6 secs

     total energy              =     -95.09913980 Ry
     Harris-Foulkes estimate   =     -95.09913980 Ry
     estimated scf accuracy    <          1.3E-09 Ry

     iteration # 12     ecut=    40.00 Ry     beta=0.70
     Davidson diagonalization with overlap
     ethr =  1.49E-11,  avg # of iterations =  1.1

     total cpu time spent up to now is      234.8 secs

     total energy              =     -95.09913980 Ry
     Harris-Foulkes estimate   =     -95.09913980 Ry
     estimated scf accuracy    <          3.9E-10 Ry

     iteration # 13     ecut=    40.00 Ry     beta=0.70
     Davidson diagonalization with overlap
     ethr =  4.32E-12,  avg # of iterations =  1.9

     total cpu time spent up to now is      237.3 secs

     End of self-consistent calculation

     Number of k-points >= 100: set verbosity='high' to print the bands.

     the Fermi energy is     2.8568 ev

!    total energy              =     -95.09913980 Ry
     Harris-Foulkes estimate   =     -95.09913980 Ry
     estimated scf accuracy    <          1.4E-11 Ry

     The total energy is the sum of the following terms:

     one-electron contribution =     -82.23813822 Ry
     hartree contribution      =      41.95244295 Ry
     xc contribution           =     -14.30569452 Ry
     ewald contribution        =     -40.50771203 Ry
     smearing contrib. (-TS)   =      -0.00003799 Ry

     convergence has been achieved in  13 iterations

     Forces acting on atoms (cartesian axes, Ry/au):

     atom    1 type  1   force =     0.00000000    0.00000000    0.00000000

     Total force =     0.000000     Total SCF correction =     0.000000


     Computing stress (Cartesian axis) and pressure

          total   stress  (Ry/bohr**3)                   (kbar)     P=   31.27
   0.00021255   0.00000000   0.00000000         31.27      0.00      0.00
   0.00000000   0.00021255   0.00000000          0.00     31.27      0.00
   0.00000000   0.00000000   0.00021255          0.00      0.00     31.27


     number of scf cycles    =   6
     number of bfgs steps    =   5

     enthalpy old            =     -95.0596369282 Ry
     enthalpy new            =     -95.0598523011 Ry

     CASE: enthalpy_new < enthalpy_old

     new trust radius        =       0.0070553962 bohr
     new conv_thr            =            1.0E-10 Ry

     new unit-cell volume =    194.11897 a.u.^3 (    28.76546 Ang^3 )
     density =      1.32714 g/cm^3

CELL_PARAMETERS (alat=  8.00000000)
  -0.574454995  -0.000000000   0.574454995
   0.000000000   0.574454995   0.574454995
  -0.574454995   0.574454995  -0.000000000

ATOMIC_POSITIONS (crystal)
Na       0.000000000   0.000000000   0.000000000



     Writing output data file na.fcc.save
     NEW-OLD atomic charge density approx. for the potential
     extrapolated charge    9.06823, renormalised to    9.00000

     total cpu time spent up to now is      239.1 secs

     per-process dynamical memory:    31.6 Mb

     Self-consistent Calculation

     iteration #  1     ecut=    40.00 Ry     beta=0.70
     Davidson diagonalization with overlap
     ethr =  1.00E-06,  avg # of iterations =  2.6

     total cpu time spent up to now is      242.5 secs

     total energy              =     -95.09636239 Ry
     Harris-Foulkes estimate   =     -94.60258451 Ry
     estimated scf accuracy    <       0.00172274 Ry

     iteration #  2     ecut=    40.00 Ry     beta=0.70
     Davidson diagonalization with overlap
     ethr =  1.91E-05,  avg # of iterations =  2.8

     total cpu time spent up to now is      246.0 secs

     total energy              =     -95.09951231 Ry
     Harris-Foulkes estimate   =     -95.10078072 Ry
     estimated scf accuracy    <       0.00288951 Ry

     iteration #  3     ecut=    40.00 Ry     beta=0.70
     Davidson diagonalization with overlap
     ethr =  1.91E-05,  avg # of iterations =  1.5

     total cpu time spent up to now is      248.3 secs

     total energy              =     -95.09951571 Ry
     Harris-Foulkes estimate   =     -95.09970053 Ry
     estimated scf accuracy    <       0.00056657 Ry

     iteration #  4     ecut=    40.00 Ry     beta=0.70
     Davidson diagonalization with overlap
     ethr =  6.30E-06,  avg # of iterations =  1.0

     total cpu time spent up to now is      250.5 secs

     total energy              =     -95.09947011 Ry
     Harris-Foulkes estimate   =     -95.09953812 Ry
     estimated scf accuracy    <       0.00019933 Ry

     iteration #  5     ecut=    40.00 Ry     beta=0.70
     Davidson diagonalization with overlap
     ethr =  2.21E-06,  avg # of iterations =  1.0

     total cpu time spent up to now is      252.7 secs

     total energy              =     -95.09945683 Ry
     Harris-Foulkes estimate   =     -95.09947780 Ry
     estimated scf accuracy    <       0.00006800 Ry

     iteration #  6     ecut=    40.00 Ry     beta=0.70
     Davidson diagonalization with overlap
     ethr =  7.56E-07,  avg # of iterations =  1.0

     total cpu time spent up to now is      254.9 secs

     total energy              =     -95.09944383 Ry
     Harris-Foulkes estimate   =     -95.09945887 Ry
     estimated scf accuracy    <       0.00002706 Ry

     iteration #  7     ecut=    40.00 Ry     beta=0.70
     Davidson diagonalization with overlap
     ethr =  3.01E-07,  avg # of iterations =  1.7

     total cpu time spent up to now is      257.3 secs

     total energy              =     -95.09944589 Ry
     Harris-Foulkes estimate   =     -95.09944700 Ry
     estimated scf accuracy    <       0.00000171 Ry

     iteration #  8     ecut=    40.00 Ry     beta=0.70
     Davidson diagonalization with overlap
     ethr =  1.90E-08,  avg # of iterations =  2.0

     total cpu time spent up to now is      259.9 secs

     total energy              =     -95.09944628 Ry
     Harris-Foulkes estimate   =     -95.09944629 Ry
     estimated scf accuracy    <          4.6E-09 Ry

     iteration #  9     ecut=    40.00 Ry     beta=0.70
     Davidson diagonalization with overlap
     ethr =  5.10E-11,  avg # of iterations =  2.0

     total cpu time spent up to now is      262.7 secs

     total energy              =     -95.09944629 Ry
     Harris-Foulkes estimate   =     -95.09944629 Ry
     estimated scf accuracy    <          1.2E-09 Ry

     iteration # 10     ecut=    40.00 Ry     beta=0.70
     Davidson diagonalization with overlap
     ethr =  1.31E-11,  avg # of iterations =  2.0

     total cpu time spent up to now is      265.4 secs

     total energy              =     -95.09944629 Ry
     Harris-Foulkes estimate   =     -95.09944629 Ry
     estimated scf accuracy    <          3.9E-10 Ry

     iteration # 11     ecut=    40.00 Ry     beta=0.70
     Davidson diagonalization with overlap
     ethr =  4.28E-12,  avg # of iterations =  2.0

     total cpu time spent up to now is      268.1 secs

     End of self-consistent calculation

     Number of k-points >= 100: set verbosity='high' to print the bands.

     the Fermi energy is     2.8149 ev

!    total energy              =     -95.09944629 Ry
     Harris-Foulkes estimate   =     -95.09944629 Ry
     estimated scf accuracy    <          2.9E-12 Ry

     The total energy is the sum of the following terms:

     one-electron contribution =     -82.41703329 Ry
     hartree contribution      =      42.02719528 Ry
     xc contribution           =     -14.30455234 Ry
     ewald contribution        =     -40.40501773 Ry
     smearing contrib. (-TS)   =      -0.00003821 Ry

     convergence has been achieved in  11 iterations

     Forces acting on atoms (cartesian axes, Ry/au):

     atom    1 type  1   force =     0.00000000    0.00000000    0.00000000

     Total force =     0.000000     Total SCF correction =     0.000000


     Computing stress (Cartesian axis) and pressure

          total   stress  (Ry/bohr**3)                   (kbar)     P=   29.99
   0.00020386   0.00000000   0.00000000         29.99      0.00      0.00
   0.00000000   0.00020386   0.00000000          0.00     29.99      0.00
  -0.00000000   0.00000000   0.00020386         -0.00      0.00     29.99


     bfgs converged in   7 scf cycles and   6 bfgs steps
     (criteria: energy <  1.0E-04 Ry, force <  1.0E-03Ry/Bohr, cell <  5.0E-01kbar)

     End of BFGS Geometry Optimization

     Final enthalpy =     -95.0598584602 Ry
Begin final coordinates
     new unit-cell volume =    194.11897 a.u.^3 (    28.76546 Ang^3 )
     density =      1.32714 g/cm^3

CELL_PARAMETERS (alat=  8.00000000)
  -0.574454995  -0.000000000   0.574454995
   0.000000000   0.574454995   0.574454995
  -0.574454995   0.574454995  -0.000000000

ATOMIC_POSITIONS (crystal)
Na       0.000000000   0.000000000   0.000000000
End final coordinates



     A final scf calculation at the relaxed structure.
     The G-vectors are recalculated for the final unit cell
     Results may differ from those at the preceding step.

     Parallelization info
     --------------------
     sticks:   dense  smooth     PW     G-vecs:    dense   smooth      PW
     Min         232     115     40                 4720     1653     340
     Max         233     116     41                 4721     1655     342
     Sum         931     463    163                18883     6615    1363



     bravais-lattice index     =            2
     lattice parameter (alat)  =       8.0000  a.u.
     unit-cell volume          =     194.1190 (a.u.)^3
     number of atoms/cell      =            1
     number of atomic types    =            1
     number of electrons       =         9.00
     number of Kohn-Sham states=            9
     kinetic-energy cutoff     =      40.0000  Ry
     charge density cutoff     =     320.0000  Ry
     convergence threshold     =      1.0E-10
     mixing beta               =       0.7000
     number of iterations used =            8  plain     mixing
     Exchange-correlation      = SLA  PW   PBE  PBE ( 1  4  3  4 0 0)

     celldm(1)=   8.000000  celldm(2)=   0.000000  celldm(3)=   0.000000
     celldm(4)=   0.000000  celldm(5)=   0.000000  celldm(6)=   0.000000

     crystal axes: (cart. coord. in units of alat)
               a(1) = (  -0.574455  -0.000000   0.574455 )  
               a(2) = (   0.000000   0.574455   0.574455 )  
               a(3) = (  -0.574455   0.574455  -0.000000 )  

     reciprocal axes: (cart. coord. in units 2 pi/alat)
               b(1) = ( -0.870390 -0.870390  0.870390 )  
               b(2) = (  0.870390  0.870390  0.870390 )  
               b(3) = ( -0.870390  0.870390 -0.870390 )  


     PseudoPot. # 1 for Na read from file:
     /home/s1333534/quantum_espresso/qe-6.1/pseudo/Na_pbe_v1.uspp.F.UPF
     MD5 check sum: 76a99c7e9422403d3e93cbc85ab7bccb
     Pseudo is Ultrasoft, Zval =  9.0
     Generated by new atomic code, or converted to UPF format
     Using radial grid of  819 points,  5 beta functions with: 
                l(1) =   0
                l(2) =   0
                l(3) =   1
                l(4) =   1
                l(5) =   2
     Q(r) pseudized with  8 coefficients,  rinner =    1.250   1.250   1.250
                                                       1.250   1.250

     atomic species   valence    mass     pseudopotential
        Na             9.00    22.99000     Na( 1.00)

     48 Sym. Ops., with inversion, found



   Cartesian axes

     site n.     atom                  positions (alat units)
         1           Na  tau(   1) = (   0.0000000   0.0000000   0.0000000  )

     number of k points=   770  Marzari-Vanderbilt smearing, width (Ry)=  0.0200

     Number of k-points >= 100: set verbosity='high' to print them.

     Dense  grid:    18883 G-vectors     FFT dimensions: (  40,  40,  40)

     Smooth grid:     6615 G-vectors     FFT dimensions: (  27,  27,  27)

     Estimated max dynamical RAM per process >      25.19MB

     Estimated total allocated dynamical RAM >     100.77MB

     Initial potential from superposition of free atoms

     starting charge    8.99371, renormalised to    9.00000
     Starting wfc are    5 randomized atomic wfcs +    4 random wfc

     Writing output data file na.fcc.save

     total cpu time spent up to now is      271.6 secs

     per-process dynamical memory:    41.4 Mb

     Self-consistent Calculation

     iteration #  1     ecut=    40.00 Ry     beta=0.70
     Davidson diagonalization with overlap
     c_bands:  1 eigenvalues not converged
     c_bands:  1 eigenvalues not converged
     c_bands:  1 eigenvalues not converged
     c_bands:  1 eigenvalues not converged
     c_bands:  1 eigenvalues not converged
     ethr =  1.00E-06,  avg # of iterations = 10.7

     total cpu time spent up to now is      284.1 secs

     total energy              =     -95.10156059 Ry
     Harris-Foulkes estimate   =     -95.10192234 Ry
     estimated scf accuracy    <       0.00108691 Ry

     iteration #  2     ecut=    40.00 Ry     beta=0.70
     Davidson diagonalization with overlap
     ethr =  1.21E-05,  avg # of iterations =  2.0

     total cpu time spent up to now is      288.4 secs

     total energy              =     -95.10169899 Ry
     Harris-Foulkes estimate   =     -95.10173170 Ry
     estimated scf accuracy    <       0.00012405 Ry

     iteration #  3     ecut=    40.00 Ry     beta=0.70
     Davidson diagonalization with overlap
     ethr =  1.38E-06,  avg # of iterations =  2.0

     total cpu time spent up to now is      292.9 secs

     total energy              =     -95.10171315 Ry
     Harris-Foulkes estimate   =     -95.10171456 Ry
     estimated scf accuracy    <       0.00000747 Ry

     iteration #  4     ecut=    40.00 Ry     beta=0.70
     Davidson diagonalization with overlap
     ethr =  8.30E-08,  avg # of iterations =  1.0

     total cpu time spent up to now is      296.7 secs

     total energy              =     -95.10171381 Ry
     Harris-Foulkes estimate   =     -95.10171376 Ry
     estimated scf accuracy    <          8.5E-09 Ry

     iteration #  5     ecut=    40.00 Ry     beta=0.70
     Davidson diagonalization with overlap
     ethr =  9.48E-11,  avg # of iterations =  3.0

     total cpu time spent up to now is      302.0 secs

     total energy              =     -95.10171384 Ry
     Harris-Foulkes estimate   =     -95.10171384 Ry
     estimated scf accuracy    <          1.4E-09 Ry

     iteration #  6     ecut=    40.00 Ry     beta=0.70
     Davidson diagonalization with overlap
     ethr =  1.53E-11,  avg # of iterations =  1.6

     total cpu time spent up to now is      306.0 secs

     End of self-consistent calculation

     Number of k-points >= 100: set verbosity='high' to print the bands.

     the Fermi energy is     2.8169 ev

!    total energy              =     -95.10171384 Ry
     Harris-Foulkes estimate   =     -95.10171384 Ry
     estimated scf accuracy    <          3.5E-11 Ry

     The total energy is the sum of the following terms:

     one-electron contribution =     -82.41591602 Ry
     hartree contribution      =      42.02316704 Ry
     xc contribution           =     -14.30390893 Ry
     ewald contribution        =     -40.40501772 Ry
     smearing contrib. (-TS)   =      -0.00003822 Ry

     convergence has been achieved in   6 iterations

     Forces acting on atoms (cartesian axes, Ry/au):

     atom    1 type  1   force =     0.00000000    0.00000000    0.00000000

     Total force =     0.000000     Total SCF correction =     0.000000


     Computing stress (Cartesian axis) and pressure

          total   stress  (Ry/bohr**3)                   (kbar)     P=   27.79
   0.00018888   0.00000000   0.00000000         27.79      0.00      0.00
   0.00000000   0.00018888   0.00000000          0.00     27.79      0.00
   0.00000000   0.00000000   0.00018888          0.00      0.00     27.79


     Writing output data file na.fcc.save

     init_run     :      2.89s CPU      3.00s WALL (       2 calls)
     electrons    :    278.27s CPU    290.14s WALL (       8 calls)
     update_pot   :      0.74s CPU      0.75s WALL (       6 calls)
     forces       :      1.31s CPU      1.35s WALL (       8 calls)
     stress       :      7.04s CPU      7.08s WALL (       8 calls)

     Called by init_run:
     wfcinit      :      2.27s CPU      2.38s WALL (       2 calls)
     potinit      :      0.06s CPU      0.06s WALL (       2 calls)

     Called by electrons:
     c_bands      :    232.03s CPU    242.24s WALL (     101 calls)
     sum_band     :     44.49s CPU     46.09s WALL (     101 calls)
     v_of_rho     :      0.87s CPU      0.88s WALL (     108 calls)
     newd         :      0.86s CPU      0.89s WALL (     108 calls)
     mix_rho      :      0.07s CPU      0.07s WALL (     101 calls)

     Called by c_bands:
     init_us_2    :     11.37s CPU     10.55s WALL (  169400 calls)
     cegterg      :    220.89s CPU    231.32s WALL (   77770 calls)

     Called by sum_band:
     sum_band:bec :      0.19s CPU      0.23s WALL (   77770 calls)
     addusdens    :      0.99s CPU      1.01s WALL (     101 calls)

     Called by *egterg:
     h_psi        :    175.03s CPU    182.87s WALL (  233336 calls)
     s_psi        :      2.57s CPU      2.19s WALL (  233336 calls)
     g_psi        :      1.29s CPU      1.26s WALL (  154026 calls)
     cdiaghg      :     28.68s CPU     29.58s WALL (  226406 calls)

     Called by h_psi:
     h_psi:pot    :    174.43s CPU    181.95s WALL (  233336 calls)
     h_psi:calbec :      4.11s CPU      3.85s WALL (  233336 calls)
     vloc_psi     :    167.72s CPU    175.09s WALL (  233336 calls)
     add_vuspsi   :      2.24s CPU      2.45s WALL (  233336 calls)

     General routines
     calbec       :      5.37s CPU      5.42s WALL (  341906 calls)
     fft          :      0.39s CPU      0.40s WALL (    1770 calls)
     ffts         :      0.02s CPU      0.02s WALL (     209 calls)
     fftw         :    187.72s CPU    181.63s WALL ( 4138852 calls)
     interpolate  :      0.07s CPU      0.07s WALL (     209 calls)
     davcio       :      0.01s CPU      0.02s WALL (    1540 calls)

     Parallel routines
     fft_scatter  :     26.71s CPU     34.13s WALL ( 4140831 calls)

     PWSCF        :  4m55.69s CPU     5m 8.05s WALL


   This run was terminated on:  11: 9:22  20Dec2017            

=------------------------------------------------------------------------------=
   JOB DONE.
=------------------------------------------------------------------------------=
