
     Program PWSCF v.6.1 (svn rev. 13369) starts on 20Dec2017 at 11:34: 1 

     This program is part of the open-source Quantum ESPRESSO suite
     for quantum simulation of materials; please cite
         "P. Giannozzi et al., J. Phys.:Condens. Matter 21 395502 (2009);
          URL http://www.quantum-espresso.org", 
     in publications or presentations arising from this work. More details at
     http://www.quantum-espresso.org/quote

     Parallel version (MPI), running on     4 processors
     R & G space division:  proc/nbgrp/npool/nimage =       4
     Waiting for input...
     Reading input from standard input

     Current dimensions of program PWSCF are:
     Max number of different atomic species (ntypx) = 10
     Max number of k-points (npk) =  40000
     Max angular momentum in pseudopotentials (lmaxx) =  3

     Subspace diagonalization in iterative solution of the eigenvalue problem:
     a serial algorithm will be used


     Parallelization info
     --------------------
     sticks:   dense  smooth     PW     G-vecs:    dense   smooth      PW
     Min         175      90     30                 3084     1095     234
     Max         176      91     31                 3086     1096     238
     Sum         703     361    121                12339     4381     941



     bravais-lattice index     =            2
     lattice parameter (alat)  =       8.0000  a.u.
     unit-cell volume          =     128.0000 (a.u.)^3
     number of atoms/cell      =            1
     number of atomic types    =            1
     number of electrons       =         9.00
     number of Kohn-Sham states=            9
     kinetic-energy cutoff     =      40.0000  Ry
     charge density cutoff     =     320.0000  Ry
     convergence threshold     =      1.0E-08
     mixing beta               =       0.7000
     number of iterations used =            8  plain     mixing
     Exchange-correlation      = SLA  PW   PBE  PBE ( 1  4  3  4 0 0)
     nstep                     =           50


     celldm(1)=   8.000000  celldm(2)=   0.000000  celldm(3)=   0.000000
     celldm(4)=   0.000000  celldm(5)=   0.000000  celldm(6)=   0.000000

     crystal axes: (cart. coord. in units of alat)
               a(1) = (  -0.500000   0.000000   0.500000 )  
               a(2) = (   0.000000   0.500000   0.500000 )  
               a(3) = (  -0.500000   0.500000   0.000000 )  

     reciprocal axes: (cart. coord. in units 2 pi/alat)
               b(1) = ( -1.000000 -1.000000  1.000000 )  
               b(2) = (  1.000000  1.000000  1.000000 )  
               b(3) = ( -1.000000  1.000000 -1.000000 )  


     PseudoPot. # 1 for Na read from file:
     /home/s1333534/quantum_espresso/qe-6.1/pseudo/Na_pbe_v1.uspp.F.UPF
     MD5 check sum: 76a99c7e9422403d3e93cbc85ab7bccb
     Pseudo is Ultrasoft, Zval =  9.0
     Generated by new atomic code, or converted to UPF format
     Using radial grid of  819 points,  5 beta functions with: 
                l(1) =   0
                l(2) =   0
                l(3) =   1
                l(4) =   1
                l(5) =   2
     Q(r) pseudized with  8 coefficients,  rinner =    1.250   1.250   1.250
                                                       1.250   1.250

     atomic species   valence    mass     pseudopotential
        Na             9.00    22.99000     Na( 1.00)

     48 Sym. Ops., with inversion, found



   Cartesian axes

     site n.     atom                  positions (alat units)
         1           Na  tau(   1) = (   0.0000000   0.0000000   0.0000000  )

     number of k points=   770  Marzari-Vanderbilt smearing, width (Ry)=  0.0200

     Number of k-points >= 100: set verbosity='high' to print them.

     Dense  grid:    12339 G-vectors     FFT dimensions: (  36,  36,  36)

     Smooth grid:     4381 G-vectors     FFT dimensions: (  24,  24,  24)

     Estimated max dynamical RAM per process >      16.64MB

     Estimated total allocated dynamical RAM >      66.55MB

     Initial potential from superposition of free atoms

     starting charge    8.99371, renormalised to    9.00000
     Starting wfc are    5 randomized atomic wfcs +    4 random wfc

     total cpu time spent up to now is        1.2 secs

     per-process dynamical memory:    24.8 Mb

     Self-consistent Calculation

     iteration #  1     ecut=    40.00 Ry     beta=0.70
     Davidson diagonalization with overlap
     ethr =  1.00E-02,  avg # of iterations =  5.1

     Threshold (ethr) on eigenvalues was too large:
     Diagonalizing with lowered threshold

     Davidson diagonalization with overlap
     ethr =  2.47E-05,  avg # of iterations =  2.4

     total cpu time spent up to now is        8.3 secs

     total energy              =     -95.06263719 Ry
     Harris-Foulkes estimate   =     -95.06346383 Ry
     estimated scf accuracy    <       0.00221907 Ry

     iteration #  2     ecut=    40.00 Ry     beta=0.70
     Davidson diagonalization with overlap
     ethr =  2.47E-05,  avg # of iterations =  2.0

     total cpu time spent up to now is       10.8 secs

     total energy              =     -95.06293327 Ry
     Harris-Foulkes estimate   =     -95.06299962 Ry
     estimated scf accuracy    <       0.00025023 Ry

     iteration #  3     ecut=    40.00 Ry     beta=0.70
     Davidson diagonalization with overlap
     ethr =  2.78E-06,  avg # of iterations =  2.1

     total cpu time spent up to now is       13.4 secs

     total energy              =     -95.06296602 Ry
     Harris-Foulkes estimate   =     -95.06296754 Ry
     estimated scf accuracy    <       0.00001446 Ry

     iteration #  4     ecut=    40.00 Ry     beta=0.70
     Davidson diagonalization with overlap
     ethr =  1.61E-07,  avg # of iterations =  1.0

     total cpu time spent up to now is       15.7 secs

     total energy              =     -95.06296732 Ry
     Harris-Foulkes estimate   =     -95.06296725 Ry
     estimated scf accuracy    <       0.00000002 Ry

     iteration #  5     ecut=    40.00 Ry     beta=0.70
     Davidson diagonalization with overlap
     ethr =  2.20E-10,  avg # of iterations =  3.0

     total cpu time spent up to now is       18.9 secs

     End of self-consistent calculation

     Number of k-points >= 100: set verbosity='high' to print the bands.

     the Fermi energy is     5.7098 ev

!    total energy              =     -95.06296737 Ry
     Harris-Foulkes estimate   =     -95.06296737 Ry
     estimated scf accuracy    <          2.7E-09 Ry

     The total energy is the sum of the following terms:

     one-electron contribution =     -72.01868817 Ry
     hartree contribution      =      37.75480527 Ry
     xc contribution           =     -14.37732448 Ry
     ewald contribution        =     -46.42172850 Ry
     smearing contrib. (-TS)   =      -0.00003149 Ry

     convergence has been achieved in   5 iterations

     Forces acting on atoms (cartesian axes, Ry/au):

     atom    1 type  1   force =     0.00000000    0.00000000    0.00000000

     Total force =     0.000000     Total SCF correction =     0.000000


     Computing stress (Cartesian axis) and pressure

          total   stress  (Ry/bohr**3)                   (kbar)     P=  175.59
   0.00119366   0.00000000   0.00000000        175.59      0.00      0.00
   0.00000000   0.00119366  -0.00000000          0.00    175.59     -0.00
   0.00000000  -0.00000000   0.00119366          0.00     -0.00    175.59


     BFGS Geometry Optimization

     number of scf cycles    =   1
     number of bfgs steps    =   0

     enthalpy new            =     -94.9759547241 Ry

     new trust radius        =       0.0290693094 bohr
     new conv_thr            =       0.0000000100 Ry

     new unit-cell volume =    132.99687 a.u.^3 (    19.70810 Ang^3 )
     density =      1.93706 g/cm^3

CELL_PARAMETERS (alat=  8.00000000)
  -0.506423471  -0.000000000   0.506423471
   0.000000000   0.506423471   0.506423471
  -0.506423471   0.506423471  -0.000000000

ATOMIC_POSITIONS (crystal)
Na       0.000000000   0.000000000   0.000000000



     Writing output data file na.fcc.save
     NEW-OLD atomic charge density approx. for the potential
     extrapolated charge    9.33791, renormalised to    9.00000

     total cpu time spent up to now is       20.7 secs

     per-process dynamical memory:    31.6 Mb

     Self-consistent Calculation

     iteration #  1     ecut=    40.00 Ry     beta=0.70
     Davidson diagonalization with overlap
     ethr =  1.00E-06,  avg # of iterations =  3.6

     total cpu time spent up to now is       25.0 secs

     total energy              =     -94.98827480 Ry
     Harris-Foulkes estimate   =     -92.89632459 Ry
     estimated scf accuracy    <       0.04491145 Ry

     iteration #  2     ecut=    40.00 Ry     beta=0.70
     Davidson diagonalization with overlap
     ethr =  4.99E-04,  avg # of iterations =  2.9

     total cpu time spent up to now is       28.5 secs

     total energy              =     -95.07101868 Ry
     Harris-Foulkes estimate   =     -95.10408864 Ry
     estimated scf accuracy    <       0.07535268 Ry

     iteration #  3     ecut=    40.00 Ry     beta=0.70
     Davidson diagonalization with overlap
     ethr =  4.99E-04,  avg # of iterations =  1.2

     total cpu time spent up to now is       30.7 secs

     total energy              =     -95.07047530 Ry
     Harris-Foulkes estimate   =     -95.07562027 Ry
     estimated scf accuracy    <       0.01572680 Ry

     iteration #  4     ecut=    40.00 Ry     beta=0.70
     Davidson diagonalization with overlap
     ethr =  1.75E-04,  avg # of iterations =  1.0

     total cpu time spent up to now is       32.9 secs

     total energy              =     -95.07015648 Ry
     Harris-Foulkes estimate   =     -95.07111197 Ry
     estimated scf accuracy    <       0.00552392 Ry

     iteration #  5     ecut=    40.00 Ry     beta=0.70
     Davidson diagonalization with overlap
     ethr =  6.14E-05,  avg # of iterations =  1.0

     total cpu time spent up to now is       35.2 secs

     total energy              =     -95.06931952 Ry
     Harris-Foulkes estimate   =     -95.07022443 Ry
     estimated scf accuracy    <       0.00362994 Ry

     iteration #  6     ecut=    40.00 Ry     beta=0.70
     Davidson diagonalization with overlap
     ethr =  4.03E-05,  avg # of iterations =  1.0

     total cpu time spent up to now is       37.4 secs

     total energy              =     -95.06828134 Ry
     Harris-Foulkes estimate   =     -95.06938179 Ry
     estimated scf accuracy    <       0.00184540 Ry

     iteration #  7     ecut=    40.00 Ry     beta=0.70
     Davidson diagonalization with overlap
     ethr =  2.05E-05,  avg # of iterations =  2.0

     total cpu time spent up to now is       39.9 secs

     total energy              =     -95.06853801 Ry
     Harris-Foulkes estimate   =     -95.06855562 Ry
     estimated scf accuracy    <       0.00005323 Ry

     iteration #  8     ecut=    40.00 Ry     beta=0.70
     Davidson diagonalization with overlap
     ethr =  5.91E-07,  avg # of iterations =  1.6

     total cpu time spent up to now is       42.3 secs

     total energy              =     -95.06852556 Ry
     Harris-Foulkes estimate   =     -95.06854113 Ry
     estimated scf accuracy    <       0.00001949 Ry

     iteration #  9     ecut=    40.00 Ry     beta=0.70
     Davidson diagonalization with overlap
     ethr =  2.17E-07,  avg # of iterations =  2.0

     total cpu time spent up to now is       45.1 secs

     total energy              =     -95.06853148 Ry
     Harris-Foulkes estimate   =     -95.06853367 Ry
     estimated scf accuracy    <       0.00000310 Ry

     iteration # 10     ecut=    40.00 Ry     beta=0.70
     Davidson diagonalization with overlap
     ethr =  3.45E-08,  avg # of iterations =  2.0

     total cpu time spent up to now is       47.8 secs

     total energy              =     -95.06853244 Ry
     Harris-Foulkes estimate   =     -95.06853237 Ry
     estimated scf accuracy    <       0.00000015 Ry

     iteration # 11     ecut=    40.00 Ry     beta=0.70
     Davidson diagonalization with overlap
     ethr =  1.65E-09,  avg # of iterations =  1.0

     total cpu time spent up to now is       50.0 secs

     total energy              =     -95.06853228 Ry
     Harris-Foulkes estimate   =     -95.06853245 Ry
     estimated scf accuracy    <       0.00000032 Ry

     iteration # 12     ecut=    40.00 Ry     beta=0.70
     Davidson diagonalization with overlap
     ethr =  1.65E-09,  avg # of iterations =  2.0

     total cpu time spent up to now is       52.7 secs

     total energy              =     -95.06853232 Ry
     Harris-Foulkes estimate   =     -95.06853232 Ry
     estimated scf accuracy    <       0.00000003 Ry

     iteration # 13     ecut=    40.00 Ry     beta=0.70
     Davidson diagonalization with overlap
     ethr =  3.12E-10,  avg # of iterations =  1.0

     total cpu time spent up to now is       54.9 secs

     total energy              =     -95.06853231 Ry
     Harris-Foulkes estimate   =     -95.06853232 Ry
     estimated scf accuracy    <       0.00000002 Ry

     iteration # 14     ecut=    40.00 Ry     beta=0.70
     Davidson diagonalization with overlap
     ethr =  1.75E-10,  avg # of iterations =  1.0

     total cpu time spent up to now is       57.1 secs

     End of self-consistent calculation

     Number of k-points >= 100: set verbosity='high' to print the bands.

     the Fermi energy is     5.3846 ev

!    total energy              =     -95.06853231 Ry
     Harris-Foulkes estimate   =     -95.06853231 Ry
     estimated scf accuracy    <          5.1E-11 Ry

     The total energy is the sum of the following terms:

     one-electron contribution =     -73.02867979 Ry
     hartree contribution      =      38.16266246 Ry
     xc contribution           =     -14.36956767 Ry
     ewald contribution        =     -45.83291572 Ry
     smearing contrib. (-TS)   =      -0.00003159 Ry

     convergence has been achieved in  14 iterations

     Forces acting on atoms (cartesian axes, Ry/au):

     atom    1 type  1   force =     0.00000000    0.00000000    0.00000000

     Total force =     0.000000     Total SCF correction =     0.000000


     Computing stress (Cartesian axis) and pressure

          total   stress  (Ry/bohr**3)                   (kbar)     P=  152.61
   0.00103743  -0.00000000   0.00000000        152.61     -0.00      0.00
  -0.00000000   0.00103743  -0.00000000         -0.00    152.61     -0.00
   0.00000000   0.00000000   0.00103743          0.00      0.00    152.61


     number of scf cycles    =   2
     number of bfgs steps    =   1

     enthalpy old            =     -94.9759547241 Ry
     enthalpy new            =     -94.9781228617 Ry

     CASE: enthalpy_new < enthalpy_old

     new trust radius        =       0.0321809833 bohr
     new conv_thr            =            1.0E-10 Ry

     new unit-cell volume =    138.64178 a.u.^3 (    20.54459 Ang^3 )
     density =      1.85819 g/cm^3

CELL_PARAMETERS (alat=  8.00000000)
  -0.513489288  -0.000000000   0.513489288
   0.000000000   0.513489288   0.513489288
  -0.513489288   0.513489288  -0.000000000

ATOMIC_POSITIONS (crystal)
Na       0.000000000   0.000000000   0.000000000



     Writing output data file na.fcc.save
     NEW-OLD atomic charge density approx. for the potential
     extrapolated charge    9.36619, renormalised to    9.00000

     total cpu time spent up to now is       59.0 secs

     per-process dynamical memory:    31.6 Mb

     Self-consistent Calculation

     iteration #  1     ecut=    40.00 Ry     beta=0.70
     Davidson diagonalization with overlap
     ethr =  1.00E-06,  avg # of iterations =  3.6

     total cpu time spent up to now is       63.2 secs

     total energy              =     -94.97787646 Ry
     Harris-Foulkes estimate   =     -92.68297831 Ry
     estimated scf accuracy    <       0.05373189 Ry

     iteration #  2     ecut=    40.00 Ry     beta=0.70
     Davidson diagonalization with overlap
     ethr =  5.97E-04,  avg # of iterations =  2.9

     total cpu time spent up to now is       66.7 secs

     total energy              =     -95.07702853 Ry
     Harris-Foulkes estimate   =     -95.11658554 Ry
     estimated scf accuracy    <       0.09011226 Ry

     iteration #  3     ecut=    40.00 Ry     beta=0.70
     Davidson diagonalization with overlap
     ethr =  5.97E-04,  avg # of iterations =  1.2

     total cpu time spent up to now is       69.0 secs

     total energy              =     -95.07622495 Ry
     Harris-Foulkes estimate   =     -95.08249369 Ry
     estimated scf accuracy    <       0.01892544 Ry

     iteration #  4     ecut=    40.00 Ry     beta=0.70
     Davidson diagonalization with overlap
     ethr =  2.10E-04,  avg # of iterations =  1.0

     total cpu time spent up to now is       71.2 secs

     total energy              =     -95.07582877 Ry
     Harris-Foulkes estimate   =     -95.07700307 Ry
     estimated scf accuracy    <       0.00654962 Ry

     iteration #  5     ecut=    40.00 Ry     beta=0.70
     Davidson diagonalization with overlap
     ethr =  7.28E-05,  avg # of iterations =  1.0

     total cpu time spent up to now is       73.4 secs

     total energy              =     -95.07483812 Ry
     Harris-Foulkes estimate   =     -95.07591449 Ry
     estimated scf accuracy    <       0.00421463 Ry

     iteration #  6     ecut=    40.00 Ry     beta=0.70
     Davidson diagonalization with overlap
     ethr =  4.68E-05,  avg # of iterations =  1.0

     total cpu time spent up to now is       75.7 secs

     total energy              =     -95.07364278 Ry
     Harris-Foulkes estimate   =     -95.07491310 Ry
     estimated scf accuracy    <       0.00210407 Ry

     iteration #  7     ecut=    40.00 Ry     beta=0.70
     Davidson diagonalization with overlap
     ethr =  2.34E-05,  avg # of iterations =  2.0

     total cpu time spent up to now is       78.3 secs

     total energy              =     -95.07395166 Ry
     Harris-Foulkes estimate   =     -95.07396616 Ry
     estimated scf accuracy    <       0.00005160 Ry

     iteration #  8     ecut=    40.00 Ry     beta=0.70
     Davidson diagonalization with overlap
     ethr =  5.73E-07,  avg # of iterations =  1.7

     total cpu time spent up to now is       80.7 secs

     total energy              =     -95.07393517 Ry
     Harris-Foulkes estimate   =     -95.07395407 Ry
     estimated scf accuracy    <       0.00002338 Ry

     iteration #  9     ecut=    40.00 Ry     beta=0.70
     Davidson diagonalization with overlap
     ethr =  2.60E-07,  avg # of iterations =  2.0

     total cpu time spent up to now is       83.5 secs

     total energy              =     -95.07394230 Ry
     Harris-Foulkes estimate   =     -95.07394544 Ry
     estimated scf accuracy    <       0.00000444 Ry

     iteration # 10     ecut=    40.00 Ry     beta=0.70
     Davidson diagonalization with overlap
     ethr =  4.93E-08,  avg # of iterations =  2.0

     total cpu time spent up to now is       86.2 secs

     total energy              =     -95.07394361 Ry
     Harris-Foulkes estimate   =     -95.07394353 Ry
     estimated scf accuracy    <       0.00000021 Ry

     iteration # 11     ecut=    40.00 Ry     beta=0.70
     Davidson diagonalization with overlap
     ethr =  2.34E-09,  avg # of iterations =  1.0

     total cpu time spent up to now is       88.4 secs

     total energy              =     -95.07394343 Ry
     Harris-Foulkes estimate   =     -95.07394362 Ry
     estimated scf accuracy    <       0.00000040 Ry

     iteration # 12     ecut=    40.00 Ry     beta=0.70
     Davidson diagonalization with overlap
     ethr =  2.34E-09,  avg # of iterations =  2.0

     total cpu time spent up to now is       91.1 secs

     total energy              =     -95.07394346 Ry
     Harris-Foulkes estimate   =     -95.07394347 Ry
     estimated scf accuracy    <       0.00000004 Ry

     iteration # 13     ecut=    40.00 Ry     beta=0.70
     Davidson diagonalization with overlap
     ethr =  4.38E-10,  avg # of iterations =  1.0

     total cpu time spent up to now is       93.4 secs

     total energy              =     -95.07394346 Ry
     Harris-Foulkes estimate   =     -95.07394346 Ry
     estimated scf accuracy    <       0.00000002 Ry

     iteration # 14     ecut=    40.00 Ry     beta=0.70
     Davidson diagonalization with overlap
     ethr =  2.70E-10,  avg # of iterations =  1.0

     total cpu time spent up to now is       95.6 secs

     total energy              =     -95.07394346 Ry
     Harris-Foulkes estimate   =     -95.07394346 Ry
     estimated scf accuracy    <          1.1E-10 Ry

     iteration # 15     ecut=    40.00 Ry     beta=0.70
     Davidson diagonalization with overlap
     ethr =  1.22E-12,  avg # of iterations =  2.0

     total cpu time spent up to now is       98.3 secs

     End of self-consistent calculation

     Number of k-points >= 100: set verbosity='high' to print the bands.

     the Fermi energy is     5.0470 ev

!    total energy              =     -95.07394346 Ry
     Harris-Foulkes estimate   =     -95.07394346 Ry
     estimated scf accuracy    <          1.8E-11 Ry

     The total energy is the sum of the following terms:

     one-electron contribution =     -74.11214215 Ry
     hartree contribution      =      38.60184740 Ry
     xc contribution           =     -14.36138037 Ry
     ewald contribution        =     -45.20223650 Ry
     smearing contrib. (-TS)   =      -0.00003185 Ry

     convergence has been achieved in  15 iterations

     Forces acting on atoms (cartesian axes, Ry/au):

     atom    1 type  1   force =     0.00000000    0.00000000    0.00000000

     Total force =     0.000000     Total SCF correction =     0.000000


     Computing stress (Cartesian axis) and pressure

          total   stress  (Ry/bohr**3)                   (kbar)     P=  130.09
   0.00088435   0.00000000   0.00000000        130.09      0.00      0.00
   0.00000000   0.00088435   0.00000000          0.00    130.09      0.00
   0.00000000   0.00000000   0.00088435          0.00      0.00    130.09


     number of scf cycles    =   3
     number of bfgs steps    =   2

     enthalpy old            =     -94.9781228617 Ry
     enthalpy new            =     -94.9796966777 Ry

     CASE: enthalpy_new < enthalpy_old

     new trust radius        =       0.0462553238 bohr
     new conv_thr            =            1.0E-10 Ry

     new unit-cell volume =    146.97288 a.u.^3 (    21.77913 Ang^3 )
     density =      1.75286 g/cm^3

CELL_PARAMETERS (alat=  8.00000000)
  -0.523575221  -0.000000000   0.523575221
   0.000000000   0.523575221   0.523575221
  -0.523575221   0.523575221  -0.000000000

ATOMIC_POSITIONS (crystal)
Na       0.000000000   0.000000000   0.000000000



     Writing output data file na.fcc.save
     NEW-OLD atomic charge density approx. for the potential
     extrapolated charge    9.50981, renormalised to    9.00000

     total cpu time spent up to now is      100.1 secs

     per-process dynamical memory:    31.6 Mb

     Self-consistent Calculation

     iteration #  1     ecut=    40.00 Ry     beta=0.70
     Davidson diagonalization with overlap
     ethr =  1.00E-06,  avg # of iterations =  4.0

     total cpu time spent up to now is      104.7 secs

     total energy              =     -94.88004844 Ry
     Harris-Foulkes estimate   =     -91.67875459 Ry
     estimated scf accuracy    <       0.11211939 Ry

     iteration #  2     ecut=    40.00 Ry     beta=0.70
     Davidson diagonalization with overlap
     ethr =  1.25E-03,  avg # of iterations =  3.0

     total cpu time spent up to now is      108.2 secs

     total energy              =     -95.08807209 Ry
     Harris-Foulkes estimate   =     -95.17035667 Ry
     estimated scf accuracy    <       0.18716143 Ry

     iteration #  3     ecut=    40.00 Ry     beta=0.70
     Davidson diagonalization with overlap
     ethr =  1.25E-03,  avg # of iterations =  1.2

     total cpu time spent up to now is      110.4 secs

     total energy              =     -95.08508546 Ry
     Harris-Foulkes estimate   =     -95.09903356 Ry
     estimated scf accuracy    <       0.04054580 Ry

     iteration #  4     ecut=    40.00 Ry     beta=0.70
     Davidson diagonalization with overlap
     ethr =  4.51E-04,  avg # of iterations =  1.0

     total cpu time spent up to now is      112.7 secs

     total energy              =     -95.08431185 Ry
     Harris-Foulkes estimate   =     -95.08682899 Ry
     estimated scf accuracy    <       0.01343416 Ry

     iteration #  5     ecut=    40.00 Ry     beta=0.70
     Davidson diagonalization with overlap
     ethr =  1.49E-04,  avg # of iterations =  1.0

     total cpu time spent up to now is      114.9 secs

     total energy              =     -95.08217178 Ry
     Harris-Foulkes estimate   =     -95.08450295 Ry
     estimated scf accuracy    <       0.00843907 Ry

     iteration #  6     ecut=    40.00 Ry     beta=0.70
     Davidson diagonalization with overlap
     ethr =  9.38E-05,  avg # of iterations =  1.0

     total cpu time spent up to now is      117.1 secs

     total energy              =     -95.07986986 Ry
     Harris-Foulkes estimate   =     -95.08234581 Ry
     estimated scf accuracy    <       0.00393627 Ry

     iteration #  7     ecut=    40.00 Ry     beta=0.70
     Davidson diagonalization with overlap
     ethr =  4.37E-05,  avg # of iterations =  2.0

     total cpu time spent up to now is      119.8 secs

     total energy              =     -95.08054141 Ry
     Harris-Foulkes estimate   =     -95.08054568 Ry
     estimated scf accuracy    <       0.00004966 Ry

     iteration #  8     ecut=    40.00 Ry     beta=0.70
     Davidson diagonalization with overlap
     ethr =  5.52E-07,  avg # of iterations =  1.6

     total cpu time spent up to now is      122.1 secs

     total energy              =     -95.08050749 Ry
     Harris-Foulkes estimate   =     -95.08054272 Ry
     estimated scf accuracy    <       0.00004170 Ry

     iteration #  9     ecut=    40.00 Ry     beta=0.70
     Davidson diagonalization with overlap
     ethr =  4.63E-07,  avg # of iterations =  2.0

     total cpu time spent up to now is      124.9 secs

     total energy              =     -95.08053302 Ry
     Harris-Foulkes estimate   =     -95.08053596 Ry
     estimated scf accuracy    <       0.00002608 Ry

     iteration # 10     ecut=    40.00 Ry     beta=0.70
     Davidson diagonalization with overlap
     ethr =  2.90E-07,  avg # of iterations =  1.0

     total cpu time spent up to now is      127.1 secs

     total energy              =     -95.08051836 Ry
     Harris-Foulkes estimate   =     -95.08053312 Ry
     estimated scf accuracy    <       0.00001978 Ry

     iteration # 11     ecut=    40.00 Ry     beta=0.70
     Davidson diagonalization with overlap
     ethr =  2.20E-07,  avg # of iterations =  2.0

     total cpu time spent up to now is      129.9 secs

     total energy              =     -95.08052379 Ry
     Harris-Foulkes estimate   =     -95.08052423 Ry
     estimated scf accuracy    <       0.00000092 Ry

     iteration # 12     ecut=    40.00 Ry     beta=0.70
     Davidson diagonalization with overlap
     ethr =  1.02E-08,  avg # of iterations =  2.0

     total cpu time spent up to now is      132.4 secs

     total energy              =     -95.08052390 Ry
     Harris-Foulkes estimate   =     -95.08052390 Ry
     estimated scf accuracy    <       0.00000001 Ry

     iteration # 13     ecut=    40.00 Ry     beta=0.70
     Davidson diagonalization with overlap
     ethr =  1.48E-10,  avg # of iterations =  2.0

     total cpu time spent up to now is      134.9 secs

     total energy              =     -95.08052390 Ry
     Harris-Foulkes estimate   =     -95.08052390 Ry
     estimated scf accuracy    <          3.1E-09 Ry

     iteration # 14     ecut=    40.00 Ry     beta=0.70
     Davidson diagonalization with overlap
     ethr =  3.45E-11,  avg # of iterations =  1.5

     total cpu time spent up to now is      137.3 secs

     total energy              =     -95.08052390 Ry
     Harris-Foulkes estimate   =     -95.08052390 Ry
     estimated scf accuracy    <          2.2E-10 Ry

     iteration # 15     ecut=    40.00 Ry     beta=0.70
     Davidson diagonalization with overlap
     ethr =  2.43E-12,  avg # of iterations =  1.9

     total cpu time spent up to now is      139.8 secs

     End of self-consistent calculation

     Number of k-points >= 100: set verbosity='high' to print the bands.

     the Fermi energy is     4.5983 ev

!    total energy              =     -95.08052390 Ry
     Harris-Foulkes estimate   =     -95.08052390 Ry
     estimated scf accuracy    <          1.5E-11 Ry

     The total energy is the sum of the following terms:

     one-electron contribution =     -75.61127628 Ry
     hartree contribution      =      39.21264190 Ry
     xc contribution           =     -14.35037745 Ry
     ewald contribution        =     -44.33147964 Ry
     smearing contrib. (-TS)   =      -0.00003242 Ry

     convergence has been achieved in  15 iterations

     Forces acting on atoms (cartesian axes, Ry/au):

     atom    1 type  1   force =     0.00000000    0.00000000    0.00000000

     Total force =     0.000000     Total SCF correction =     0.000000


     Computing stress (Cartesian axis) and pressure

          total   stress  (Ry/bohr**3)                   (kbar)     P=  103.40
   0.00070291   0.00000000   0.00000000        103.40      0.00      0.00
   0.00000000   0.00070291   0.00000000          0.00    103.40      0.00
   0.00000000   0.00000000   0.00070291          0.00      0.00    103.40


     number of scf cycles    =   4
     number of bfgs steps    =   3

     enthalpy old            =     -94.9796966777 Ry
     enthalpy new            =     -94.9806137470 Ry

     CASE: enthalpy_new < enthalpy_old

     new trust radius        =       0.0062192928 bohr
     new conv_thr            =            1.0E-10 Ry

     new unit-cell volume =    148.10675 a.u.^3 (    21.94716 Ang^3 )
     density =      1.73944 g/cm^3

CELL_PARAMETERS (alat=  8.00000000)
  -0.524918207  -0.000000000   0.524918207
   0.000000000   0.524918207   0.524918207
  -0.524918207   0.524918207  -0.000000000

ATOMIC_POSITIONS (crystal)
Na       0.000000000   0.000000000   0.000000000



     Writing output data file na.fcc.save
     NEW-OLD atomic charge density approx. for the potential
     extrapolated charge    9.06885, renormalised to    9.00000

     total cpu time spent up to now is      141.6 secs

     per-process dynamical memory:    31.6 Mb

     Self-consistent Calculation

     iteration #  1     ecut=    40.00 Ry     beta=0.70
     Davidson diagonalization with overlap
     ethr =  1.00E-06,  avg # of iterations =  2.7

     total cpu time spent up to now is      145.1 secs

     total energy              =     -95.07826532 Ry
     Harris-Foulkes estimate   =     -94.62228646 Ry
     estimated scf accuracy    <       0.00170676 Ry

     iteration #  2     ecut=    40.00 Ry     beta=0.70
     Davidson diagonalization with overlap
     ethr =  1.90E-05,  avg # of iterations =  2.9

     total cpu time spent up to now is      148.6 secs

     total energy              =     -95.08137245 Ry
     Harris-Foulkes estimate   =     -95.08263086 Ry
     estimated scf accuracy    <       0.00286887 Ry

     iteration #  3     ecut=    40.00 Ry     beta=0.70
     Davidson diagonalization with overlap
     ethr =  1.90E-05,  avg # of iterations =  1.4

     total cpu time spent up to now is      150.9 secs

     total energy              =     -95.08138771 Ry
     Harris-Foulkes estimate   =     -95.08155910 Ry
     estimated scf accuracy    <       0.00056344 Ry

     iteration #  4     ecut=    40.00 Ry     beta=0.70
     Davidson diagonalization with overlap
     ethr =  6.26E-06,  avg # of iterations =  1.0

     total cpu time spent up to now is      153.1 secs

     total energy              =     -95.08135848 Ry
     Harris-Foulkes estimate   =     -95.08140813 Ry
     estimated scf accuracy    <       0.00021575 Ry

     iteration #  5     ecut=    40.00 Ry     beta=0.70
     Davidson diagonalization with overlap
     ethr =  2.40E-06,  avg # of iterations =  1.0

     total cpu time spent up to now is      155.3 secs

     total energy              =     -95.08133231 Ry
     Harris-Foulkes estimate   =     -95.08136232 Ry
     estimated scf accuracy    <       0.00011563 Ry

     iteration #  6     ecut=    40.00 Ry     beta=0.70
     Davidson diagonalization with overlap
     ethr =  1.28E-06,  avg # of iterations =  1.0

     total cpu time spent up to now is      157.6 secs

     total energy              =     -95.08130009 Ry
     Harris-Foulkes estimate   =     -95.08133440 Ry
     estimated scf accuracy    <       0.00005679 Ry

     iteration #  7     ecut=    40.00 Ry     beta=0.70
     Davidson diagonalization with overlap
     ethr =  6.31E-07,  avg # of iterations =  2.0

     total cpu time spent up to now is      160.2 secs

     total energy              =     -95.08130846 Ry
     Harris-Foulkes estimate   =     -95.08130888 Ry
     estimated scf accuracy    <       0.00000125 Ry

     iteration #  8     ecut=    40.00 Ry     beta=0.70
     Davidson diagonalization with overlap
     ethr =  1.39E-08,  avg # of iterations =  1.3

     total cpu time spent up to now is      162.4 secs

     total energy              =     -95.08130829 Ry
     Harris-Foulkes estimate   =     -95.08130853 Ry
     estimated scf accuracy    <       0.00000045 Ry

     iteration #  9     ecut=    40.00 Ry     beta=0.70
     Davidson diagonalization with overlap
     ethr =  4.98E-09,  avg # of iterations =  1.8

     total cpu time spent up to now is      164.9 secs

     total energy              =     -95.08130834 Ry
     Harris-Foulkes estimate   =     -95.08130834 Ry
     estimated scf accuracy    <       0.00000003 Ry

     iteration # 10     ecut=    40.00 Ry     beta=0.70
     Davidson diagonalization with overlap
     ethr =  3.44E-10,  avg # of iterations =  1.0

     total cpu time spent up to now is      167.1 secs

     total energy              =     -95.08130833 Ry
     Harris-Foulkes estimate   =     -95.08130834 Ry
     estimated scf accuracy    <       0.00000003 Ry

     iteration # 11     ecut=    40.00 Ry     beta=0.70
     Davidson diagonalization with overlap
     ethr =  3.01E-10,  avg # of iterations =  2.0

     total cpu time spent up to now is      169.7 secs

     total energy              =     -95.08130833 Ry
     Harris-Foulkes estimate   =     -95.08130833 Ry
     estimated scf accuracy    <          1.2E-09 Ry

     iteration # 12     ecut=    40.00 Ry     beta=0.70
     Davidson diagonalization with overlap
     ethr =  1.28E-11,  avg # of iterations =  1.1

     total cpu time spent up to now is      171.9 secs

     total energy              =     -95.08130833 Ry
     Harris-Foulkes estimate   =     -95.08130833 Ry
     estimated scf accuracy    <          7.6E-10 Ry

     iteration # 13     ecut=    40.00 Ry     beta=0.70
     Davidson diagonalization with overlap
     ethr =  8.45E-12,  avg # of iterations =  2.0

     total cpu time spent up to now is      174.6 secs

     End of self-consistent calculation

     Number of k-points >= 100: set verbosity='high' to print the bands.

     the Fermi energy is     4.5413 ev

!    total energy              =     -95.08130833 Ry
     Harris-Foulkes estimate   =     -95.08130833 Ry
     estimated scf accuracy    <          2.2E-11 Ry

     The total energy is the sum of the following terms:

     one-electron contribution =     -75.80679513 Ry
     hartree contribution      =      39.29254174 Ry
     xc contribution           =     -14.34896341 Ry
     ewald contribution        =     -44.21805901 Ry
     smearing contrib. (-TS)   =      -0.00003251 Ry

     convergence has been achieved in  13 iterations

     Forces acting on atoms (cartesian axes, Ry/au):

     atom    1 type  1   force =     0.00000000    0.00000000    0.00000000

     Total force =     0.000000     Total SCF correction =     0.000000


     Computing stress (Cartesian axis) and pressure

          total   stress  (Ry/bohr**3)                   (kbar)     P=  100.17
   0.00068097  -0.00000000   0.00000000        100.17     -0.00      0.00
  -0.00000000   0.00068097   0.00000000         -0.00    100.17      0.00
   0.00000000   0.00000000   0.00068097          0.00      0.00    100.17


     bfgs converged in   5 scf cycles and   4 bfgs steps
     (criteria: energy <  1.0E-04 Ry, force <  1.0E-03Ry/Bohr, cell <  5.0E-01kbar)

     End of BFGS Geometry Optimization

     Final enthalpy =     -94.9806273868 Ry
Begin final coordinates
     new unit-cell volume =    148.10675 a.u.^3 (    21.94716 Ang^3 )
     density =      1.73944 g/cm^3

CELL_PARAMETERS (alat=  8.00000000)
  -0.524918207  -0.000000000   0.524918207
   0.000000000   0.524918207   0.524918207
  -0.524918207   0.524918207  -0.000000000

ATOMIC_POSITIONS (crystal)
Na       0.000000000   0.000000000   0.000000000
End final coordinates



     A final scf calculation at the relaxed structure.
     The G-vectors are recalculated for the final unit cell
     Results may differ from those at the preceding step.

     Parallelization info
     --------------------
     sticks:   dense  smooth     PW     G-vecs:    dense   smooth      PW
     Min         192      94     34                 3581     1255     266
     Max         193      95     35                 3585     1258     267
     Sum         769     379    139                14331     5029    1067



     bravais-lattice index     =            2
     lattice parameter (alat)  =       8.0000  a.u.
     unit-cell volume          =     148.1068 (a.u.)^3
     number of atoms/cell      =            1
     number of atomic types    =            1
     number of electrons       =         9.00
     number of Kohn-Sham states=            9
     kinetic-energy cutoff     =      40.0000  Ry
     charge density cutoff     =     320.0000  Ry
     convergence threshold     =      1.0E-10
     mixing beta               =       0.7000
     number of iterations used =            8  plain     mixing
     Exchange-correlation      = SLA  PW   PBE  PBE ( 1  4  3  4 0 0)

     celldm(1)=   8.000000  celldm(2)=   0.000000  celldm(3)=   0.000000
     celldm(4)=   0.000000  celldm(5)=   0.000000  celldm(6)=   0.000000

     crystal axes: (cart. coord. in units of alat)
               a(1) = (  -0.524918  -0.000000   0.524918 )  
               a(2) = (   0.000000   0.524918   0.524918 )  
               a(3) = (  -0.524918   0.524918  -0.000000 )  

     reciprocal axes: (cart. coord. in units 2 pi/alat)
               b(1) = ( -0.952529 -0.952529  0.952529 )  
               b(2) = (  0.952529  0.952529  0.952529 )  
               b(3) = ( -0.952529  0.952529 -0.952529 )  


     PseudoPot. # 1 for Na read from file:
     /home/s1333534/quantum_espresso/qe-6.1/pseudo/Na_pbe_v1.uspp.F.UPF
     MD5 check sum: 76a99c7e9422403d3e93cbc85ab7bccb
     Pseudo is Ultrasoft, Zval =  9.0
     Generated by new atomic code, or converted to UPF format
     Using radial grid of  819 points,  5 beta functions with: 
                l(1) =   0
                l(2) =   0
                l(3) =   1
                l(4) =   1
                l(5) =   2
     Q(r) pseudized with  8 coefficients,  rinner =    1.250   1.250   1.250
                                                       1.250   1.250

     atomic species   valence    mass     pseudopotential
        Na             9.00    22.99000     Na( 1.00)

     48 Sym. Ops., with inversion, found



   Cartesian axes

     site n.     atom                  positions (alat units)
         1           Na  tau(   1) = (   0.0000000   0.0000000   0.0000000  )

     number of k points=   770  Marzari-Vanderbilt smearing, width (Ry)=  0.0200

     Number of k-points >= 100: set verbosity='high' to print them.

     Dense  grid:    14331 G-vectors     FFT dimensions: (  36,  36,  36)

     Smooth grid:     5029 G-vectors     FFT dimensions: (  24,  24,  24)

     Estimated max dynamical RAM per process >      19.19MB

     Estimated total allocated dynamical RAM >      76.77MB

     Initial potential from superposition of free atoms

     starting charge    8.99371, renormalised to    9.00000
     Starting wfc are    5 randomized atomic wfcs +    4 random wfc

     Writing output data file na.fcc.save

     total cpu time spent up to now is      177.5 secs

     per-process dynamical memory:    33.9 Mb

     Self-consistent Calculation

     iteration #  1     ecut=    40.00 Ry     beta=0.70
     Davidson diagonalization with overlap
     ethr =  1.00E-06,  avg # of iterations = 10.2

     total cpu time spent up to now is      185.4 secs

     total energy              =     -95.08192469 Ry
     Harris-Foulkes estimate   =     -95.08255298 Ry
     estimated scf accuracy    <       0.00168425 Ry

     iteration #  2     ecut=    40.00 Ry     beta=0.70
     Davidson diagonalization with overlap
     ethr =  1.87E-05,  avg # of iterations =  2.0

     total cpu time spent up to now is      188.0 secs

     total energy              =     -95.08215279 Ry
     Harris-Foulkes estimate   =     -95.08220566 Ry
     estimated scf accuracy    <       0.00019461 Ry

     iteration #  3     ecut=    40.00 Ry     beta=0.70
     Davidson diagonalization with overlap
     ethr =  2.16E-06,  avg # of iterations =  2.0

     total cpu time spent up to now is      190.7 secs

     total energy              =     -95.08217732 Ry
     Harris-Foulkes estimate   =     -95.08217874 Ry
     estimated scf accuracy    <       0.00001131 Ry

     iteration #  4     ecut=    40.00 Ry     beta=0.70
     Davidson diagonalization with overlap
     ethr =  1.26E-07,  avg # of iterations =  1.0

     total cpu time spent up to now is      193.0 secs

     total energy              =     -95.08217830 Ry
     Harris-Foulkes estimate   =     -95.08217824 Ry
     estimated scf accuracy    <       0.00000001 Ry

     iteration #  5     ecut=    40.00 Ry     beta=0.70
     Davidson diagonalization with overlap
     ethr =  1.61E-10,  avg # of iterations =  3.0

     total cpu time spent up to now is      196.2 secs

     total energy              =     -95.08217834 Ry
     Harris-Foulkes estimate   =     -95.08217834 Ry
     estimated scf accuracy    <          1.8E-09 Ry

     iteration #  6     ecut=    40.00 Ry     beta=0.70
     Davidson diagonalization with overlap
     ethr =  2.05E-11,  avg # of iterations =  1.6

     total cpu time spent up to now is      198.7 secs

     End of self-consistent calculation

     Number of k-points >= 100: set verbosity='high' to print the bands.

     the Fermi energy is     4.5419 ev

!    total energy              =     -95.08217834 Ry
     Harris-Foulkes estimate   =     -95.08217834 Ry
     estimated scf accuracy    <          6.2E-11 Ry

     The total energy is the sum of the following terms:

     one-electron contribution =     -75.80765171 Ry
     hartree contribution      =      39.29260697 Ry
     xc contribution           =     -14.34904208 Ry
     ewald contribution        =     -44.21805901 Ry
     smearing contrib. (-TS)   =      -0.00003251 Ry

     convergence has been achieved in   6 iterations

     Forces acting on atoms (cartesian axes, Ry/au):

     atom    1 type  1   force =     0.00000000    0.00000000    0.00000000

     Total force =     0.000000     Total SCF correction =     0.000000


     Computing stress (Cartesian axis) and pressure

          total   stress  (Ry/bohr**3)                   (kbar)     P=  102.90
   0.00069953   0.00000000   0.00000000        102.90      0.00      0.00
   0.00000000   0.00069953   0.00000000          0.00    102.90      0.00
   0.00000000   0.00000000   0.00069953          0.00      0.00    102.90


     Writing output data file na.fcc.save

     init_run     :      2.29s CPU      2.37s WALL (       2 calls)
     electrons    :    180.32s CPU    187.10s WALL (       6 calls)
     update_pot   :      0.49s CPU      0.50s WALL (       4 calls)
     forces       :      0.97s CPU      0.98s WALL (       6 calls)
     stress       :      5.07s CPU      5.11s WALL (       6 calls)

     Called by init_run:
     wfcinit      :      1.70s CPU      1.77s WALL (       2 calls)
     potinit      :      0.06s CPU      0.06s WALL (       2 calls)

     Called by electrons:
     c_bands      :    149.87s CPU    155.77s WALL (      69 calls)
     sum_band     :     29.28s CPU     30.14s WALL (      69 calls)
     v_of_rho     :      0.58s CPU      0.58s WALL (      74 calls)
     newd         :      0.58s CPU      0.59s WALL (      74 calls)
     mix_rho      :      0.05s CPU      0.05s WALL (      69 calls)

     Called by c_bands:
     init_us_2    :      7.72s CPU      7.16s WALL (  117040 calls)
     cegterg      :    142.27s CPU    148.32s WALL (   53130 calls)

     Called by sum_band:
     sum_band:bec :      0.13s CPU      0.15s WALL (   53130 calls)
     addusdens    :      0.67s CPU      0.67s WALL (      69 calls)

     Called by *egterg:
     h_psi        :    111.21s CPU    115.74s WALL (  156789 calls)
     s_psi        :      1.76s CPU      1.46s WALL (  156789 calls)
     g_psi        :      0.87s CPU      0.82s WALL (  102119 calls)
     cdiaghg      :     19.49s CPU     20.01s WALL (  151399 calls)

     Called by h_psi:
     h_psi:pot    :    110.80s CPU    115.11s WALL (  156789 calls)
     h_psi:calbec :      2.79s CPU      2.54s WALL (  156789 calls)
     vloc_psi     :    106.32s CPU    110.54s WALL (  156789 calls)
     add_vuspsi   :      1.43s CPU      1.64s WALL (  156789 calls)

     General routines
     calbec       :      3.65s CPU      3.63s WALL (  233019 calls)
     fft          :      0.26s CPU      0.27s WALL (    1216 calls)
     ffts         :      0.01s CPU      0.01s WALL (     143 calls)
     fftw         :    119.84s CPU    115.03s WALL ( 2800044 calls)
     interpolate  :      0.05s CPU      0.05s WALL (     143 calls)
     davcio       :      0.01s CPU      0.02s WALL (    1540 calls)

     Parallel routines
     fft_scatter  :     16.70s CPU     20.97s WALL ( 2801403 calls)

     PWSCF        :  3m13.27s CPU     3m20.41s WALL


   This run was terminated on:  11:37:22  20Dec2017            

=------------------------------------------------------------------------------=
   JOB DONE.
=------------------------------------------------------------------------------=
