
     Program PWSCF v.6.1 (svn rev. 13369) starts on 20Dec2017 at 11: 9:22 

     This program is part of the open-source Quantum ESPRESSO suite
     for quantum simulation of materials; please cite
         "P. Giannozzi et al., J. Phys.:Condens. Matter 21 395502 (2009);
          URL http://www.quantum-espresso.org", 
     in publications or presentations arising from this work. More details at
     http://www.quantum-espresso.org/quote

     Parallel version (MPI), running on     4 processors
     R & G space division:  proc/nbgrp/npool/nimage =       4
     Waiting for input...
     Reading input from standard input

     Current dimensions of program PWSCF are:
     Max number of different atomic species (ntypx) = 10
     Max number of k-points (npk) =  40000
     Max angular momentum in pseudopotentials (lmaxx) =  3

     Subspace diagonalization in iterative solution of the eigenvalue problem:
     a serial algorithm will be used


     Parallelization info
     --------------------
     sticks:   dense  smooth     PW     G-vecs:    dense   smooth      PW
     Min         175      90     30                 3084     1095     234
     Max         176      91     31                 3086     1096     238
     Sum         703     361    121                12339     4381     941



     bravais-lattice index     =            2
     lattice parameter (alat)  =       8.0000  a.u.
     unit-cell volume          =     128.0000 (a.u.)^3
     number of atoms/cell      =            1
     number of atomic types    =            1
     number of electrons       =         9.00
     number of Kohn-Sham states=            9
     kinetic-energy cutoff     =      40.0000  Ry
     charge density cutoff     =     320.0000  Ry
     convergence threshold     =      1.0E-08
     mixing beta               =       0.7000
     number of iterations used =            8  plain     mixing
     Exchange-correlation      = SLA  PW   PBE  PBE ( 1  4  3  4 0 0)
     nstep                     =           50


     celldm(1)=   8.000000  celldm(2)=   0.000000  celldm(3)=   0.000000
     celldm(4)=   0.000000  celldm(5)=   0.000000  celldm(6)=   0.000000

     crystal axes: (cart. coord. in units of alat)
               a(1) = (  -0.500000   0.000000   0.500000 )  
               a(2) = (   0.000000   0.500000   0.500000 )  
               a(3) = (  -0.500000   0.500000   0.000000 )  

     reciprocal axes: (cart. coord. in units 2 pi/alat)
               b(1) = ( -1.000000 -1.000000  1.000000 )  
               b(2) = (  1.000000  1.000000  1.000000 )  
               b(3) = ( -1.000000  1.000000 -1.000000 )  


     PseudoPot. # 1 for Na read from file:
     /home/s1333534/quantum_espresso/qe-6.1/pseudo/Na_pbe_v1.uspp.F.UPF
     MD5 check sum: 76a99c7e9422403d3e93cbc85ab7bccb
     Pseudo is Ultrasoft, Zval =  9.0
     Generated by new atomic code, or converted to UPF format
     Using radial grid of  819 points,  5 beta functions with: 
                l(1) =   0
                l(2) =   0
                l(3) =   1
                l(4) =   1
                l(5) =   2
     Q(r) pseudized with  8 coefficients,  rinner =    1.250   1.250   1.250
                                                       1.250   1.250

     atomic species   valence    mass     pseudopotential
        Na             9.00    22.99000     Na( 1.00)

     48 Sym. Ops., with inversion, found



   Cartesian axes

     site n.     atom                  positions (alat units)
         1           Na  tau(   1) = (   0.0000000   0.0000000   0.0000000  )

     number of k points=   770  Marzari-Vanderbilt smearing, width (Ry)=  0.0200

     Number of k-points >= 100: set verbosity='high' to print them.

     Dense  grid:    12339 G-vectors     FFT dimensions: (  36,  36,  36)

     Smooth grid:     4381 G-vectors     FFT dimensions: (  24,  24,  24)

     Estimated max dynamical RAM per process >      16.64MB

     Estimated total allocated dynamical RAM >      66.55MB

     Initial potential from superposition of free atoms

     starting charge    8.99371, renormalised to    9.00000
     Starting wfc are    5 randomized atomic wfcs +    4 random wfc

     total cpu time spent up to now is        1.2 secs

     per-process dynamical memory:    24.8 Mb

     Self-consistent Calculation

     iteration #  1     ecut=    40.00 Ry     beta=0.70
     Davidson diagonalization with overlap
     ethr =  1.00E-02,  avg # of iterations =  5.1

     Threshold (ethr) on eigenvalues was too large:
     Diagonalizing with lowered threshold

     Davidson diagonalization with overlap
     ethr =  2.47E-05,  avg # of iterations =  2.4

     total cpu time spent up to now is        8.3 secs

     total energy              =     -95.06263719 Ry
     Harris-Foulkes estimate   =     -95.06346383 Ry
     estimated scf accuracy    <       0.00221907 Ry

     iteration #  2     ecut=    40.00 Ry     beta=0.70
     Davidson diagonalization with overlap
     ethr =  2.47E-05,  avg # of iterations =  2.0

     total cpu time spent up to now is       10.8 secs

     total energy              =     -95.06293327 Ry
     Harris-Foulkes estimate   =     -95.06299962 Ry
     estimated scf accuracy    <       0.00025023 Ry

     iteration #  3     ecut=    40.00 Ry     beta=0.70
     Davidson diagonalization with overlap
     ethr =  2.78E-06,  avg # of iterations =  2.1

     total cpu time spent up to now is       13.4 secs

     total energy              =     -95.06296602 Ry
     Harris-Foulkes estimate   =     -95.06296754 Ry
     estimated scf accuracy    <       0.00001446 Ry

     iteration #  4     ecut=    40.00 Ry     beta=0.70
     Davidson diagonalization with overlap
     ethr =  1.61E-07,  avg # of iterations =  1.0

     total cpu time spent up to now is       15.6 secs

     total energy              =     -95.06296732 Ry
     Harris-Foulkes estimate   =     -95.06296725 Ry
     estimated scf accuracy    <       0.00000002 Ry

     iteration #  5     ecut=    40.00 Ry     beta=0.70
     Davidson diagonalization with overlap
     ethr =  2.20E-10,  avg # of iterations =  3.0

     total cpu time spent up to now is       18.8 secs

     End of self-consistent calculation

     Number of k-points >= 100: set verbosity='high' to print the bands.

     the Fermi energy is     5.7098 ev

!    total energy              =     -95.06296737 Ry
     Harris-Foulkes estimate   =     -95.06296737 Ry
     estimated scf accuracy    <          2.7E-09 Ry

     The total energy is the sum of the following terms:

     one-electron contribution =     -72.01868817 Ry
     hartree contribution      =      37.75480527 Ry
     xc contribution           =     -14.37732448 Ry
     ewald contribution        =     -46.42172850 Ry
     smearing contrib. (-TS)   =      -0.00003149 Ry

     convergence has been achieved in   5 iterations

     Forces acting on atoms (cartesian axes, Ry/au):

     atom    1 type  1   force =     0.00000000    0.00000000    0.00000000

     Total force =     0.000000     Total SCF correction =     0.000000


     Computing stress (Cartesian axis) and pressure

          total   stress  (Ry/bohr**3)                   (kbar)     P=  175.59
   0.00119366   0.00000000   0.00000000        175.59      0.00      0.00
   0.00000000   0.00119366  -0.00000000          0.00    175.59     -0.00
   0.00000000  -0.00000000   0.00119366          0.00     -0.00    175.59


     BFGS Geometry Optimization

     number of scf cycles    =   1
     number of bfgs steps    =   0

     enthalpy new            =     -95.0281623117 Ry

     new trust radius        =       0.0521420217 bohr
     new conv_thr            =       0.0000000100 Ry

     new unit-cell volume =    137.05427 a.u.^3 (    20.30935 Ang^3 )
     density =      1.87972 g/cm^3

CELL_PARAMETERS (alat=  8.00000000)
  -0.511521868  -0.000000000   0.511521868
   0.000000000   0.511521868   0.511521868
  -0.511521868   0.511521868  -0.000000000

ATOMIC_POSITIONS (crystal)
Na       0.000000000   0.000000000   0.000000000



     Writing output data file na.fcc.save
     NEW-OLD atomic charge density approx. for the potential
     extrapolated charge    9.59415, renormalised to    9.00000

     total cpu time spent up to now is       20.7 secs

     per-process dynamical memory:    31.5 Mb

     Self-consistent Calculation

     iteration #  1     ecut=    40.00 Ry     beta=0.70
     Davidson diagonalization with overlap
     ethr =  1.00E-06,  avg # of iterations =  4.2

     total cpu time spent up to now is       25.3 secs

     total energy              =     -94.79288272 Ry
     Harris-Foulkes estimate   =     -91.20679155 Ry
     estimated scf accuracy    <       0.15665521 Ry

     iteration #  2     ecut=    40.00 Ry     beta=0.70
     Davidson diagonalization with overlap
     ethr =  1.74E-03,  avg # of iterations =  2.9

     total cpu time spent up to now is       28.7 secs

     total energy              =     -95.08388552 Ry
     Harris-Foulkes estimate   =     -95.19852220 Ry
     estimated scf accuracy    <       0.26044135 Ry

     iteration #  3     ecut=    40.00 Ry     beta=0.70
     Davidson diagonalization with overlap
     ethr =  1.74E-03,  avg # of iterations =  1.1

     total cpu time spent up to now is       31.0 secs

     total energy              =     -95.07885932 Ry
     Harris-Foulkes estimate   =     -95.09883684 Ry
     estimated scf accuracy    <       0.05739614 Ry

     iteration #  4     ecut=    40.00 Ry     beta=0.70
     Davidson diagonalization with overlap
     ethr =  6.38E-04,  avg # of iterations =  1.0

     total cpu time spent up to now is       33.2 secs

     total energy              =     -95.07823623 Ry
     Harris-Foulkes estimate   =     -95.08135888 Ry
     estimated scf accuracy    <       0.01878775 Ry

     iteration #  5     ecut=    40.00 Ry     beta=0.70
     Davidson diagonalization with overlap
     ethr =  2.09E-04,  avg # of iterations =  1.0

     total cpu time spent up to now is       35.4 secs

     total energy              =     -95.07521223 Ry
     Harris-Foulkes estimate   =     -95.07846785 Ry
     estimated scf accuracy    <       0.01269021 Ry

     iteration #  6     ecut=    40.00 Ry     beta=0.70
     Davidson diagonalization with overlap
     ethr =  1.41E-04,  avg # of iterations =  1.0

     total cpu time spent up to now is       37.6 secs

     total energy              =     -95.07157160 Ry
     Harris-Foulkes estimate   =     -95.07544450 Ry
     estimated scf accuracy    <       0.00632181 Ry

     iteration #  7     ecut=    40.00 Ry     beta=0.70
     Davidson diagonalization with overlap
     ethr =  7.02E-05,  avg # of iterations =  2.0

     total cpu time spent up to now is       40.2 secs

     total energy              =     -95.07250773 Ry
     Harris-Foulkes estimate   =     -95.07256942 Ry
     estimated scf accuracy    <       0.00014192 Ry

     iteration #  8     ecut=    40.00 Ry     beta=0.70
     Davidson diagonalization with overlap
     ethr =  1.58E-06,  avg # of iterations =  2.1

     total cpu time spent up to now is       42.7 secs

     total energy              =     -95.07249691 Ry
     Harris-Foulkes estimate   =     -95.07251966 Ry
     estimated scf accuracy    <       0.00002850 Ry

     iteration #  9     ecut=    40.00 Ry     beta=0.70
     Davidson diagonalization with overlap
     ethr =  3.17E-07,  avg # of iterations =  2.0

     total cpu time spent up to now is       45.5 secs

     total energy              =     -95.07250684 Ry
     Harris-Foulkes estimate   =     -95.07252935 Ry
     estimated scf accuracy    <       0.00004846 Ry

     iteration # 10     ecut=    40.00 Ry     beta=0.70
     Davidson diagonalization with overlap
     ethr =  3.17E-07,  avg # of iterations =  2.0

     total cpu time spent up to now is       48.1 secs

     total energy              =     -95.07250494 Ry
     Harris-Foulkes estimate   =     -95.07251099 Ry
     estimated scf accuracy    <       0.00000860 Ry

     iteration # 11     ecut=    40.00 Ry     beta=0.70
     Davidson diagonalization with overlap
     ethr =  9.56E-08,  avg # of iterations =  2.0

     total cpu time spent up to now is       50.9 secs

     total energy              =     -95.07250699 Ry
     Harris-Foulkes estimate   =     -95.07250844 Ry
     estimated scf accuracy    <       0.00000324 Ry

     iteration # 12     ecut=    40.00 Ry     beta=0.70
     Davidson diagonalization with overlap
     ethr =  3.60E-08,  avg # of iterations =  1.6

     total cpu time spent up to now is       53.3 secs

     total energy              =     -95.07250731 Ry
     Harris-Foulkes estimate   =     -95.07250733 Ry
     estimated scf accuracy    <       0.00000007 Ry

     iteration # 13     ecut=    40.00 Ry     beta=0.70
     Davidson diagonalization with overlap
     ethr =  7.61E-10,  avg # of iterations =  2.0

     total cpu time spent up to now is       55.8 secs

     total energy              =     -95.07250731 Ry
     Harris-Foulkes estimate   =     -95.07250732 Ry
     estimated scf accuracy    <       0.00000003 Ry

     iteration # 14     ecut=    40.00 Ry     beta=0.70
     Davidson diagonalization with overlap
     ethr =  2.83E-10,  avg # of iterations =  1.9

     total cpu time spent up to now is       58.3 secs

     End of self-consistent calculation

     Number of k-points >= 100: set verbosity='high' to print the bands.

     the Fermi energy is     5.1390 ev

!    total energy              =     -95.07250731 Ry
     Harris-Foulkes estimate   =     -95.07250731 Ry
     estimated scf accuracy    <          7.9E-10 Ry

     The total energy is the sum of the following terms:

     one-electron contribution =     -73.81317470 Ry
     hartree contribution      =      38.48038968 Ry
     xc contribution           =     -14.36359676 Ry
     ewald contribution        =     -45.37609378 Ry
     smearing contrib. (-TS)   =      -0.00003176 Ry

     convergence has been achieved in  14 iterations

     Forces acting on atoms (cartesian axes, Ry/au):

     atom    1 type  1   force =     0.00000000    0.00000000    0.00000000

     Total force =     0.000000     Total SCF correction =     0.000000


     Computing stress (Cartesian axis) and pressure

          total   stress  (Ry/bohr**3)                   (kbar)     P=  135.67
   0.00092229   0.00000000   0.00000000        135.67      0.00      0.00
   0.00000000   0.00092229  -0.00000000          0.00    135.67     -0.00
   0.00000000  -0.00000000   0.00092229          0.00     -0.00    135.67


     number of scf cycles    =   2
     number of bfgs steps    =   1

     enthalpy old            =     -95.0281623117 Ry
     enthalpy new            =     -95.0352402676 Ry

     CASE: enthalpy_new < enthalpy_old

     new trust radius        =       0.0580133109 bohr
     new conv_thr            =            1.0E-10 Ry

     new unit-cell volume =    147.49621 a.u.^3 (    21.85668 Ang^3 )
     density =      1.74664 g/cm^3

CELL_PARAMETERS (alat=  8.00000000)
  -0.524195923  -0.000000000   0.524195923
   0.000000000   0.524195923   0.524195923
  -0.524195923   0.524195923  -0.000000000

ATOMIC_POSITIONS (crystal)
Na       0.000000000   0.000000000   0.000000000



     Writing output data file na.fcc.save
     NEW-OLD atomic charge density approx. for the potential
     extrapolated charge    9.63671, renormalised to    9.00000

     total cpu time spent up to now is       60.1 secs

     per-process dynamical memory:    31.5 Mb

     Self-consistent Calculation

     iteration #  1     ecut=    40.00 Ry     beta=0.70
     Davidson diagonalization with overlap
     ethr =  1.00E-06,  avg # of iterations =  4.3

     total cpu time spent up to now is       64.7 secs

     total energy              =     -94.74830693 Ry
     Harris-Foulkes estimate   =     -90.82645898 Ry
     estimated scf accuracy    <       0.18636625 Ry

     iteration #  2     ecut=    40.00 Ry     beta=0.70
     Davidson diagonalization with overlap
     ethr =  2.07E-03,  avg # of iterations =  3.0

     total cpu time spent up to now is       68.1 secs

     total energy              =     -95.09501694 Ry
     Harris-Foulkes estimate   =     -95.23115558 Ry
     estimated scf accuracy    <       0.30900519 Ry

     iteration #  3     ecut=    40.00 Ry     beta=0.70
     Davidson diagonalization with overlap
     ethr =  2.07E-03,  avg # of iterations =  1.1

     total cpu time spent up to now is       70.4 secs

     total energy              =     -95.08831987 Ry
     Harris-Foulkes estimate   =     -95.11256173 Ry
     estimated scf accuracy    <       0.06872215 Ry

     iteration #  4     ecut=    40.00 Ry     beta=0.70
     Davidson diagonalization with overlap
     ethr =  7.64E-04,  avg # of iterations =  1.0

     total cpu time spent up to now is       72.6 secs

     total energy              =     -95.08729821 Ry
     Harris-Foulkes estimate   =     -95.09134996 Ry
     estimated scf accuracy    <       0.02217182 Ry

     iteration #  5     ecut=    40.00 Ry     beta=0.70
     Davidson diagonalization with overlap
     ethr =  2.46E-04,  avg # of iterations =  1.0

     total cpu time spent up to now is       74.8 secs

     total energy              =     -95.08370918 Ry
     Harris-Foulkes estimate   =     -95.08760624 Ry
     estimated scf accuracy    <       0.01418710 Ry

     iteration #  6     ecut=    40.00 Ry     beta=0.70
     Davidson diagonalization with overlap
     ethr =  1.58E-04,  avg # of iterations =  1.0

     total cpu time spent up to now is       77.0 secs

     total energy              =     -95.07971224 Ry
     Harris-Foulkes estimate   =     -95.08399773 Ry
     estimated scf accuracy    <       0.00668155 Ry

     iteration #  7     ecut=    40.00 Ry     beta=0.70
     Davidson diagonalization with overlap
     ethr =  7.42E-05,  avg # of iterations =  2.0

     total cpu time spent up to now is       79.6 secs

     total energy              =     -95.08091921 Ry
     Harris-Foulkes estimate   =     -95.08091376 Ry
     estimated scf accuracy    <       0.00005967 Ry

     iteration #  8     ecut=    40.00 Ry     beta=0.70
     Davidson diagonalization with overlap
     ethr =  6.63E-07,  avg # of iterations =  2.4

     total cpu time spent up to now is       82.3 secs

     total energy              =     -95.08086110 Ry
     Harris-Foulkes estimate   =     -95.08092208 Ry
     estimated scf accuracy    <       0.00007412 Ry

     iteration #  9     ecut=    40.00 Ry     beta=0.70
     Davidson diagonalization with overlap
     ethr =  6.63E-07,  avg # of iterations =  2.0

     total cpu time spent up to now is       85.0 secs

     total energy              =     -95.08090213 Ry
     Harris-Foulkes estimate   =     -95.08090257 Ry
     estimated scf accuracy    <       0.00003008 Ry

     iteration # 10     ecut=    40.00 Ry     beta=0.70
     Davidson diagonalization with overlap
     ethr =  3.34E-07,  avg # of iterations =  1.0

     total cpu time spent up to now is       87.2 secs

     total energy              =     -95.08088633 Ry
     Harris-Foulkes estimate   =     -95.08090214 Ry
     estimated scf accuracy    <       0.00002909 Ry

     iteration # 11     ecut=    40.00 Ry     beta=0.70
     Davidson diagonalization with overlap
     ethr =  3.23E-07,  avg # of iterations =  1.5

     total cpu time spent up to now is       89.6 secs

     total energy              =     -95.08088837 Ry
     Harris-Foulkes estimate   =     -95.08088974 Ry
     estimated scf accuracy    <       0.00000374 Ry

     iteration # 12     ecut=    40.00 Ry     beta=0.70
     Davidson diagonalization with overlap
     ethr =  4.15E-08,  avg # of iterations =  2.0

     total cpu time spent up to now is       92.2 secs

     total energy              =     -95.08088900 Ry
     Harris-Foulkes estimate   =     -95.08088899 Ry
     estimated scf accuracy    <       0.00000015 Ry

     iteration # 13     ecut=    40.00 Ry     beta=0.70
     Davidson diagonalization with overlap
     ethr =  1.63E-09,  avg # of iterations =  1.0

     total cpu time spent up to now is       94.4 secs

     total energy              =     -95.08088896 Ry
     Harris-Foulkes estimate   =     -95.08088900 Ry
     estimated scf accuracy    <       0.00000010 Ry

     iteration # 14     ecut=    40.00 Ry     beta=0.70
     Davidson diagonalization with overlap
     ethr =  1.16E-09,  avg # of iterations =  2.0

     total cpu time spent up to now is       97.1 secs

     total energy              =     -95.08088897 Ry
     Harris-Foulkes estimate   =     -95.08088897 Ry
     estimated scf accuracy    <          2.6E-10 Ry

     iteration # 15     ecut=    40.00 Ry     beta=0.70
     Davidson diagonalization with overlap
     ethr =  2.89E-12,  avg # of iterations =  2.0

     total cpu time spent up to now is       99.8 secs

     End of self-consistent calculation

     Number of k-points >= 100: set verbosity='high' to print the bands.

     the Fermi energy is     4.5719 ev

!    total energy              =     -95.08088897 Ry
     Harris-Foulkes estimate   =     -95.08088897 Ry
     estimated scf accuracy    <          1.0E-10 Ry

     The total energy is the sum of the following terms:

     one-electron contribution =     -75.70176949 Ry
     hartree contribution      =      39.24962483 Ry
     xc contribution           =     -14.34972523 Ry
     ewald contribution        =     -44.27898662 Ry
     smearing contrib. (-TS)   =      -0.00003246 Ry

     convergence has been achieved in  15 iterations

     Forces acting on atoms (cartesian axes, Ry/au):

     atom    1 type  1   force =     0.00000000    0.00000000    0.00000000

     Total force =     0.000000     Total SCF correction =     0.000000


     Computing stress (Cartesian axis) and pressure

          total   stress  (Ry/bohr**3)                   (kbar)     P=  101.92
   0.00069281  -0.00000000  -0.00000000        101.92     -0.00     -0.00
  -0.00000000   0.00069281   0.00000000         -0.00    101.92      0.00
  -0.00000000   0.00000000   0.00069281         -0.00      0.00    101.92


     number of scf cycles    =   3
     number of bfgs steps    =   2

     enthalpy old            =     -95.0352402676 Ry
     enthalpy new            =     -95.0407826086 Ry

     CASE: enthalpy_new < enthalpy_old

     new trust radius        =       0.0880914234 bohr
     new conv_thr            =            1.0E-10 Ry

     new unit-cell volume =    164.13305 a.u.^3 (    24.32201 Ang^3 )
     density =      1.56960 g/cm^3

CELL_PARAMETERS (alat=  8.00000000)
  -0.543207005  -0.000000000   0.543207005
   0.000000000   0.543207005   0.543207005
  -0.543207005   0.543207005  -0.000000000

ATOMIC_POSITIONS (crystal)
Na       0.000000000   0.000000000   0.000000000



     Writing output data file na.fcc.save
     NEW-OLD atomic charge density approx. for the potential
     extrapolated charge    9.91162, renormalised to    9.00000

     total cpu time spent up to now is      101.6 secs

     per-process dynamical memory:    31.5 Mb

     Self-consistent Calculation

     iteration #  1     ecut=    40.00 Ry     beta=0.70
     Davidson diagonalization with overlap
     ethr =  1.00E-06,  avg # of iterations =  4.8

     total cpu time spent up to now is      106.4 secs

     total energy              =     -94.27927372 Ry
     Harris-Foulkes estimate   =     -88.77756084 Ry
     estimated scf accuracy    <       0.45877596 Ry

     iteration #  2     ecut=    40.00 Ry     beta=0.70
     Davidson diagonalization with overlap
     ethr =  5.10E-03,  avg # of iterations =  3.0

     total cpu time spent up to now is      109.7 secs

     total energy              =     -95.13345057 Ry
     Harris-Foulkes estimate   =     -95.46269958 Ry
     estimated scf accuracy    <       0.74129988 Ry

     iteration #  3     ecut=    40.00 Ry     beta=0.70
     Davidson diagonalization with overlap
     ethr =  5.10E-03,  avg # of iterations =  1.0

     total cpu time spent up to now is      111.9 secs

     total energy              =     -95.10777652 Ry
     Harris-Foulkes estimate   =     -95.17265331 Ry
     estimated scf accuracy    <       0.17421538 Ry

     iteration #  4     ecut=    40.00 Ry     beta=0.70
     Davidson diagonalization with overlap
     ethr =  1.94E-03,  avg # of iterations =  1.0

     total cpu time spent up to now is      114.1 secs

     total energy              =     -95.10483152 Ry
     Harris-Foulkes estimate   =     -95.11576725 Ry
     estimated scf accuracy    <       0.05344295 Ry

     iteration #  5     ecut=    40.00 Ry     beta=0.70
     Davidson diagonalization with overlap
     ethr =  5.94E-04,  avg # of iterations =  1.0

     total cpu time spent up to now is      116.3 secs

     total energy              =     -95.09372687 Ry
     Harris-Foulkes estimate   =     -95.10567099 Ry
     estimated scf accuracy    <       0.03206091 Ry

     iteration #  6     ecut=    40.00 Ry     beta=0.70
     Davidson diagonalization with overlap
     ethr =  3.56E-04,  avg # of iterations =  1.0

     total cpu time spent up to now is      118.5 secs

     total energy              =     -95.08788286 Ry
     Harris-Foulkes estimate   =     -95.09496076 Ry
     estimated scf accuracy    <       0.01026518 Ry

     iteration #  7     ecut=    40.00 Ry     beta=0.70
     Davidson diagonalization with overlap
     ethr =  1.14E-04,  avg # of iterations =  2.0

     total cpu time spent up to now is      121.2 secs

     total energy              =     -95.09018303 Ry
     Harris-Foulkes estimate   =     -95.09017522 Ry
     estimated scf accuracy    <       0.00000924 Ry

     iteration #  8     ecut=    40.00 Ry     beta=0.70
     Davidson diagonalization with overlap
     ethr =  1.03E-07,  avg # of iterations =  3.0

     total cpu time spent up to now is      124.5 secs

     total energy              =     -95.09019457 Ry
     Harris-Foulkes estimate   =     -95.09018809 Ry
     estimated scf accuracy    <       0.00003781 Ry

     iteration #  9     ecut=    40.00 Ry     beta=0.70
     Davidson diagonalization with overlap
     ethr =  1.03E-07,  avg # of iterations =  1.0

     total cpu time spent up to now is      126.7 secs

     total energy              =     -95.09017838 Ry
     Harris-Foulkes estimate   =     -95.09019501 Ry
     estimated scf accuracy    <       0.00005151 Ry

     iteration # 10     ecut=    40.00 Ry     beta=0.70
     Davidson diagonalization with overlap
     ethr =  1.03E-07,  avg # of iterations =  2.0

     total cpu time spent up to now is      129.4 secs

     total energy              =     -95.09017131 Ry
     Harris-Foulkes estimate   =     -95.09018079 Ry
     estimated scf accuracy    <       0.00001188 Ry

     iteration # 11     ecut=    40.00 Ry     beta=0.70
     Davidson diagonalization with overlap
     ethr =  1.03E-07,  avg # of iterations =  2.0

     total cpu time spent up to now is      132.2 secs

     total energy              =     -95.09017511 Ry
     Harris-Foulkes estimate   =     -95.09017610 Ry
     estimated scf accuracy    <       0.00000221 Ry

     iteration # 12     ecut=    40.00 Ry     beta=0.70
     Davidson diagonalization with overlap
     ethr =  2.45E-08,  avg # of iterations =  1.3

     total cpu time spent up to now is      134.4 secs

     total energy              =     -95.09017514 Ry
     Harris-Foulkes estimate   =     -95.09017535 Ry
     estimated scf accuracy    <       0.00000073 Ry

     iteration # 13     ecut=    40.00 Ry     beta=0.70
     Davidson diagonalization with overlap
     ethr =  8.16E-09,  avg # of iterations =  1.6

     total cpu time spent up to now is      136.8 secs

     total energy              =     -95.09017517 Ry
     Harris-Foulkes estimate   =     -95.09017517 Ry
     estimated scf accuracy    <       0.00000009 Ry

     iteration # 14     ecut=    40.00 Ry     beta=0.70
     Davidson diagonalization with overlap
     ethr =  1.04E-09,  avg # of iterations =  1.0

     total cpu time spent up to now is      139.0 secs

     total energy              =     -95.09017514 Ry
     Harris-Foulkes estimate   =     -95.09017517 Ry
     estimated scf accuracy    <       0.00000006 Ry

     iteration # 15     ecut=    40.00 Ry     beta=0.70
     Davidson diagonalization with overlap
     ethr =  6.33E-10,  avg # of iterations =  1.8

     total cpu time spent up to now is      141.4 secs

     total energy              =     -95.09017515 Ry
     Harris-Foulkes estimate   =     -95.09017515 Ry
     estimated scf accuracy    <          3.8E-10 Ry

     iteration # 16     ecut=    40.00 Ry     beta=0.70
     Davidson diagonalization with overlap
     ethr =  4.20E-12,  avg # of iterations =  2.1

     total cpu time spent up to now is      144.0 secs

     End of self-consistent calculation

     Number of k-points >= 100: set verbosity='high' to print the bands.

     the Fermi energy is     3.8244 ev

!    total energy              =     -95.09017515 Ry
     Harris-Foulkes estimate   =     -95.09017515 Ry
     estimated scf accuracy    <          3.2E-11 Ry

     The total energy is the sum of the following terms:

     one-electron contribution =     -78.37924542 Ry
     hartree contribution      =      40.34938810 Ry
     xc contribution           =     -14.33096679 Ry
     ewald contribution        =     -42.72931689 Ry
     smearing contrib. (-TS)   =      -0.00003416 Ry

     convergence has been achieved in  16 iterations

     Forces acting on atoms (cartesian axes, Ry/au):

     atom    1 type  1   force =     0.00000000    0.00000000    0.00000000

     Total force =     0.000000     Total SCF correction =     0.000000


     Computing stress (Cartesian axis) and pressure

          total   stress  (Ry/bohr**3)                   (kbar)     P=   65.26
   0.00044360  -0.00000000  -0.00000000         65.26     -0.00     -0.00
  -0.00000000   0.00044360   0.00000000         -0.00     65.26      0.00
  -0.00000000   0.00000000   0.00044360         -0.00      0.00     65.26


     number of scf cycles    =   4
     number of bfgs steps    =   3

     enthalpy old            =     -95.0407826086 Ry
     enthalpy new            =     -95.0455449919 Ry

     CASE: enthalpy_new < enthalpy_old

     new trust radius        =       0.0698953810 bohr
     new conv_thr            =            1.0E-10 Ry

     new unit-cell volume =    177.93469 a.u.^3 (    26.36720 Ang^3 )
     density =      1.44785 g/cm^3

CELL_PARAMETERS (alat=  8.00000000)
  -0.558024877  -0.000000000   0.558024877
   0.000000000   0.558024877   0.558024877
  -0.558024877   0.558024877  -0.000000000

ATOMIC_POSITIONS (crystal)
Na       0.000000000   0.000000000   0.000000000



     Writing output data file na.fcc.save
     NEW-OLD atomic charge density approx. for the potential
     extrapolated charge    9.69760, renormalised to    9.00000

     total cpu time spent up to now is      145.9 secs

     per-process dynamical memory:    31.5 Mb

     Self-consistent Calculation

     iteration #  1     ecut=    40.00 Ry     beta=0.70
     Davidson diagonalization with overlap
     ethr =  1.00E-06,  avg # of iterations =  4.6

     total cpu time spent up to now is      150.5 secs

     total energy              =     -94.66912842 Ry
     Harris-Foulkes estimate   =     -90.12846780 Ry
     estimated scf accuracy    <       0.23890297 Ry

     iteration #  2     ecut=    40.00 Ry     beta=0.70
     Davidson diagonalization with overlap
     ethr =  2.65E-03,  avg # of iterations =  3.0

     total cpu time spent up to now is      154.0 secs

     total energy              =     -95.11459634 Ry
     Harris-Foulkes estimate   =     -95.28829657 Ry
     estimated scf accuracy    <       0.39339962 Ry

     iteration #  3     ecut=    40.00 Ry     beta=0.70
     Davidson diagonalization with overlap
     ethr =  2.65E-03,  avg # of iterations =  1.1

     total cpu time spent up to now is      156.2 secs

     total energy              =     -95.10458262 Ry
     Harris-Foulkes estimate   =     -95.13657206 Ry
     estimated scf accuracy    <       0.08862401 Ry

     iteration #  4     ecut=    40.00 Ry     beta=0.70
     Davidson diagonalization with overlap
     ethr =  9.85E-04,  avg # of iterations =  1.0

     total cpu time spent up to now is      158.4 secs

     total energy              =     -95.10149976 Ry
     Harris-Foulkes estimate   =     -95.10855377 Ry
     estimated scf accuracy    <       0.02793376 Ry

     iteration #  5     ecut=    40.00 Ry     beta=0.70
     Davidson diagonalization with overlap
     ethr =  3.10E-04,  avg # of iterations =  1.0

     total cpu time spent up to now is      160.6 secs

     total energy              =     -95.09560351 Ry
     Harris-Foulkes estimate   =     -95.10210147 Ry
     estimated scf accuracy    <       0.01410576 Ry

     iteration #  6     ecut=    40.00 Ry     beta=0.70
     Davidson diagonalization with overlap
     ethr =  1.57E-04,  avg # of iterations =  1.0

     total cpu time spent up to now is      162.8 secs

     total energy              =     -95.09473218 Ry
     Harris-Foulkes estimate   =     -95.09652199 Ry
     estimated scf accuracy    <       0.00264523 Ry

     iteration #  7     ecut=    40.00 Ry     beta=0.70
     Davidson diagonalization with overlap
     ethr =  2.94E-05,  avg # of iterations =  2.1

     total cpu time spent up to now is      165.6 secs

     total energy              =     -95.09532946 Ry
     Harris-Foulkes estimate   =     -95.09532849 Ry
     estimated scf accuracy    <       0.00000035 Ry

     iteration #  8     ecut=    40.00 Ry     beta=0.70
     Davidson diagonalization with overlap
     ethr =  3.89E-09,  avg # of iterations =  3.2

     total cpu time spent up to now is      169.0 secs

     total energy              =     -95.09532775 Ry
     Harris-Foulkes estimate   =     -95.09533034 Ry
     estimated scf accuracy    <       0.00000322 Ry

     iteration #  9     ecut=    40.00 Ry     beta=0.70
     Davidson diagonalization with overlap
     ethr =  3.89E-09,  avg # of iterations =  3.0

     total cpu time spent up to now is      172.2 secs

     total energy              =     -95.09532920 Ry
     Harris-Foulkes estimate   =     -95.09533117 Ry
     estimated scf accuracy    <       0.00000511 Ry

     iteration # 10     ecut=    40.00 Ry     beta=0.70
     Davidson diagonalization with overlap
     ethr =  3.89E-09,  avg # of iterations =  2.0

     total cpu time spent up to now is      174.9 secs

     total energy              =     -95.09532850 Ry
     Harris-Foulkes estimate   =     -95.09532946 Ry
     estimated scf accuracy    <       0.00000130 Ry

     iteration # 11     ecut=    40.00 Ry     beta=0.70
     Davidson diagonalization with overlap
     ethr =  3.89E-09,  avg # of iterations =  2.0

     total cpu time spent up to now is      177.7 secs

     total energy              =     -95.09532884 Ry
     Harris-Foulkes estimate   =     -95.09532886 Ry
     estimated scf accuracy    <       0.00000003 Ry

     iteration # 12     ecut=    40.00 Ry     beta=0.70
     Davidson diagonalization with overlap
     ethr =  3.15E-10,  avg # of iterations =  2.0

     total cpu time spent up to now is      180.4 secs

     total energy              =     -95.09532885 Ry
     Harris-Foulkes estimate   =     -95.09532885 Ry
     estimated scf accuracy    <          3.5E-09 Ry

     iteration # 13     ecut=    40.00 Ry     beta=0.70
     Davidson diagonalization with overlap
     ethr =  3.89E-11,  avg # of iterations =  1.0

     total cpu time spent up to now is      182.6 secs

     total energy              =     -95.09532885 Ry
     Harris-Foulkes estimate   =     -95.09532885 Ry
     estimated scf accuracy    <          1.1E-09 Ry

     iteration # 14     ecut=    40.00 Ry     beta=0.70
     Davidson diagonalization with overlap
     ethr =  1.23E-11,  avg # of iterations =  1.0

     total cpu time spent up to now is      184.8 secs

     total energy              =     -95.09532885 Ry
     Harris-Foulkes estimate   =     -95.09532885 Ry
     estimated scf accuracy    <          7.5E-10 Ry

     iteration # 15     ecut=    40.00 Ry     beta=0.70
     Davidson diagonalization with overlap
     ethr =  8.29E-12,  avg # of iterations =  2.0

     total cpu time spent up to now is      187.3 secs

     End of self-consistent calculation

     Number of k-points >= 100: set verbosity='high' to print the bands.

     the Fermi energy is     3.3154 ev

!    total energy              =     -95.09532885 Ry
     Harris-Foulkes estimate   =     -95.09532885 Ry
     estimated scf accuracy    <          1.8E-11 Ry

     The total energy is the sum of the following terms:

     one-electron contribution =     -80.34718210 Ry
     hartree contribution      =      41.16442705 Ry
     xc contribution           =     -14.31786132 Ry
     ewald contribution        =     -41.59467656 Ry
     smearing contrib. (-TS)   =      -0.00003591 Ry

     convergence has been achieved in  15 iterations

     Forces acting on atoms (cartesian axes, Ry/au):

     atom    1 type  1   force =     0.00000000    0.00000000    0.00000000

     Total force =     0.000000     Total SCF correction =     0.000000


     Computing stress (Cartesian axis) and pressure

          total   stress  (Ry/bohr**3)                   (kbar)     P=   45.74
   0.00031091  -0.00000000   0.00000000         45.74     -0.00      0.00
  -0.00000000   0.00031091  -0.00000000         -0.00     45.74     -0.00
  -0.00000000  -0.00000000   0.00031091         -0.00     -0.00     45.74


     number of scf cycles    =   5
     number of bfgs steps    =   4

     enthalpy old            =     -95.0455449919 Ry
     enthalpy new            =     -95.0469458261 Ry

     CASE: enthalpy_new < enthalpy_old

     new trust radius        =       0.0223348100 bohr
     new conv_thr            =            1.0E-10 Ry

     new unit-cell volume =    182.44115 a.u.^3 (    27.03499 Ang^3 )
     density =      1.41209 g/cm^3

CELL_PARAMETERS (alat=  8.00000000)
  -0.562696583  -0.000000000   0.562696583
   0.000000000   0.562696583   0.562696583
  -0.562696583   0.562696583  -0.000000000

ATOMIC_POSITIONS (crystal)
Na       0.000000000   0.000000000   0.000000000



     Writing output data file na.fcc.save
     NEW-OLD atomic charge density approx. for the potential
     extrapolated charge    9.22215, renormalised to    9.00000

     total cpu time spent up to now is      189.1 secs

     per-process dynamical memory:    31.5 Mb

     Self-consistent Calculation

     iteration #  1     ecut=    40.00 Ry     beta=0.70
     Davidson diagonalization with overlap
     ethr =  1.00E-06,  avg # of iterations =  3.4

     total cpu time spent up to now is      193.3 secs

     total energy              =     -95.06209302 Ry
     Harris-Foulkes estimate   =     -93.50633889 Ry
     estimated scf accuracy    <       0.01927648 Ry

     iteration #  2     ecut=    40.00 Ry     beta=0.70
     Davidson diagonalization with overlap
     ethr =  2.14E-04,  avg # of iterations =  2.9

     total cpu time spent up to now is      196.8 secs

     total energy              =     -95.09759203 Ry
     Harris-Foulkes estimate   =     -95.11180232 Ry
     estimated scf accuracy    <       0.03238586 Ry

     iteration #  3     ecut=    40.00 Ry     beta=0.70
     Davidson diagonalization with overlap
     ethr =  2.14E-04,  avg # of iterations =  1.4

     total cpu time spent up to now is      199.1 secs

     total energy              =     -95.09743772 Ry
     Harris-Foulkes estimate   =     -95.09962420 Ry
     estimated scf accuracy    <       0.00658720 Ry

     iteration #  4     ecut=    40.00 Ry     beta=0.70
     Davidson diagonalization with overlap
     ethr =  7.32E-05,  avg # of iterations =  1.0

     total cpu time spent up to now is      201.3 secs

     total energy              =     -95.09701780 Ry
     Harris-Foulkes estimate   =     -95.09770636 Ry
     estimated scf accuracy    <       0.00227153 Ry

     iteration #  5     ecut=    40.00 Ry     beta=0.70
     Davidson diagonalization with overlap
     ethr =  2.52E-05,  avg # of iterations =  1.0

     total cpu time spent up to now is      203.5 secs

     total energy              =     -95.09672973 Ry
     Harris-Foulkes estimate   =     -95.09708648 Ry
     estimated scf accuracy    <       0.00092384 Ry

     iteration #  6     ecut=    40.00 Ry     beta=0.70
     Davidson diagonalization with overlap
     ethr =  1.03E-05,  avg # of iterations =  1.0

     total cpu time spent up to now is      205.7 secs

     total energy              =     -95.09661515 Ry
     Harris-Foulkes estimate   =     -95.09677190 Ry
     estimated scf accuracy    <       0.00025899 Ry

     iteration #  7     ecut=    40.00 Ry     beta=0.70
     Davidson diagonalization with overlap
     ethr =  2.88E-06,  avg # of iterations =  2.1

     total cpu time spent up to now is      208.4 secs

     total energy              =     -95.09665589 Ry
     Harris-Foulkes estimate   =     -95.09665617 Ry
     estimated scf accuracy    <       0.00000606 Ry

     iteration #  8     ecut=    40.00 Ry     beta=0.70
     Davidson diagonalization with overlap
     ethr =  6.74E-08,  avg # of iterations =  1.0

     total cpu time spent up to now is      210.6 secs

     total energy              =     -95.09665192 Ry
     Harris-Foulkes estimate   =     -95.09665596 Ry
     estimated scf accuracy    <       0.00000546 Ry

     iteration #  9     ecut=    40.00 Ry     beta=0.70
     Davidson diagonalization with overlap
     ethr =  6.07E-08,  avg # of iterations =  2.0

     total cpu time spent up to now is      213.3 secs

     total energy              =     -95.09665338 Ry
     Harris-Foulkes estimate   =     -95.09665350 Ry
     estimated scf accuracy    <       0.00000015 Ry

     iteration # 10     ecut=    40.00 Ry     beta=0.70
     Davidson diagonalization with overlap
     ethr =  1.66E-09,  avg # of iterations =  2.0

     total cpu time spent up to now is      216.0 secs

     total energy              =     -95.09665343 Ry
     Harris-Foulkes estimate   =     -95.09665345 Ry
     estimated scf accuracy    <       0.00000004 Ry

     iteration # 11     ecut=    40.00 Ry     beta=0.70
     Davidson diagonalization with overlap
     ethr =  4.20E-10,  avg # of iterations =  2.0

     total cpu time spent up to now is      218.5 secs

     total energy              =     -95.09665343 Ry
     Harris-Foulkes estimate   =     -95.09665343 Ry
     estimated scf accuracy    <          2.2E-09 Ry

     iteration # 12     ecut=    40.00 Ry     beta=0.70
     Davidson diagonalization with overlap
     ethr =  2.47E-11,  avg # of iterations =  1.7

     total cpu time spent up to now is      220.9 secs

     total energy              =     -95.09665343 Ry
     Harris-Foulkes estimate   =     -95.09665343 Ry
     estimated scf accuracy    <          2.1E-10 Ry

     iteration # 13     ecut=    40.00 Ry     beta=0.70
     Davidson diagonalization with overlap
     ethr =  2.38E-12,  avg # of iterations =  2.0

     total cpu time spent up to now is      223.5 secs

     End of self-consistent calculation

     Number of k-points >= 100: set verbosity='high' to print the bands.

     the Fermi energy is     3.1667 ev

!    total energy              =     -95.09665343 Ry
     Harris-Foulkes estimate   =     -95.09665343 Ry
     estimated scf accuracy    <          1.2E-12 Ry

     The total energy is the sum of the following terms:

     one-electron contribution =     -80.94737852 Ry
     hartree contribution      =      41.41406955 Ry
     xc contribution           =     -14.31396509 Ry
     ewald contribution        =     -41.24934284 Ry
     smearing contrib. (-TS)   =      -0.00003653 Ry

     convergence has been achieved in  13 iterations

     Forces acting on atoms (cartesian axes, Ry/au):

     atom    1 type  1   force =     0.00000000    0.00000000    0.00000000

     Total force =     0.000000     Total SCF correction =     0.000000


     Computing stress (Cartesian axis) and pressure

          total   stress  (Ry/bohr**3)                   (kbar)     P=   40.80
   0.00027737   0.00000000  -0.00000000         40.80      0.00     -0.00
   0.00000000   0.00027737   0.00000000          0.00     40.80      0.00
  -0.00000000   0.00000000   0.00027737         -0.00      0.00     40.80


     number of scf cycles    =   6
     number of bfgs steps    =   5

     enthalpy old            =     -95.0469458261 Ry
     enthalpy new            =     -95.0470450348 Ry

     CASE: enthalpy_new < enthalpy_old

     new trust radius        =       0.0037174376 bohr
     new conv_thr            =            1.0E-10 Ry

     new unit-cell volume =    183.19536 a.u.^3 (    27.14675 Ang^3 )
     density =      1.40627 g/cm^3

CELL_PARAMETERS (alat=  8.00000000)
  -0.563470914  -0.000000000   0.563470914
   0.000000000   0.563470914   0.563470914
  -0.563470914   0.563470914  -0.000000000

ATOMIC_POSITIONS (crystal)
Na       0.000000000   0.000000000   0.000000000



     Writing output data file na.fcc.save
     NEW-OLD atomic charge density approx. for the potential
     extrapolated charge    9.03703, renormalised to    9.00000

     total cpu time spent up to now is      225.4 secs

     per-process dynamical memory:    31.5 Mb

     Self-consistent Calculation

     iteration #  1     ecut=    40.00 Ry     beta=0.70
     Davidson diagonalization with overlap
     ethr =  1.00E-06,  avg # of iterations =  2.2

     total cpu time spent up to now is      228.6 secs

     total energy              =     -95.09596872 Ry
     Harris-Foulkes estimate   =     -94.83211028 Ry
     estimated scf accuracy    <       0.00049889 Ry

     iteration #  2     ecut=    40.00 Ry     beta=0.70
     Davidson diagonalization with overlap
     ethr =  5.54E-06,  avg # of iterations =  2.8

     total cpu time spent up to now is      232.1 secs

     total energy              =     -95.09687857 Ry
     Harris-Foulkes estimate   =     -95.09724626 Ry
     estimated scf accuracy    <       0.00083792 Ry

     iteration #  3     ecut=    40.00 Ry     beta=0.70
     Davidson diagonalization with overlap
     ethr =  5.54E-06,  avg # of iterations =  1.5

     total cpu time spent up to now is      234.4 secs

     total energy              =     -95.09688100 Ry
     Harris-Foulkes estimate   =     -95.09693354 Ry
     estimated scf accuracy    <       0.00016315 Ry

     iteration #  4     ecut=    40.00 Ry     beta=0.70
     Davidson diagonalization with overlap
     ethr =  1.81E-06,  avg # of iterations =  1.0

     total cpu time spent up to now is      236.6 secs

     total energy              =     -95.09686895 Ry
     Harris-Foulkes estimate   =     -95.09688736 Ry
     estimated scf accuracy    <       0.00005824 Ry

     iteration #  5     ecut=    40.00 Ry     beta=0.70
     Davidson diagonalization with overlap
     ethr =  6.47E-07,  avg # of iterations =  1.0

     total cpu time spent up to now is      238.8 secs

     total energy              =     -95.09686439 Ry
     Harris-Foulkes estimate   =     -95.09687088 Ry
     estimated scf accuracy    <       0.00002220 Ry

     iteration #  6     ecut=    40.00 Ry     beta=0.70
     Davidson diagonalization with overlap
     ethr =  2.47E-07,  avg # of iterations =  1.0

     total cpu time spent up to now is      241.0 secs

     total energy              =     -95.09685941 Ry
     Harris-Foulkes estimate   =     -95.09686496 Ry
     estimated scf accuracy    <       0.00000948 Ry

     iteration #  7     ecut=    40.00 Ry     beta=0.70
     Davidson diagonalization with overlap
     ethr =  1.05E-07,  avg # of iterations =  2.0

     total cpu time spent up to now is      243.6 secs

     total energy              =     -95.09686054 Ry
     Harris-Foulkes estimate   =     -95.09686072 Ry
     estimated scf accuracy    <       0.00000035 Ry

     iteration #  8     ecut=    40.00 Ry     beta=0.70
     Davidson diagonalization with overlap
     ethr =  3.86E-09,  avg # of iterations =  1.6

     total cpu time spent up to now is      246.0 secs

     total energy              =     -95.09686056 Ry
     Harris-Foulkes estimate   =     -95.09686058 Ry
     estimated scf accuracy    <       0.00000003 Ry

     iteration #  9     ecut=    40.00 Ry     beta=0.70
     Davidson diagonalization with overlap
     ethr =  3.39E-10,  avg # of iterations =  2.0

     total cpu time spent up to now is      248.7 secs

     End of self-consistent calculation

     Number of k-points >= 100: set verbosity='high' to print the bands.

     the Fermi energy is     3.1425 ev

!    total energy              =     -95.09686057 Ry
     Harris-Foulkes estimate   =     -95.09686057 Ry
     estimated scf accuracy    <          9.9E-11 Ry

     The total energy is the sum of the following terms:

     one-electron contribution =     -81.04590910 Ry
     hartree contribution      =      41.45506129 Ry
     xc contribution           =     -14.31331879 Ry
     ewald contribution        =     -41.19265732 Ry
     smearing contrib. (-TS)   =      -0.00003664 Ry

     convergence has been achieved in   9 iterations

     Forces acting on atoms (cartesian axes, Ry/au):

     atom    1 type  1   force =     0.00000000    0.00000000    0.00000000

     Total force =     0.000000     Total SCF correction =     0.000000


     Computing stress (Cartesian axis) and pressure

          total   stress  (Ry/bohr**3)                   (kbar)     P=   39.93
   0.00027144   0.00000000   0.00000000         39.93      0.00      0.00
   0.00000000   0.00027144  -0.00000000          0.00     39.93     -0.00
   0.00000000  -0.00000000   0.00027144          0.00     -0.00     39.93


     bfgs converged in   7 scf cycles and   6 bfgs steps
     (criteria: energy <  1.0E-04 Ry, force <  1.0E-03Ry/Bohr, cell <  5.0E-01kbar)

     End of BFGS Geometry Optimization

     Final enthalpy =     -95.0470470882 Ry
Begin final coordinates
     new unit-cell volume =    183.19536 a.u.^3 (    27.14675 Ang^3 )
     density =      1.40627 g/cm^3

CELL_PARAMETERS (alat=  8.00000000)
  -0.563470914  -0.000000000   0.563470914
   0.000000000   0.563470914   0.563470914
  -0.563470914   0.563470914  -0.000000000

ATOMIC_POSITIONS (crystal)
Na       0.000000000   0.000000000   0.000000000
End final coordinates



     A final scf calculation at the relaxed structure.
     The G-vectors are recalculated for the final unit cell
     Results may differ from those at the preceding step.

     Parallelization info
     --------------------
     sticks:   dense  smooth     PW     G-vecs:    dense   smooth      PW
     Min         222     109     37                 4393     1557     309
     Max         223     110     38                 4394     1558     312
     Sum         889     439    151                17573     6231    1243



     bravais-lattice index     =            2
     lattice parameter (alat)  =       8.0000  a.u.
     unit-cell volume          =     183.1954 (a.u.)^3
     number of atoms/cell      =            1
     number of atomic types    =            1
     number of electrons       =         9.00
     number of Kohn-Sham states=            9
     kinetic-energy cutoff     =      40.0000  Ry
     charge density cutoff     =     320.0000  Ry
     convergence threshold     =      1.0E-10
     mixing beta               =       0.7000
     number of iterations used =            8  plain     mixing
     Exchange-correlation      = SLA  PW   PBE  PBE ( 1  4  3  4 0 0)

     celldm(1)=   8.000000  celldm(2)=   0.000000  celldm(3)=   0.000000
     celldm(4)=   0.000000  celldm(5)=   0.000000  celldm(6)=   0.000000

     crystal axes: (cart. coord. in units of alat)
               a(1) = (  -0.563471  -0.000000   0.563471 )  
               a(2) = (   0.000000   0.563471   0.563471 )  
               a(3) = (  -0.563471   0.563471  -0.000000 )  

     reciprocal axes: (cart. coord. in units 2 pi/alat)
               b(1) = ( -0.887357 -0.887357  0.887357 )  
               b(2) = (  0.887357  0.887357  0.887357 )  
               b(3) = ( -0.887357  0.887357 -0.887357 )  


     PseudoPot. # 1 for Na read from file:
     /home/s1333534/quantum_espresso/qe-6.1/pseudo/Na_pbe_v1.uspp.F.UPF
     MD5 check sum: 76a99c7e9422403d3e93cbc85ab7bccb
     Pseudo is Ultrasoft, Zval =  9.0
     Generated by new atomic code, or converted to UPF format
     Using radial grid of  819 points,  5 beta functions with: 
                l(1) =   0
                l(2) =   0
                l(3) =   1
                l(4) =   1
                l(5) =   2
     Q(r) pseudized with  8 coefficients,  rinner =    1.250   1.250   1.250
                                                       1.250   1.250

     atomic species   valence    mass     pseudopotential
        Na             9.00    22.99000     Na( 1.00)

     48 Sym. Ops., with inversion, found



   Cartesian axes

     site n.     atom                  positions (alat units)
         1           Na  tau(   1) = (   0.0000000   0.0000000   0.0000000  )

     number of k points=   770  Marzari-Vanderbilt smearing, width (Ry)=  0.0200

     Number of k-points >= 100: set verbosity='high' to print them.

     Dense  grid:    17573 G-vectors     FFT dimensions: (  40,  40,  40)

     Smooth grid:     6231 G-vectors     FFT dimensions: (  25,  25,  25)

     Estimated max dynamical RAM per process >      23.78MB

     Estimated total allocated dynamical RAM >      95.11MB

     Initial potential from superposition of free atoms

     starting charge    8.99371, renormalised to    9.00000
     Starting wfc are    5 randomized atomic wfcs +    4 random wfc

     Writing output data file na.fcc.save

     total cpu time spent up to now is      251.8 secs

     per-process dynamical memory:    39.8 Mb

     Self-consistent Calculation

     iteration #  1     ecut=    40.00 Ry     beta=0.70
     Davidson diagonalization with overlap
     c_bands:  1 eigenvalues not converged
     c_bands:  1 eigenvalues not converged
     c_bands:  1 eigenvalues not converged
     c_bands:  1 eigenvalues not converged
     ethr =  1.00E-06,  avg # of iterations = 10.6

     total cpu time spent up to now is      260.9 secs

     total energy              =     -95.09881464 Ry
     Harris-Foulkes estimate   =     -95.09923477 Ry
     estimated scf accuracy    <       0.00117640 Ry

     iteration #  2     ecut=    40.00 Ry     beta=0.70
     Davidson diagonalization with overlap
     ethr =  1.31E-05,  avg # of iterations =  2.0

     total cpu time spent up to now is      264.1 secs

     total energy              =     -95.09896673 Ry
     Harris-Foulkes estimate   =     -95.09900319 Ry
     estimated scf accuracy    <       0.00013476 Ry

     iteration #  3     ecut=    40.00 Ry     beta=0.70
     Davidson diagonalization with overlap
     ethr =  1.50E-06,  avg # of iterations =  2.0

     total cpu time spent up to now is      267.2 secs

     total energy              =     -95.09898240 Ry
     Harris-Foulkes estimate   =     -95.09898385 Ry
     estimated scf accuracy    <       0.00000803 Ry

     iteration #  4     ecut=    40.00 Ry     beta=0.70
     Davidson diagonalization with overlap
     ethr =  8.93E-08,  avg # of iterations =  1.0

     total cpu time spent up to now is      269.9 secs

     total energy              =     -95.09898311 Ry
     Harris-Foulkes estimate   =     -95.09898305 Ry
     estimated scf accuracy    <          9.4E-09 Ry

     iteration #  5     ecut=    40.00 Ry     beta=0.70
     Davidson diagonalization with overlap
     ethr =  1.05E-10,  avg # of iterations =  3.0

     total cpu time spent up to now is      273.7 secs

     total energy              =     -95.09898314 Ry
     Harris-Foulkes estimate   =     -95.09898313 Ry
     estimated scf accuracy    <          1.4E-09 Ry

     iteration #  6     ecut=    40.00 Ry     beta=0.70
     Davidson diagonalization with overlap
     ethr =  1.52E-11,  avg # of iterations =  1.6

     total cpu time spent up to now is      276.5 secs

     End of self-consistent calculation

     Number of k-points >= 100: set verbosity='high' to print the bands.

     the Fermi energy is     3.1443 ev

!    total energy              =     -95.09898314 Ry
     Harris-Foulkes estimate   =     -95.09898314 Ry
     estimated scf accuracy    <          4.2E-11 Ry

     The total energy is the sum of the following terms:

     one-electron contribution =     -81.04551327 Ry
     hartree contribution      =      41.45209068 Ry
     xc contribution           =     -14.31286658 Ry
     ewald contribution        =     -41.19265732 Ry
     smearing contrib. (-TS)   =      -0.00003665 Ry

     convergence has been achieved in   6 iterations

     Forces acting on atoms (cartesian axes, Ry/au):

     atom    1 type  1   force =     0.00000000    0.00000000    0.00000000

     Total force =     0.000000     Total SCF correction =     0.000000


     Computing stress (Cartesian axis) and pressure

          total   stress  (Ry/bohr**3)                   (kbar)     P=   39.10
   0.00026582  -0.00000000  -0.00000000         39.10     -0.00     -0.00
  -0.00000000   0.00026582   0.00000000         -0.00     39.10      0.00
  -0.00000000   0.00000000   0.00026582         -0.00      0.00     39.10


     Writing output data file na.fcc.save

     init_run     :      2.42s CPU      2.55s WALL (       2 calls)
     electrons    :    250.02s CPU    261.19s WALL (       8 calls)
     update_pot   :      0.72s CPU      0.73s WALL (       6 calls)
     forces       :      1.29s CPU      1.33s WALL (       8 calls)
     stress       :      6.91s CPU      6.96s WALL (       8 calls)

     Called by init_run:
     wfcinit      :      1.82s CPU      1.94s WALL (       2 calls)
     potinit      :      0.06s CPU      0.06s WALL (       2 calls)

     Called by electrons:
     c_bands      :    208.40s CPU    218.07s WALL (      94 calls)
     sum_band     :     40.06s CPU     41.53s WALL (      94 calls)
     v_of_rho     :      0.80s CPU      0.82s WALL (     101 calls)
     newd         :      0.75s CPU      0.76s WALL (     101 calls)
     mix_rho      :      0.06s CPU      0.06s WALL (      94 calls)

     Called by c_bands:
     init_us_2    :     10.59s CPU      9.87s WALL (  158620 calls)
     cegterg      :    198.07s CPU    207.90s WALL (   72380 calls)

     Called by sum_band:
     sum_band:bec :      0.18s CPU      0.23s WALL (   72380 calls)
     addusdens    :      0.92s CPU      0.93s WALL (      94 calls)

     Called by *egterg:
     h_psi        :    155.00s CPU    162.35s WALL (  218833 calls)
     s_psi        :      2.38s CPU      2.05s WALL (  218833 calls)
     g_psi        :      1.21s CPU      1.17s WALL (  144913 calls)
     cdiaghg      :     27.10s CPU     28.01s WALL (  211903 calls)

     Called by h_psi:
     h_psi:pot    :    154.46s CPU    161.49s WALL (  218833 calls)
     h_psi:calbec :      3.69s CPU      3.46s WALL (  218833 calls)
     vloc_psi     :    148.32s CPU    155.19s WALL (  218833 calls)
     add_vuspsi   :      2.12s CPU      2.32s WALL (  218833 calls)

     General routines
     calbec       :      4.84s CPU      4.91s WALL (  322013 calls)
     fft          :      0.36s CPU      0.37s WALL (    1658 calls)
     ffts         :      0.02s CPU      0.02s WALL (     195 calls)
     fftw         :    165.54s CPU    160.43s WALL ( 3860312 calls)
     interpolate  :      0.06s CPU      0.06s WALL (     195 calls)
     davcio       :      0.01s CPU      0.02s WALL (    1540 calls)

     Parallel routines
     fft_scatter  :     23.76s CPU     29.94s WALL ( 3862165 calls)

     PWSCF        :  4m26.83s CPU     4m38.53s WALL


   This run was terminated on:  11:14: 0  20Dec2017            

=------------------------------------------------------------------------------=
   JOB DONE.
=------------------------------------------------------------------------------=
