
     Program PHONON v.6.1 (svn rev. 13369) starts on 21Dec2017 at 12:21:33 

     This program is part of the open-source Quantum ESPRESSO suite
     for quantum simulation of materials; please cite
         "P. Giannozzi et al., J. Phys.:Condens. Matter 21 395502 (2009);
          URL http://www.quantum-espresso.org", 
     in publications or presentations arising from this work. More details at
     http://www.quantum-espresso.org/quote

     Parallel version (MPI), running on     4 processors
     R & G space division:  proc/nbgrp/npool/nimage =       4

     Reading data from directory:
     ./na.fcc.save

   Info: using nr1, nr2, nr3 values from input

   Info: using nr1, nr2, nr3 values from input

     IMPORTANT: XC functional enforced from input :
     Exchange-correlation      = SLA  PW   PBE  PBE ( 1  4  3  4 0 0)
     Any further DFT definition will be discarded
     Please, verify this is what you really want


     Parallelization info
     --------------------
     sticks:   dense  smooth     PW     G-vecs:    dense   smooth      PW
     Min         267     133     46                 5821     2024     397
     Max         268     134     47                 5825     2025     398
     Sum        1069     535    187                23289     8099    1591



     Dynamical matrices for ( 8, 8, 8)  uniform grid of q-points
     (  29q-points):
       N         xq(1)         xq(2)         xq(3) 
       1   0.000000000   0.000000000   0.000000000
       2  -0.125000000   0.125000000  -0.125000000
       3  -0.250000000   0.250000000  -0.250000000
       4  -0.375000000   0.375000000  -0.375000000
       5   0.500000000  -0.500000000   0.500000000
       6   0.000000000   0.250000000   0.000000000
       7  -0.125000000   0.375000000  -0.125000000
       8  -0.250000000   0.500000000  -0.250000000
       9   0.625000000  -0.375000000   0.625000000
      10   0.500000000  -0.250000000   0.500000000
      11   0.375000000  -0.125000000   0.375000000
      12   0.250000000   0.000000000   0.250000000
      13   0.000000000   0.500000000   0.000000000
      14  -0.125000000   0.625000000  -0.125000000
      15   0.750000000  -0.250000000   0.750000000
      16   0.625000000  -0.125000000   0.625000000
      17   0.500000000   0.000000000   0.500000000
      18   0.000000000   0.750000000   0.000000000
      19   0.875000000  -0.125000000   0.875000000
      20   0.750000000   0.000000000   0.750000000
      21   0.000000000  -1.000000000   0.000000000
      22  -0.250000000   0.500000000   0.000000000
      23   0.625000000  -0.375000000   0.875000000
      24   0.500000000  -0.250000000   0.750000000
      25   0.750000000  -0.250000000   1.000000000
      26   0.625000000  -0.125000000   0.875000000
      27   0.500000000   0.000000000   0.750000000
      28  -0.250000000  -1.000000000   0.000000000
      29  -0.500000000  -1.000000000   0.000000000

     Calculation of q =    0.0000000   0.0000000   0.0000000

                                                                                

     bravais-lattice index     =            2
     lattice parameter (alat)  =       9.8622  a.u.
     unit-cell volume          =     239.8062 (a.u.)^3
     number of atoms/cell      =            1
     number of atomic types    =            1
     kinetic-energy cut-off    =      40.0000  Ry
     charge density cut-off    =     320.0000  Ry
     convergence threshold     =      1.0E-12
     beta                      =       0.7000
     number of iterations used =            4
     Exchange-correlation      = SLA  PW   PBE  PBE ( 1  4  3  4 0 0)


     celldm(1)=    9.86219  celldm(2)=    0.00000  celldm(3)=    0.00000
     celldm(4)=    0.00000  celldm(5)=    0.00000  celldm(6)=    0.00000

     crystal axes: (cart. coord. in units of alat)
               a(1) = ( -0.5000  0.0000  0.5000 )  
               a(2) = (  0.0000  0.5000  0.5000 )  
               a(3) = ( -0.5000  0.5000  0.0000 )  

     reciprocal axes: (cart. coord. in units 2 pi/alat)
               b(1) = ( -1.0000 -1.0000  1.0000 )  
               b(2) = (  1.0000  1.0000  1.0000 )  
               b(3) = ( -1.0000  1.0000 -1.0000 )  


     Atoms inside the unit cell: 

     Cartesian axes

     site n.  atom      mass           positions (alat units)
        1     Na  22.9900   tau(    1) = (    0.00000    0.00000    0.00000  )

     Computing dynamical matrix for 
                    q = (   0.0000000   0.0000000   0.0000000 )

     49 Sym.Ops. (with q -> -q+G )


     G cutoff =  788.3828  (   5822 G-vectors)     FFT grid: ( 40, 40, 40)
     G cutoff =  394.1914  (   2025 G-vectors)  smooth grid: ( 30, 30, 30)

     number of k points=   280  Marzari-Vanderbilt smearing, width (Ry)=  0.0200

     PseudoPot. # 1 for Na read from file:
     /home/s1333534/quantum_espresso/qe-6.1/pseudo/Na_pbe_v1.uspp.F.UPF
     MD5 check sum: 76a99c7e9422403d3e93cbc85ab7bccb
     Pseudo is Ultrasoft, Zval =  9.0
     Generated by new atomic code, or converted to UPF format
     Using radial grid of  819 points,  5 beta functions with: 
                l(1) =   0
                l(2) =   0
                l(3) =   1
                l(4) =   1
                l(5) =   2
     Q(r) pseudized with  8 coefficients,  rinner =    1.250   1.250   1.250
                                                       1.250   1.250

     Mode symmetry, O_h (m-3m)  point group:


     Atomic displacements:
     There are   1 irreducible representations

     Representation     1      3 modes -T_1u G_15  G_4-  To be done



     Alpha used in Ewald sum =   2.8000
     PHONON       :     2.41s CPU         2.52s WALL



     Representation #  1 modes #   1  2  3

     Self-consistent Calculation

     Pert. #  1: Fermi energy shift (Ry) =    -5.1699E-26     1.5673E-37
     Pert. #  2: Fermi energy shift (Ry) =     8.7888E-25    -7.8366E-38
     Pert. #  3: Fermi energy shift (Ry) =    -4.4806E-25     0.0000E+00

      iter #   1 total cpu time :    12.1 secs   av.it.:   5.4
      thresh= 1.000E-02 alpha_mix =  0.700 |ddv_scf|^2 =  1.463E-06

     Pert. #  1: Fermi energy shift (Ry) =    -1.3786E-25     1.2245E-40
     Pert. #  2: Fermi energy shift (Ry) =     5.8592E-25     3.0612E-41
     Pert. #  3: Fermi energy shift (Ry) =    -4.3944E-25    -6.1224E-41

      iter #   2 total cpu time :    23.5 secs   av.it.:   8.4
      thresh= 1.210E-04 alpha_mix =  0.700 |ddv_scf|^2 =  2.744E-08

     Pert. #  1: Fermi energy shift (Ry) =     1.8095E-25     2.6785E-41
     Pert. #  2: Fermi energy shift (Ry) =     1.9818E-25     7.6530E-42
     Pert. #  3: Fermi energy shift (Ry) =    -3.2312E-26     3.0612E-41

      iter #   3 total cpu time :    37.3 secs   av.it.:   8.5
      thresh= 1.656E-05 alpha_mix =  0.700 |ddv_scf|^2 =  5.499E-10

     Pert. #  1: Fermi energy shift (Ry) =     1.5671E-25    -7.6530E-42
     Pert. #  2: Fermi energy shift (Ry) =    -3.6499E-25    -1.9132E-41
     Pert. #  3: Fermi energy shift (Ry) =     4.7525E-26    -4.0178E-41

      iter #   4 total cpu time :    48.4 secs   av.it.:   7.9
      thresh= 2.345E-06 alpha_mix =  0.700 |ddv_scf|^2 =  1.850E-12

     Pert. #  1: Fermi energy shift (Ry) =     2.0464E-25    -2.8699E-42
     Pert. #  2: Fermi energy shift (Ry) =     1.3840E-25     3.0612E-41
     Pert. #  3: Fermi energy shift (Ry) =     0.0000E+00    -3.8265E-42

      iter #   5 total cpu time :    59.7 secs   av.it.:   8.3
      thresh= 1.360E-07 alpha_mix =  0.700 |ddv_scf|^2 =  4.051E-15

     End of self-consistent calculation

     Convergence has been achieved 

     Number of q in the star =    1
     List of q in the star:
          1   0.000000000   0.000000000   0.000000000

     Diagonalizing the dynamical matrix

     q = (    0.000000000   0.000000000   0.000000000 ) 

 **************************************************************************
     freq (    1) =       0.537048 [THz] =      17.913995 [cm-1]
     freq (    2) =       0.537048 [THz] =      17.913995 [cm-1]
     freq (    3) =       0.537048 [THz] =      17.913995 [cm-1]
 **************************************************************************

     Mode symmetry, O_h (m-3m)  point group:

     freq (  1 -  3) =         17.9  [cm-1]   --> T_1u G_15  G_4- I  

     Calculation of q =   -0.1250000   0.1250000  -0.1250000

   Info: using nr1, nr2, nr3 values from input

   Info: using nr1, nr2, nr3 values from input

     Parallelization info
     --------------------
     sticks:   dense  smooth     PW     G-vecs:    dense   smooth      PW
     Min         267     133     46                 5821     2024     409
     Max         268     134     47                 5825     2025     411
     Sum        1069     535    187                23289     8099    1639



     bravais-lattice index     =            2
     lattice parameter (alat)  =       9.8622  a.u.
     unit-cell volume          =     239.8062 (a.u.)^3
     number of atoms/cell      =            1
     number of atomic types    =            1
     number of electrons       =         9.00
     number of Kohn-Sham states=            9
     kinetic-energy cutoff     =      40.0000  Ry
     charge density cutoff     =     320.0000  Ry
     Exchange-correlation      = SLA  PW   PBE  PBE ( 1  4  3  4 0 0)

     celldm(1)=   9.862192  celldm(2)=   0.000000  celldm(3)=   0.000000
     celldm(4)=   0.000000  celldm(5)=   0.000000  celldm(6)=   0.000000

     crystal axes: (cart. coord. in units of alat)
               a(1) = (  -0.500000   0.000000   0.500000 )  
               a(2) = (   0.000000   0.500000   0.500000 )  
               a(3) = (  -0.500000   0.500000   0.000000 )  

     reciprocal axes: (cart. coord. in units 2 pi/alat)
               b(1) = ( -1.000000 -1.000000  1.000000 )  
               b(2) = (  1.000000  1.000000  1.000000 )  
               b(3) = ( -1.000000  1.000000 -1.000000 )  


     PseudoPot. # 1 for Na read from file:
     /home/s1333534/quantum_espresso/qe-6.1/pseudo/Na_pbe_v1.uspp.F.UPF
     MD5 check sum: 76a99c7e9422403d3e93cbc85ab7bccb
     Pseudo is Ultrasoft, Zval =  9.0
     Generated by new atomic code, or converted to UPF format
     Using radial grid of  819 points,  5 beta functions with: 
                l(1) =   0
                l(2) =   0
                l(3) =   1
                l(4) =   1
                l(5) =   2
     Q(r) pseudized with  8 coefficients,  rinner =    1.250   1.250   1.250
                                                       1.250   1.250

     atomic species   valence    mass     pseudopotential
        Na             9.00    22.99000     Na( 1.00)

     48 Sym. Ops., with inversion, found



   Cartesian axes

     site n.     atom                  positions (alat units)
         1           Na  tau(   1) = (   0.0000000   0.0000000   0.0000000  )

     number of k points=  4060  Marzari-Vanderbilt smearing, width (Ry)=  0.0200

     Number of k-points >= 100: set verbosity='high' to print them.

     Dense  grid:    23289 G-vectors     FFT dimensions: (  40,  40,  40)

     Smooth grid:     8099 G-vectors     FFT dimensions: (  30,  30,  30)

     Estimated max dynamical RAM per process >       2.18MB

     Estimated total allocated dynamical RAM >       8.71MB

     The potential is recalculated from file :
     ./_ph0/na.fcc.save/charge-density.dat

     Starting wfc are    5 atomic +    4 random wfc

     Band Structure Calculation
     Davidson diagonalization with overlap

     ethr =  1.11E-10,  avg # of iterations = 19.7

     total cpu time spent up to now is      133.3 secs

     End of band structure calculation

     Number of k-points >= 100: set verbosity='high' to print the bands.

     the Fermi energy is     1.7827 ev

     Writing output data file na.fcc.save

                                                                                

     bravais-lattice index     =            2
     lattice parameter (alat)  =       9.8622  a.u.
     unit-cell volume          =     239.8062 (a.u.)^3
     number of atoms/cell      =            1
     number of atomic types    =            1
     kinetic-energy cut-off    =      40.0000  Ry
     charge density cut-off    =     320.0000  Ry
     convergence threshold     =      1.0E-12
     beta                      =       0.7000
     number of iterations used =            4
     Exchange-correlation      = SLA  PW   PBE  PBE ( 1  4  3  4 0 0)


     celldm(1)=    9.86219  celldm(2)=    0.00000  celldm(3)=    0.00000
     celldm(4)=    0.00000  celldm(5)=    0.00000  celldm(6)=    0.00000

     crystal axes: (cart. coord. in units of alat)
               a(1) = ( -0.5000  0.0000  0.5000 )  
               a(2) = (  0.0000  0.5000  0.5000 )  
               a(3) = ( -0.5000  0.5000  0.0000 )  

     reciprocal axes: (cart. coord. in units 2 pi/alat)
               b(1) = ( -1.0000 -1.0000  1.0000 )  
               b(2) = (  1.0000  1.0000  1.0000 )  
               b(3) = ( -1.0000  1.0000 -1.0000 )  


     Atoms inside the unit cell: 

     Cartesian axes

     site n.  atom      mass           positions (alat units)
        1     Na  22.9900   tau(    1) = (    0.00000    0.00000    0.00000  )

     Computing dynamical matrix for 
                    q = (  -0.1250000   0.1250000  -0.1250000 )

      6 Sym.Ops. (no q -> -q+G )


     G cutoff =  788.3828  (   5822 G-vectors)     FFT grid: ( 40, 40, 40)
     G cutoff =  394.1914  (   2025 G-vectors)  smooth grid: ( 30, 30, 30)

     number of k points=  4060  Marzari-Vanderbilt smearing, width (Ry)=  0.0200

     PseudoPot. # 1 for Na read from file:
     /home/s1333534/quantum_espresso/qe-6.1/pseudo/Na_pbe_v1.uspp.F.UPF
     MD5 check sum: 76a99c7e9422403d3e93cbc85ab7bccb
     Pseudo is Ultrasoft, Zval =  9.0
     Generated by new atomic code, or converted to UPF format
     Using radial grid of  819 points,  5 beta functions with: 
                l(1) =   0
                l(2) =   0
                l(3) =   1
                l(4) =   1
                l(5) =   2
     Q(r) pseudized with  8 coefficients,  rinner =    1.250   1.250   1.250
                                                       1.250   1.250

     Mode symmetry, C_3v (3m)   point group:


     Atomic displacements:
     There are   2 irreducible representations

     Representation     1      1 modes -A_1  L_1  To be done

     Representation     2      2 modes -E    L_3  To be done



     Alpha used in Ewald sum =   2.8000
     PHONON       :  3m15.51s CPU     3m26.01s WALL



     Representation #  1 mode #   1

     Self-consistent Calculation

      iter #   1 total cpu time :   229.0 secs   av.it.:   5.7
      thresh= 1.000E-02 alpha_mix =  0.700 |ddv_scf|^2 =  2.228E-01

      iter #   2 total cpu time :   253.3 secs   av.it.:   7.0
      thresh= 1.000E-02 alpha_mix =  0.700 |ddv_scf|^2 =  1.223E+02

      iter #   3 total cpu time :   276.8 secs   av.it.:   7.0
      thresh= 1.000E-02 alpha_mix =  0.700 |ddv_scf|^2 =  4.491E-04

      iter #   4 total cpu time :   295.4 secs   av.it.:   5.0
      thresh= 2.119E-03 alpha_mix =  0.700 |ddv_scf|^2 =  1.772E-07

      iter #   5 total cpu time :   320.0 secs   av.it.:   7.3
      thresh= 4.209E-05 alpha_mix =  0.700 |ddv_scf|^2 =  5.974E-08

      iter #   6 total cpu time :   337.0 secs   av.it.:   4.4
      thresh= 2.444E-05 alpha_mix =  0.700 |ddv_scf|^2 =  2.716E-07

      iter #   7 total cpu time :   356.7 secs   av.it.:   5.4
      thresh= 5.211E-05 alpha_mix =  0.700 |ddv_scf|^2 =  6.102E-11

      iter #   8 total cpu time :   382.7 secs   av.it.:   7.8
      thresh= 7.811E-07 alpha_mix =  0.700 |ddv_scf|^2 =  1.196E-12

      iter #   9 total cpu time :   409.1 secs   av.it.:   8.2
      thresh= 1.094E-07 alpha_mix =  0.700 |ddv_scf|^2 =  5.023E-14

     End of self-consistent calculation

     Convergence has been achieved 


     Representation #  2 modes #   2  3

     Self-consistent Calculation

      iter #   1 total cpu time :   455.6 secs   av.it.:   5.5
      thresh= 1.000E-02 alpha_mix =  0.700 |ddv_scf|^2 =  3.325E-06

      iter #   2 total cpu time :   508.9 secs   av.it.:   8.3
      thresh= 1.823E-04 alpha_mix =  0.700 |ddv_scf|^2 =  6.148E-08

      iter #   3 total cpu time :   564.0 secs   av.it.:   8.5
      thresh= 2.480E-05 alpha_mix =  0.700 |ddv_scf|^2 =  1.339E-09

      iter #   4 total cpu time :   616.7 secs   av.it.:   8.1
      thresh= 3.659E-06 alpha_mix =  0.700 |ddv_scf|^2 =  4.492E-12

      iter #   5 total cpu time :   671.1 secs   av.it.:   8.6
      thresh= 2.119E-07 alpha_mix =  0.700 |ddv_scf|^2 =  9.002E-15

     End of self-consistent calculation

     Convergence has been achieved 

     Number of q in the star =    8
     List of q in the star:
          1  -0.125000000   0.125000000  -0.125000000
          2   0.125000000  -0.125000000  -0.125000000
          3   0.125000000  -0.125000000   0.125000000
          4  -0.125000000   0.125000000   0.125000000
          5   0.125000000   0.125000000  -0.125000000
          6  -0.125000000  -0.125000000  -0.125000000
          7  -0.125000000  -0.125000000   0.125000000
          8   0.125000000   0.125000000   0.125000000

     Diagonalizing the dynamical matrix

     q = (   -0.125000000   0.125000000  -0.125000000 ) 

 **************************************************************************
     freq (    1) =      -0.165657 [THz] =      -5.525715 [cm-1]
     freq (    2) =      -0.165657 [THz] =      -5.525715 [cm-1]
     freq (    3) =       1.994763 [THz] =      66.538139 [cm-1]
 **************************************************************************

     Mode symmetry, C_3v (3m)   point group:

     freq (  1 -  2) =         -5.5  [cm-1]   --> E    L_3           
     freq (  3 -  3) =         66.5  [cm-1]   --> A_1  L_1           

     Calculation of q =   -0.2500000   0.2500000  -0.2500000

   Info: using nr1, nr2, nr3 values from input

   Info: using nr1, nr2, nr3 values from input

     Parallelization info
     --------------------
     sticks:   dense  smooth     PW     G-vecs:    dense   smooth      PW
     Min         267     133     49                 5821     2024     451
     Max         268     134     50                 5825     2025     453
     Sum        1069     535    199                23289     8099    1807



     bravais-lattice index     =            2
     lattice parameter (alat)  =       9.8622  a.u.
     unit-cell volume          =     239.8062 (a.u.)^3
     number of atoms/cell      =            1
     number of atomic types    =            1
     number of electrons       =         9.00
     number of Kohn-Sham states=            9
     kinetic-energy cutoff     =      40.0000  Ry
     charge density cutoff     =     320.0000  Ry
     Exchange-correlation      = SLA  PW   PBE  PBE ( 1  4  3  4 0 0)

     celldm(1)=   9.862192  celldm(2)=   0.000000  celldm(3)=   0.000000
     celldm(4)=   0.000000  celldm(5)=   0.000000  celldm(6)=   0.000000

     crystal axes: (cart. coord. in units of alat)
               a(1) = (  -0.500000   0.000000   0.500000 )  
               a(2) = (   0.000000   0.500000   0.500000 )  
               a(3) = (  -0.500000   0.500000   0.000000 )  

     reciprocal axes: (cart. coord. in units 2 pi/alat)
               b(1) = ( -1.000000 -1.000000  1.000000 )  
               b(2) = (  1.000000  1.000000  1.000000 )  
               b(3) = ( -1.000000  1.000000 -1.000000 )  


     PseudoPot. # 1 for Na read from file:
     /home/s1333534/quantum_espresso/qe-6.1/pseudo/Na_pbe_v1.uspp.F.UPF
     MD5 check sum: 76a99c7e9422403d3e93cbc85ab7bccb
     Pseudo is Ultrasoft, Zval =  9.0
     Generated by new atomic code, or converted to UPF format
     Using radial grid of  819 points,  5 beta functions with: 
                l(1) =   0
                l(2) =   0
                l(3) =   1
                l(4) =   1
                l(5) =   2
     Q(r) pseudized with  8 coefficients,  rinner =    1.250   1.250   1.250
                                                       1.250   1.250

     atomic species   valence    mass     pseudopotential
        Na             9.00    22.99000     Na( 1.00)

     48 Sym. Ops., with inversion, found



   Cartesian axes

     site n.     atom                  positions (alat units)
         1           Na  tau(   1) = (   0.0000000   0.0000000   0.0000000  )

     number of k points=  4060  Marzari-Vanderbilt smearing, width (Ry)=  0.0200

     Number of k-points >= 100: set verbosity='high' to print them.

     Dense  grid:    23289 G-vectors     FFT dimensions: (  40,  40,  40)

     Smooth grid:     8099 G-vectors     FFT dimensions: (  30,  30,  30)

     Estimated max dynamical RAM per process >       2.18MB

     Estimated total allocated dynamical RAM >       8.71MB

     The potential is recalculated from file :
     ./_ph0/na.fcc.save/charge-density.dat

     Starting wfc are    5 atomic +    4 random wfc

     Band Structure Calculation
     Davidson diagonalization with overlap

     ethr =  1.11E-10,  avg # of iterations = 19.7

     total cpu time spent up to now is      269.1 secs

     End of band structure calculation

     Number of k-points >= 100: set verbosity='high' to print the bands.

     the Fermi energy is     1.7827 ev

     Writing output data file na.fcc.save

                                                                                

     bravais-lattice index     =            2
     lattice parameter (alat)  =       9.8622  a.u.
     unit-cell volume          =     239.8062 (a.u.)^3
     number of atoms/cell      =            1
     number of atomic types    =            1
     kinetic-energy cut-off    =      40.0000  Ry
     charge density cut-off    =     320.0000  Ry
     convergence threshold     =      1.0E-12
     beta                      =       0.7000
     number of iterations used =            4
     Exchange-correlation      = SLA  PW   PBE  PBE ( 1  4  3  4 0 0)


     celldm(1)=    9.86219  celldm(2)=    0.00000  celldm(3)=    0.00000
     celldm(4)=    0.00000  celldm(5)=    0.00000  celldm(6)=    0.00000

     crystal axes: (cart. coord. in units of alat)
               a(1) = ( -0.5000  0.0000  0.5000 )  
               a(2) = (  0.0000  0.5000  0.5000 )  
               a(3) = ( -0.5000  0.5000  0.0000 )  

     reciprocal axes: (cart. coord. in units 2 pi/alat)
               b(1) = ( -1.0000 -1.0000  1.0000 )  
               b(2) = (  1.0000  1.0000  1.0000 )  
               b(3) = ( -1.0000  1.0000 -1.0000 )  


     Atoms inside the unit cell: 

     Cartesian axes

     site n.  atom      mass           positions (alat units)
        1     Na  22.9900   tau(    1) = (    0.00000    0.00000    0.00000  )

     Computing dynamical matrix for 
                    q = (  -0.2500000   0.2500000  -0.2500000 )

      6 Sym.Ops. (no q -> -q+G )


     G cutoff =  788.3828  (   5822 G-vectors)     FFT grid: ( 40, 40, 40)
     G cutoff =  394.1914  (   2025 G-vectors)  smooth grid: ( 30, 30, 30)

     number of k points=  4060  Marzari-Vanderbilt smearing, width (Ry)=  0.0200

     PseudoPot. # 1 for Na read from file:
     /home/s1333534/quantum_espresso/qe-6.1/pseudo/Na_pbe_v1.uspp.F.UPF
     MD5 check sum: 76a99c7e9422403d3e93cbc85ab7bccb
     Pseudo is Ultrasoft, Zval =  9.0
     Generated by new atomic code, or converted to UPF format
     Using radial grid of  819 points,  5 beta functions with: 
                l(1) =   0
                l(2) =   0
                l(3) =   1
                l(4) =   1
                l(5) =   2
     Q(r) pseudized with  8 coefficients,  rinner =    1.250   1.250   1.250
                                                       1.250   1.250

     Mode symmetry, C_3v (3m)   point group:


     Atomic displacements:
     There are   2 irreducible representations

     Representation     1      1 modes -A_1  L_1  To be done

     Representation     2      2 modes -E    L_3  To be done



     Alpha used in Ewald sum =   2.8000
     PHONON       : 12m48.48s CPU    13m37.58s WALL



     Representation #  1 mode #   1

     Self-consistent Calculation

      iter #   1 total cpu time :   840.8 secs   av.it.:   5.7
      thresh= 1.000E-02 alpha_mix =  0.700 |ddv_scf|^2 =  3.565E-03

      iter #   2 total cpu time :   863.2 secs   av.it.:   6.1
      thresh= 5.971E-03 alpha_mix =  0.700 |ddv_scf|^2 =  9.622E-02

      iter #   3 total cpu time :   883.8 secs   av.it.:   5.7
      thresh= 1.000E-02 alpha_mix =  0.700 |ddv_scf|^2 =  2.533E-06

      iter #   4 total cpu time :   908.8 secs   av.it.:   7.4
      thresh= 1.591E-04 alpha_mix =  0.700 |ddv_scf|^2 =  1.266E-08

      iter #   5 total cpu time :   935.7 secs   av.it.:   8.2
      thresh= 1.125E-05 alpha_mix =  0.700 |ddv_scf|^2 =  1.184E-09

      iter #   6 total cpu time :   962.1 secs   av.it.:   7.9
      thresh= 3.441E-06 alpha_mix =  0.700 |ddv_scf|^2 =  2.735E-11

      iter #   7 total cpu time :   989.0 secs   av.it.:   8.1
      thresh= 5.230E-07 alpha_mix =  0.700 |ddv_scf|^2 =  9.470E-11

      iter #   8 total cpu time :  1009.8 secs   av.it.:   5.9
      thresh= 9.731E-07 alpha_mix =  0.700 |ddv_scf|^2 =  1.586E-11

      iter #   9 total cpu time :  1034.1 secs   av.it.:   7.0
      thresh= 3.983E-07 alpha_mix =  0.700 |ddv_scf|^2 =  2.593E-12

      iter #  10 total cpu time :  1057.6 secs   av.it.:   6.8
      thresh= 1.610E-07 alpha_mix =  0.700 |ddv_scf|^2 =  8.840E-14

     End of self-consistent calculation

     Convergence has been achieved 


     Representation #  2 modes #   2  3

     Self-consistent Calculation

      iter #   1 total cpu time :  1105.2 secs   av.it.:   5.6
      thresh= 1.000E-02 alpha_mix =  0.700 |ddv_scf|^2 =  3.400E-06

      iter #   2 total cpu time :  1159.3 secs   av.it.:   8.4
      thresh= 1.844E-04 alpha_mix =  0.700 |ddv_scf|^2 =  6.106E-08

      iter #   3 total cpu time :  1214.9 secs   av.it.:   8.6
      thresh= 2.471E-05 alpha_mix =  0.700 |ddv_scf|^2 =  1.574E-09

      iter #   4 total cpu time :  1268.8 secs   av.it.:   8.1
      thresh= 3.968E-06 alpha_mix =  0.700 |ddv_scf|^2 =  5.259E-12

      iter #   5 total cpu time :  1324.2 secs   av.it.:   8.6
      thresh= 2.293E-07 alpha_mix =  0.700 |ddv_scf|^2 =  9.127E-15

     End of self-consistent calculation

     Convergence has been achieved 

     Number of q in the star =    8
     List of q in the star:
          1  -0.250000000   0.250000000  -0.250000000
          2   0.250000000  -0.250000000  -0.250000000
          3   0.250000000  -0.250000000   0.250000000
          4  -0.250000000   0.250000000   0.250000000
          5   0.250000000   0.250000000  -0.250000000
          6  -0.250000000  -0.250000000  -0.250000000
          7  -0.250000000  -0.250000000   0.250000000
          8   0.250000000   0.250000000   0.250000000

     Diagonalizing the dynamical matrix

     q = (   -0.250000000   0.250000000  -0.250000000 ) 

 **************************************************************************
     freq (    1) =       0.941839 [THz] =      31.416361 [cm-1]
     freq (    2) =       0.941839 [THz] =      31.416361 [cm-1]
     freq (    3) =       3.032903 [THz] =     101.166765 [cm-1]
 **************************************************************************

     Mode symmetry, C_3v (3m)   point group:

     freq (  1 -  2) =         31.4  [cm-1]   --> E    L_3           
     freq (  3 -  3) =        101.2  [cm-1]   --> A_1  L_1           

     Calculation of q =   -0.3750000   0.3750000  -0.3750000

   Info: using nr1, nr2, nr3 values from input

   Info: using nr1, nr2, nr3 values from input

     Parallelization info
     --------------------
     sticks:   dense  smooth     PW     G-vecs:    dense   smooth      PW
     Min         267     133     49                 5821     2024     457
     Max         268     134     50                 5825     2025     460
     Sum        1069     535    199                23289     8099    1837



     bravais-lattice index     =            2
     lattice parameter (alat)  =       9.8622  a.u.
     unit-cell volume          =     239.8062 (a.u.)^3
     number of atoms/cell      =            1
     number of atomic types    =            1
     number of electrons       =         9.00
     number of Kohn-Sham states=            9
     kinetic-energy cutoff     =      40.0000  Ry
     charge density cutoff     =     320.0000  Ry
     Exchange-correlation      = SLA  PW   PBE  PBE ( 1  4  3  4 0 0)

     celldm(1)=   9.862192  celldm(2)=   0.000000  celldm(3)=   0.000000
     celldm(4)=   0.000000  celldm(5)=   0.000000  celldm(6)=   0.000000

     crystal axes: (cart. coord. in units of alat)
               a(1) = (  -0.500000   0.000000   0.500000 )  
               a(2) = (   0.000000   0.500000   0.500000 )  
               a(3) = (  -0.500000   0.500000   0.000000 )  

     reciprocal axes: (cart. coord. in units 2 pi/alat)
               b(1) = ( -1.000000 -1.000000  1.000000 )  
               b(2) = (  1.000000  1.000000  1.000000 )  
               b(3) = ( -1.000000  1.000000 -1.000000 )  


     PseudoPot. # 1 for Na read from file:
     /home/s1333534/quantum_espresso/qe-6.1/pseudo/Na_pbe_v1.uspp.F.UPF
     MD5 check sum: 76a99c7e9422403d3e93cbc85ab7bccb
     Pseudo is Ultrasoft, Zval =  9.0
     Generated by new atomic code, or converted to UPF format
     Using radial grid of  819 points,  5 beta functions with: 
                l(1) =   0
                l(2) =   0
                l(3) =   1
                l(4) =   1
                l(5) =   2
     Q(r) pseudized with  8 coefficients,  rinner =    1.250   1.250   1.250
                                                       1.250   1.250

     atomic species   valence    mass     pseudopotential
        Na             9.00    22.99000     Na( 1.00)

     48 Sym. Ops., with inversion, found



   Cartesian axes

     site n.     atom                  positions (alat units)
         1           Na  tau(   1) = (   0.0000000   0.0000000   0.0000000  )

     number of k points=  4060  Marzari-Vanderbilt smearing, width (Ry)=  0.0200

     Number of k-points >= 100: set verbosity='high' to print them.

     Dense  grid:    23289 G-vectors     FFT dimensions: (  40,  40,  40)

     Smooth grid:     8099 G-vectors     FFT dimensions: (  30,  30,  30)

     Estimated max dynamical RAM per process >       2.18MB

     Estimated total allocated dynamical RAM >       8.71MB

     The potential is recalculated from file :
     ./_ph0/na.fcc.save/charge-density.dat

     Starting wfc are    5 atomic +    4 random wfc

     Band Structure Calculation
     Davidson diagonalization with overlap

     ethr =  1.11E-10,  avg # of iterations = 19.7

     total cpu time spent up to now is      405.3 secs

     End of band structure calculation

     Number of k-points >= 100: set verbosity='high' to print the bands.

     the Fermi energy is     1.7827 ev

     Writing output data file na.fcc.save

                                                                                

     bravais-lattice index     =            2
     lattice parameter (alat)  =       9.8622  a.u.
     unit-cell volume          =     239.8062 (a.u.)^3
     number of atoms/cell      =            1
     number of atomic types    =            1
     kinetic-energy cut-off    =      40.0000  Ry
     charge density cut-off    =     320.0000  Ry
     convergence threshold     =      1.0E-12
     beta                      =       0.7000
     number of iterations used =            4
     Exchange-correlation      = SLA  PW   PBE  PBE ( 1  4  3  4 0 0)


     celldm(1)=    9.86219  celldm(2)=    0.00000  celldm(3)=    0.00000
     celldm(4)=    0.00000  celldm(5)=    0.00000  celldm(6)=    0.00000

     crystal axes: (cart. coord. in units of alat)
               a(1) = ( -0.5000  0.0000  0.5000 )  
               a(2) = (  0.0000  0.5000  0.5000 )  
               a(3) = ( -0.5000  0.5000  0.0000 )  

     reciprocal axes: (cart. coord. in units 2 pi/alat)
               b(1) = ( -1.0000 -1.0000  1.0000 )  
               b(2) = (  1.0000  1.0000  1.0000 )  
               b(3) = ( -1.0000  1.0000 -1.0000 )  


     Atoms inside the unit cell: 

     Cartesian axes

     site n.  atom      mass           positions (alat units)
        1     Na  22.9900   tau(    1) = (    0.00000    0.00000    0.00000  )

     Computing dynamical matrix for 
                    q = (  -0.3750000   0.3750000  -0.3750000 )

      6 Sym.Ops. (no q -> -q+G )


     G cutoff =  788.3828  (   5822 G-vectors)     FFT grid: ( 40, 40, 40)
     G cutoff =  394.1914  (   2025 G-vectors)  smooth grid: ( 30, 30, 30)

     number of k points=  4060  Marzari-Vanderbilt smearing, width (Ry)=  0.0200

     PseudoPot. # 1 for Na read from file:
     /home/s1333534/quantum_espresso/qe-6.1/pseudo/Na_pbe_v1.uspp.F.UPF
     MD5 check sum: 76a99c7e9422403d3e93cbc85ab7bccb
     Pseudo is Ultrasoft, Zval =  9.0
     Generated by new atomic code, or converted to UPF format
     Using radial grid of  819 points,  5 beta functions with: 
                l(1) =   0
                l(2) =   0
                l(3) =   1
                l(4) =   1
                l(5) =   2
     Q(r) pseudized with  8 coefficients,  rinner =    1.250   1.250   1.250
                                                       1.250   1.250

     Mode symmetry, C_3v (3m)   point group:


     Atomic displacements:
     There are   2 irreducible representations

     Representation     1      1 modes -A_1  L_1  To be done

     Representation     2      2 modes -E    L_3  To be done



     Alpha used in Ewald sum =   2.8000
     PHONON       : 22m59.42s CPU    24m31.28s WALL



     Representation #  1 mode #   1

     Self-consistent Calculation

      iter #   1 total cpu time :  1494.5 secs   av.it.:   5.7
      thresh= 1.000E-02 alpha_mix =  0.700 |ddv_scf|^2 =  3.562E-04

      iter #   2 total cpu time :  1518.0 secs   av.it.:   6.6
      thresh= 1.887E-03 alpha_mix =  0.700 |ddv_scf|^2 =  1.206E-03

      iter #   3 total cpu time :  1539.2 secs   av.it.:   6.0
      thresh= 3.473E-03 alpha_mix =  0.700 |ddv_scf|^2 =  5.746E-07

      iter #   4 total cpu time :  1565.3 secs   av.it.:   7.7
      thresh= 7.580E-05 alpha_mix =  0.700 |ddv_scf|^2 =  1.504E-08

      iter #   5 total cpu time :  1592.1 secs   av.it.:   8.1
      thresh= 1.226E-05 alpha_mix =  0.700 |ddv_scf|^2 =  3.696E-10

      iter #   6 total cpu time :  1618.6 secs   av.it.:   8.0
      thresh= 1.923E-06 alpha_mix =  0.700 |ddv_scf|^2 =  2.564E-11

      iter #   7 total cpu time :  1644.5 secs   av.it.:   7.7
      thresh= 5.064E-07 alpha_mix =  0.700 |ddv_scf|^2 =  1.496E-12

      iter #   8 total cpu time :  1670.9 secs   av.it.:   8.1
      thresh= 1.223E-07 alpha_mix =  0.700 |ddv_scf|^2 =  7.089E-14

     End of self-consistent calculation

     Convergence has been achieved 


     Representation #  2 modes #   2  3

     Self-consistent Calculation

      iter #   1 total cpu time :  1717.9 secs   av.it.:   5.6
      thresh= 1.000E-02 alpha_mix =  0.700 |ddv_scf|^2 =  3.472E-06

      iter #   2 total cpu time :  1771.8 secs   av.it.:   8.3
      thresh= 1.863E-04 alpha_mix =  0.700 |ddv_scf|^2 =  6.074E-08

      iter #   3 total cpu time :  1827.0 secs   av.it.:   8.6
      thresh= 2.465E-05 alpha_mix =  0.700 |ddv_scf|^2 =  1.786E-09

      iter #   4 total cpu time :  1880.6 secs   av.it.:   8.1
      thresh= 4.226E-06 alpha_mix =  0.700 |ddv_scf|^2 =  5.922E-12

      iter #   5 total cpu time :  1936.0 secs   av.it.:   8.7
      thresh= 2.434E-07 alpha_mix =  0.700 |ddv_scf|^2 =  9.387E-15

     End of self-consistent calculation

     Convergence has been achieved 

     Number of q in the star =    8
     List of q in the star:
          1  -0.375000000   0.375000000  -0.375000000
          2   0.375000000  -0.375000000  -0.375000000
          3   0.375000000  -0.375000000   0.375000000
          4  -0.375000000   0.375000000   0.375000000
          5   0.375000000   0.375000000  -0.375000000
          6  -0.375000000  -0.375000000  -0.375000000
          7  -0.375000000  -0.375000000   0.375000000
          8   0.375000000   0.375000000   0.375000000

     Diagonalizing the dynamical matrix

     q = (   -0.375000000   0.375000000  -0.375000000 ) 

 **************************************************************************
     freq (    1) =       1.371894 [THz] =      45.761451 [cm-1]
     freq (    2) =       1.371894 [THz] =      45.761451 [cm-1]
     freq (    3) =       3.881793 [THz] =     129.482672 [cm-1]
 **************************************************************************

     Mode symmetry, C_3v (3m)   point group:

     freq (  1 -  2) =         45.8  [cm-1]   --> E    L_3           
     freq (  3 -  3) =        129.5  [cm-1]   --> A_1  L_1           

     Calculation of q =    0.5000000  -0.5000000   0.5000000

   Info: using nr1, nr2, nr3 values from input

   Info: using nr1, nr2, nr3 values from input

     Parallelization info
     --------------------
     sticks:   dense  smooth     PW     G-vecs:    dense   smooth      PW
     Min         267     133     49                 5821     2024     477
     Max         268     135     50                 5825     2025     481
     Sum        1069     535    199                23289     8099    1917



     bravais-lattice index     =            2
     lattice parameter (alat)  =       9.8622  a.u.
     unit-cell volume          =     239.8062 (a.u.)^3
     number of atoms/cell      =            1
     number of atomic types    =            1
     number of electrons       =         9.00
     number of Kohn-Sham states=            9
     kinetic-energy cutoff     =      40.0000  Ry
     charge density cutoff     =     320.0000  Ry
     Exchange-correlation      = SLA  PW   PBE  PBE ( 1  4  3  4 0 0)

     celldm(1)=   9.862192  celldm(2)=   0.000000  celldm(3)=   0.000000
     celldm(4)=   0.000000  celldm(5)=   0.000000  celldm(6)=   0.000000

     crystal axes: (cart. coord. in units of alat)
               a(1) = (  -0.500000   0.000000   0.500000 )  
               a(2) = (   0.000000   0.500000   0.500000 )  
               a(3) = (  -0.500000   0.500000   0.000000 )  

     reciprocal axes: (cart. coord. in units 2 pi/alat)
               b(1) = ( -1.000000 -1.000000  1.000000 )  
               b(2) = (  1.000000  1.000000  1.000000 )  
               b(3) = ( -1.000000  1.000000 -1.000000 )  


     PseudoPot. # 1 for Na read from file:
     /home/s1333534/quantum_espresso/qe-6.1/pseudo/Na_pbe_v1.uspp.F.UPF
     MD5 check sum: 76a99c7e9422403d3e93cbc85ab7bccb
     Pseudo is Ultrasoft, Zval =  9.0
     Generated by new atomic code, or converted to UPF format
     Using radial grid of  819 points,  5 beta functions with: 
                l(1) =   0
                l(2) =   0
                l(3) =   1
                l(4) =   1
                l(5) =   2
     Q(r) pseudized with  8 coefficients,  rinner =    1.250   1.250   1.250
                                                       1.250   1.250

     atomic species   valence    mass     pseudopotential
        Na             9.00    22.99000     Na( 1.00)

     48 Sym. Ops., with inversion, found



   Cartesian axes

     site n.     atom                  positions (alat units)
         1           Na  tau(   1) = (   0.0000000   0.0000000   0.0000000  )

     number of k points=  2030  Marzari-Vanderbilt smearing, width (Ry)=  0.0200

     Number of k-points >= 100: set verbosity='high' to print them.

     Dense  grid:    23289 G-vectors     FFT dimensions: (  40,  40,  40)

     Smooth grid:     8099 G-vectors     FFT dimensions: (  30,  30,  30)

     Estimated max dynamical RAM per process >       2.18MB

     Estimated total allocated dynamical RAM >       8.71MB

     The potential is recalculated from file :
     ./_ph0/na.fcc.save/charge-density.dat

     Starting wfc are    5 atomic +    4 random wfc

     Band Structure Calculation
     Davidson diagonalization with overlap

     ethr =  1.11E-10,  avg # of iterations = 19.7

     total cpu time spent up to now is      474.7 secs

     End of band structure calculation

     Number of k-points >= 100: set verbosity='high' to print the bands.

     the Fermi energy is     1.7827 ev

     Writing output data file na.fcc.save

                                                                                

     bravais-lattice index     =            2
     lattice parameter (alat)  =       9.8622  a.u.
     unit-cell volume          =     239.8062 (a.u.)^3
     number of atoms/cell      =            1
     number of atomic types    =            1
     kinetic-energy cut-off    =      40.0000  Ry
     charge density cut-off    =     320.0000  Ry
     convergence threshold     =      1.0E-12
     beta                      =       0.7000
     number of iterations used =            4
     Exchange-correlation      = SLA  PW   PBE  PBE ( 1  4  3  4 0 0)


     celldm(1)=    9.86219  celldm(2)=    0.00000  celldm(3)=    0.00000
     celldm(4)=    0.00000  celldm(5)=    0.00000  celldm(6)=    0.00000

     crystal axes: (cart. coord. in units of alat)
               a(1) = ( -0.5000  0.0000  0.5000 )  
               a(2) = (  0.0000  0.5000  0.5000 )  
               a(3) = ( -0.5000  0.5000  0.0000 )  

     reciprocal axes: (cart. coord. in units 2 pi/alat)
               b(1) = ( -1.0000 -1.0000  1.0000 )  
               b(2) = (  1.0000  1.0000  1.0000 )  
               b(3) = ( -1.0000  1.0000 -1.0000 )  


     Atoms inside the unit cell: 

     Cartesian axes

     site n.  atom      mass           positions (alat units)
        1     Na  22.9900   tau(    1) = (    0.00000    0.00000    0.00000  )

     Computing dynamical matrix for 
                    q = (   0.5000000  -0.5000000   0.5000000 )

     13 Sym.Ops. (with q -> -q+G )


     G cutoff =  788.3828  (   5825 G-vectors)     FFT grid: ( 40, 40, 40)
     G cutoff =  394.1914  (   2025 G-vectors)  smooth grid: ( 30, 30, 30)

     number of k points=  2030  Marzari-Vanderbilt smearing, width (Ry)=  0.0200

     PseudoPot. # 1 for Na read from file:
     /home/s1333534/quantum_espresso/qe-6.1/pseudo/Na_pbe_v1.uspp.F.UPF
     MD5 check sum: 76a99c7e9422403d3e93cbc85ab7bccb
     Pseudo is Ultrasoft, Zval =  9.0
     Generated by new atomic code, or converted to UPF format
     Using radial grid of  819 points,  5 beta functions with: 
                l(1) =   0
                l(2) =   0
                l(3) =   1
                l(4) =   1
                l(5) =   2
     Q(r) pseudized with  8 coefficients,  rinner =    1.250   1.250   1.250
                                                       1.250   1.250

     Mode symmetry, D_3d (-3m)  point group:


     Atomic displacements:
     There are   2 irreducible representations

     Representation     1      1 modes -A_2u L_2'  To be done

     Representation     2      2 modes -E_u  L_3'  To be done



     Alpha used in Ewald sum =   2.8000
     PHONON       : 31m22.82s CPU    33m30.31s WALL



     Representation #  1 mode #   1

     Self-consistent Calculation

      iter #   1 total cpu time :  2022.1 secs   av.it.:   5.7
      thresh= 1.000E-02 alpha_mix =  0.700 |ddv_scf|^2 =  1.351E-04

      iter #   2 total cpu time :  2033.8 secs   av.it.:   6.8
      thresh= 1.162E-03 alpha_mix =  0.700 |ddv_scf|^2 =  8.356E-05

      iter #   3 total cpu time :  2045.3 secs   av.it.:   6.4
      thresh= 9.141E-04 alpha_mix =  0.700 |ddv_scf|^2 =  1.020E-07

      iter #   4 total cpu time :  2058.2 secs   av.it.:   7.8
      thresh= 3.194E-05 alpha_mix =  0.700 |ddv_scf|^2 =  4.116E-10

      iter #   5 total cpu time :  2069.9 secs   av.it.:   6.9
      thresh= 2.029E-06 alpha_mix =  0.700 |ddv_scf|^2 =  8.545E-12

      iter #   6 total cpu time :  2081.3 secs   av.it.:   6.5
      thresh= 2.923E-07 alpha_mix =  0.700 |ddv_scf|^2 =  2.310E-14

     End of self-consistent calculation

     Convergence has been achieved 


     Representation #  2 modes #   2  3

     Self-consistent Calculation

      iter #   1 total cpu time :  2104.1 secs   av.it.:   5.4
      thresh= 1.000E-02 alpha_mix =  0.700 |ddv_scf|^2 =  3.500E-06

      iter #   2 total cpu time :  2131.0 secs   av.it.:   8.1
      thresh= 1.871E-04 alpha_mix =  0.700 |ddv_scf|^2 =  6.058E-08

      iter #   3 total cpu time :  2159.1 secs   av.it.:   8.5
      thresh= 2.461E-05 alpha_mix =  0.700 |ddv_scf|^2 =  1.854E-09

      iter #   4 total cpu time :  2184.7 secs   av.it.:   7.7
      thresh= 4.306E-06 alpha_mix =  0.700 |ddv_scf|^2 =  6.214E-12

      iter #   5 total cpu time :  2211.8 secs   av.it.:   8.2
      thresh= 2.493E-07 alpha_mix =  0.700 |ddv_scf|^2 =  9.554E-15

     End of self-consistent calculation

     Convergence has been achieved 

     Number of q in the star =    4
     List of q in the star:
          1   0.500000000  -0.500000000   0.500000000
          2   0.500000000   0.500000000   0.500000000
          3  -0.500000000   0.500000000   0.500000000
          4   0.500000000   0.500000000  -0.500000000

     Diagonalizing the dynamical matrix

     q = (    0.500000000  -0.500000000   0.500000000 ) 

 **************************************************************************
     freq (    1) =       1.580531 [THz] =      52.720824 [cm-1]
     freq (    2) =       1.580531 [THz] =      52.720824 [cm-1]
     freq (    3) =       4.218231 [THz] =     140.705053 [cm-1]
 **************************************************************************

     Mode symmetry, D_3d (-3m)  point group:

     freq (  1 -  2) =         52.7  [cm-1]   --> E_u  L_3'          
     freq (  3 -  3) =        140.7  [cm-1]   --> A_2u L_2'          

     Calculation of q =    0.0000000   0.2500000   0.0000000

   Info: using nr1, nr2, nr3 values from input

   Info: using nr1, nr2, nr3 values from input

     Parallelization info
     --------------------
     sticks:   dense  smooth     PW     G-vecs:    dense   smooth      PW
     Min         267     133     46                 5821     2024     420
     Max         268     135     47                 5825     2025     423
     Sum        1069     535    187                23289     8099    1687



     bravais-lattice index     =            2
     lattice parameter (alat)  =       9.8622  a.u.
     unit-cell volume          =     239.8062 (a.u.)^3
     number of atoms/cell      =            1
     number of atomic types    =            1
     number of electrons       =         9.00
     number of Kohn-Sham states=            9
     kinetic-energy cutoff     =      40.0000  Ry
     charge density cutoff     =     320.0000  Ry
     Exchange-correlation      = SLA  PW   PBE  PBE ( 1  4  3  4 0 0)

     celldm(1)=   9.862192  celldm(2)=   0.000000  celldm(3)=   0.000000
     celldm(4)=   0.000000  celldm(5)=   0.000000  celldm(6)=   0.000000

     crystal axes: (cart. coord. in units of alat)
               a(1) = (  -0.500000   0.000000   0.500000 )  
               a(2) = (   0.000000   0.500000   0.500000 )  
               a(3) = (  -0.500000   0.500000   0.000000 )  

     reciprocal axes: (cart. coord. in units 2 pi/alat)
               b(1) = ( -1.000000 -1.000000  1.000000 )  
               b(2) = (  1.000000  1.000000  1.000000 )  
               b(3) = ( -1.000000  1.000000 -1.000000 )  


     PseudoPot. # 1 for Na read from file:
     /home/s1333534/quantum_espresso/qe-6.1/pseudo/Na_pbe_v1.uspp.F.UPF
     MD5 check sum: 76a99c7e9422403d3e93cbc85ab7bccb
     Pseudo is Ultrasoft, Zval =  9.0
     Generated by new atomic code, or converted to UPF format
     Using radial grid of  819 points,  5 beta functions with: 
                l(1) =   0
                l(2) =   0
                l(3) =   1
                l(4) =   1
                l(5) =   2
     Q(r) pseudized with  8 coefficients,  rinner =    1.250   1.250   1.250
                                                       1.250   1.250

     atomic species   valence    mass     pseudopotential
        Na             9.00    22.99000     Na( 1.00)

     48 Sym. Ops., with inversion, found



   Cartesian axes

     site n.     atom                  positions (alat units)
         1           Na  tau(   1) = (   0.0000000   0.0000000   0.0000000  )

     number of k points=  2940  Marzari-Vanderbilt smearing, width (Ry)=  0.0200

     Number of k-points >= 100: set verbosity='high' to print them.

     Dense  grid:    23289 G-vectors     FFT dimensions: (  40,  40,  40)

     Smooth grid:     8099 G-vectors     FFT dimensions: (  30,  30,  30)

     Estimated max dynamical RAM per process >       2.18MB

     Estimated total allocated dynamical RAM >       8.71MB

     The potential is recalculated from file :
     ./_ph0/na.fcc.save/charge-density.dat

     Starting wfc are    5 atomic +    4 random wfc

     Band Structure Calculation
     Davidson diagonalization with overlap

     ethr =  1.11E-10,  avg # of iterations = 19.6

     total cpu time spent up to now is      571.4 secs

     End of band structure calculation

     Number of k-points >= 100: set verbosity='high' to print the bands.

     the Fermi energy is     1.7827 ev

     Writing output data file na.fcc.save

                                                                                

     bravais-lattice index     =            2
     lattice parameter (alat)  =       9.8622  a.u.
     unit-cell volume          =     239.8062 (a.u.)^3
     number of atoms/cell      =            1
     number of atomic types    =            1
     kinetic-energy cut-off    =      40.0000  Ry
     charge density cut-off    =     320.0000  Ry
     convergence threshold     =      1.0E-12
     beta                      =       0.7000
     number of iterations used =            4
     Exchange-correlation      = SLA  PW   PBE  PBE ( 1  4  3  4 0 0)


     celldm(1)=    9.86219  celldm(2)=    0.00000  celldm(3)=    0.00000
     celldm(4)=    0.00000  celldm(5)=    0.00000  celldm(6)=    0.00000

     crystal axes: (cart. coord. in units of alat)
               a(1) = ( -0.5000  0.0000  0.5000 )  
               a(2) = (  0.0000  0.5000  0.5000 )  
               a(3) = ( -0.5000  0.5000  0.0000 )  

     reciprocal axes: (cart. coord. in units 2 pi/alat)
               b(1) = ( -1.0000 -1.0000  1.0000 )  
               b(2) = (  1.0000  1.0000  1.0000 )  
               b(3) = ( -1.0000  1.0000 -1.0000 )  


     Atoms inside the unit cell: 

     Cartesian axes

     site n.  atom      mass           positions (alat units)
        1     Na  22.9900   tau(    1) = (    0.00000    0.00000    0.00000  )

     Computing dynamical matrix for 
                    q = (   0.0000000   0.2500000   0.0000000 )

      8 Sym.Ops. (no q -> -q+G )


     G cutoff =  788.3828  (   5822 G-vectors)     FFT grid: ( 40, 40, 40)
     G cutoff =  394.1914  (   2025 G-vectors)  smooth grid: ( 30, 30, 30)

     number of k points=  2940  Marzari-Vanderbilt smearing, width (Ry)=  0.0200

     PseudoPot. # 1 for Na read from file:
     /home/s1333534/quantum_espresso/qe-6.1/pseudo/Na_pbe_v1.uspp.F.UPF
     MD5 check sum: 76a99c7e9422403d3e93cbc85ab7bccb
     Pseudo is Ultrasoft, Zval =  9.0
     Generated by new atomic code, or converted to UPF format
     Using radial grid of  819 points,  5 beta functions with: 
                l(1) =   0
                l(2) =   0
                l(3) =   1
                l(4) =   1
                l(5) =   2
     Q(r) pseudized with  8 coefficients,  rinner =    1.250   1.250   1.250
                                                       1.250   1.250

     Mode symmetry, C_4v (4mm)  point group:


     Atomic displacements:
     There are   2 irreducible representations

     Representation     1      1 modes -A_1  G_1 D_1  To be done

     Representation     2      2 modes -E    G_5 D_5  To be done



     Alpha used in Ewald sum =   2.8000
     PHONON       : 36m10.85s CPU    38m36.94s WALL



     Representation #  1 mode #   1

     Self-consistent Calculation

      iter #   1 total cpu time :  2333.5 secs   av.it.:   5.7
      thresh= 1.000E-02 alpha_mix =  0.700 |ddv_scf|^2 =  9.729E-02

      iter #   2 total cpu time :  2350.2 secs   av.it.:   6.8
      thresh= 1.000E-02 alpha_mix =  0.700 |ddv_scf|^2 =  3.032E+01

      iter #   3 total cpu time :  2367.1 secs   av.it.:   6.8
      thresh= 1.000E-02 alpha_mix =  0.700 |ddv_scf|^2 =  3.610E-05

      iter #   4 total cpu time :  2382.7 secs   av.it.:   6.2
      thresh= 6.008E-04 alpha_mix =  0.700 |ddv_scf|^2 =  1.477E-07

      iter #   5 total cpu time :  2400.1 secs   av.it.:   7.3
      thresh= 3.844E-05 alpha_mix =  0.700 |ddv_scf|^2 =  3.556E-09

      iter #   6 total cpu time :  2418.2 secs   av.it.:   7.5
      thresh= 5.963E-06 alpha_mix =  0.700 |ddv_scf|^2 =  3.923E-09

      iter #   7 total cpu time :  2431.2 secs   av.it.:   4.8
      thresh= 6.263E-06 alpha_mix =  0.700 |ddv_scf|^2 =  6.114E-09

      iter #   8 total cpu time :  2446.5 secs   av.it.:   6.1
      thresh= 7.819E-06 alpha_mix =  0.700 |ddv_scf|^2 =  1.665E-12

      iter #   9 total cpu time :  2465.7 secs   av.it.:   8.1
      thresh= 1.290E-07 alpha_mix =  0.700 |ddv_scf|^2 =  3.473E-13

     End of self-consistent calculation

     Convergence has been achieved 


     Representation #  2 modes #   2  3

     Self-consistent Calculation

      iter #   1 total cpu time :  2498.6 secs   av.it.:   5.5
      thresh= 1.000E-02 alpha_mix =  0.700 |ddv_scf|^2 =  3.426E-06

      iter #   2 total cpu time :  2537.7 secs   av.it.:   8.3
      thresh= 1.851E-04 alpha_mix =  0.700 |ddv_scf|^2 =  6.037E-08

      iter #   3 total cpu time :  2577.6 secs   av.it.:   8.5
      thresh= 2.457E-05 alpha_mix =  0.700 |ddv_scf|^2 =  1.712E-09

      iter #   4 total cpu time :  2615.8 secs   av.it.:   8.1
      thresh= 4.138E-06 alpha_mix =  0.700 |ddv_scf|^2 =  5.564E-12

      iter #   5 total cpu time :  2655.3 secs   av.it.:   8.5
      thresh= 2.359E-07 alpha_mix =  0.700 |ddv_scf|^2 =  8.340E-15

     End of self-consistent calculation

     Convergence has been achieved 

     Number of q in the star =    6
     List of q in the star:
          1   0.000000000   0.250000000   0.000000000
          2   0.000000000  -0.250000000   0.000000000
          3   0.250000000   0.000000000   0.000000000
          4   0.000000000   0.000000000   0.250000000
          5   0.000000000   0.000000000  -0.250000000
          6  -0.250000000   0.000000000   0.000000000

     Diagonalizing the dynamical matrix

     q = (    0.000000000   0.250000000   0.000000000 ) 

 **************************************************************************
     freq (    1) =       0.934052 [THz] =      31.156634 [cm-1]
     freq (    2) =       0.934052 [THz] =      31.156634 [cm-1]
     freq (    3) =       1.841490 [THz] =      61.425479 [cm-1]
 **************************************************************************

     Mode symmetry, C_4v (4mm)  point group:

     freq (  1 -  2) =         31.2  [cm-1]   --> E    G_5 D_5       
     freq (  3 -  3) =         61.4  [cm-1]   --> A_1  G_1 D_1       

     Calculation of q =   -0.1250000   0.3750000  -0.1250000

   Info: using nr1, nr2, nr3 values from input

   Info: using nr1, nr2, nr3 values from input

     Parallelization info
     --------------------
     sticks:   dense  smooth     PW     G-vecs:    dense   smooth      PW
     Min         267     133     49                 5821     2024     451
     Max         268     134     50                 5825     2025     453
     Sum        1069     535    199                23289     8099    1807



     bravais-lattice index     =            2
     lattice parameter (alat)  =       9.8622  a.u.
     unit-cell volume          =     239.8062 (a.u.)^3
     number of atoms/cell      =            1
     number of atomic types    =            1
     number of electrons       =         9.00
     number of Kohn-Sham states=            9
     kinetic-energy cutoff     =      40.0000  Ry
     charge density cutoff     =     320.0000  Ry
     Exchange-correlation      = SLA  PW   PBE  PBE ( 1  4  3  4 0 0)

     celldm(1)=   9.862192  celldm(2)=   0.000000  celldm(3)=   0.000000
     celldm(4)=   0.000000  celldm(5)=   0.000000  celldm(6)=   0.000000

     crystal axes: (cart. coord. in units of alat)
               a(1) = (  -0.500000   0.000000   0.500000 )  
               a(2) = (   0.000000   0.500000   0.500000 )  
               a(3) = (  -0.500000   0.500000   0.000000 )  

     reciprocal axes: (cart. coord. in units 2 pi/alat)
               b(1) = ( -1.000000 -1.000000  1.000000 )  
               b(2) = (  1.000000  1.000000  1.000000 )  
               b(3) = ( -1.000000  1.000000 -1.000000 )  


     PseudoPot. # 1 for Na read from file:
     /home/s1333534/quantum_espresso/qe-6.1/pseudo/Na_pbe_v1.uspp.F.UPF
     MD5 check sum: 76a99c7e9422403d3e93cbc85ab7bccb
     Pseudo is Ultrasoft, Zval =  9.0
     Generated by new atomic code, or converted to UPF format
     Using radial grid of  819 points,  5 beta functions with: 
                l(1) =   0
                l(2) =   0
                l(3) =   1
                l(4) =   1
                l(5) =   2
     Q(r) pseudized with  8 coefficients,  rinner =    1.250   1.250   1.250
                                                       1.250   1.250

     atomic species   valence    mass     pseudopotential
        Na             9.00    22.99000     Na( 1.00)

     48 Sym. Ops., with inversion, found



   Cartesian axes

     site n.     atom                  positions (alat units)
         1           Na  tau(   1) = (   0.0000000   0.0000000   0.0000000  )

     number of k points= 11368  Marzari-Vanderbilt smearing, width (Ry)=  0.0200

     Number of k-points >= 100: set verbosity='high' to print them.

     Dense  grid:    23289 G-vectors     FFT dimensions: (  40,  40,  40)

     Smooth grid:     8099 G-vectors     FFT dimensions: (  30,  30,  30)

     Estimated max dynamical RAM per process >       2.18MB

     Estimated total allocated dynamical RAM >       8.71MB

     The potential is recalculated from file :
     ./_ph0/na.fcc.save/charge-density.dat

     Starting wfc are    5 atomic +    4 random wfc

     Band Structure Calculation
     Davidson diagonalization with overlap

     ethr =  1.11E-10,  avg # of iterations = 19.6

     total cpu time spent up to now is      949.0 secs

     End of band structure calculation

     Number of k-points >= 100: set verbosity='high' to print the bands.

     the Fermi energy is     1.7827 ev

     Writing output data file na.fcc.save

                                                                                

     bravais-lattice index     =            2
     lattice parameter (alat)  =       9.8622  a.u.
     unit-cell volume          =     239.8062 (a.u.)^3
     number of atoms/cell      =            1
     number of atomic types    =            1
     kinetic-energy cut-off    =      40.0000  Ry
     charge density cut-off    =     320.0000  Ry
     convergence threshold     =      1.0E-12
     beta                      =       0.7000
     number of iterations used =            4
     Exchange-correlation      = SLA  PW   PBE  PBE ( 1  4  3  4 0 0)


     celldm(1)=    9.86219  celldm(2)=    0.00000  celldm(3)=    0.00000
     celldm(4)=    0.00000  celldm(5)=    0.00000  celldm(6)=    0.00000

     crystal axes: (cart. coord. in units of alat)
               a(1) = ( -0.5000  0.0000  0.5000 )  
               a(2) = (  0.0000  0.5000  0.5000 )  
               a(3) = ( -0.5000  0.5000  0.0000 )  

     reciprocal axes: (cart. coord. in units 2 pi/alat)
               b(1) = ( -1.0000 -1.0000  1.0000 )  
               b(2) = (  1.0000  1.0000  1.0000 )  
               b(3) = ( -1.0000  1.0000 -1.0000 )  


     Atoms inside the unit cell: 

     Cartesian axes

     site n.  atom      mass           positions (alat units)
        1     Na  22.9900   tau(    1) = (    0.00000    0.00000    0.00000  )

     Computing dynamical matrix for 
                    q = (  -0.1250000   0.3750000  -0.1250000 )

      2 Sym.Ops. (no q -> -q+G )


     G cutoff =  788.3828  (   5822 G-vectors)     FFT grid: ( 40, 40, 40)
     G cutoff =  394.1914  (   2025 G-vectors)  smooth grid: ( 30, 30, 30)

     number of k points= 11368  Marzari-Vanderbilt smearing, width (Ry)=  0.0200

     PseudoPot. # 1 for Na read from file:
     /home/s1333534/quantum_espresso/qe-6.1/pseudo/Na_pbe_v1.uspp.F.UPF
     MD5 check sum: 76a99c7e9422403d3e93cbc85ab7bccb
     Pseudo is Ultrasoft, Zval =  9.0
     Generated by new atomic code, or converted to UPF format
     Using radial grid of  819 points,  5 beta functions with: 
                l(1) =   0
                l(2) =   0
                l(3) =   1
                l(4) =   1
                l(5) =   2
     Q(r) pseudized with  8 coefficients,  rinner =    1.250   1.250   1.250
                                                       1.250   1.250

     Mode symmetry, C_s (m)     point group:


     Atomic displacements:
     There are   3 irreducible representations

     Representation     1      1 modes -A'  To be done

     Representation     2      1 modes -A'  To be done

     Representation     3      1 modes -A''  To be done



     Alpha used in Ewald sum =   2.8000
     PHONON       : 47m58.91s CPU    51m 7.12s WALL



     Representation #  1 mode #   1

     Self-consistent Calculation

      iter #   1 total cpu time :  3133.5 secs   av.it.:   5.8
      thresh= 1.000E-02 alpha_mix =  0.700 |ddv_scf|^2 =  4.033E-03

      iter #   2 total cpu time :  3195.3 secs   av.it.:   6.2
      thresh= 6.350E-03 alpha_mix =  0.700 |ddv_scf|^2 =  1.340E-01

      iter #   3 total cpu time :  3253.8 secs   av.it.:   5.8
      thresh= 1.000E-02 alpha_mix =  0.700 |ddv_scf|^2 =  2.365E-06

      iter #   4 total cpu time :  3323.9 secs   av.it.:   7.5
      thresh= 1.538E-04 alpha_mix =  0.700 |ddv_scf|^2 =  1.700E-08

      iter #   5 total cpu time :  3398.7 secs   av.it.:   8.0
      thresh= 1.304E-05 alpha_mix =  0.700 |ddv_scf|^2 =  1.610E-09

      iter #   6 total cpu time :  3472.4 secs   av.it.:   7.8
      thresh= 4.013E-06 alpha_mix =  0.700 |ddv_scf|^2 =  7.355E-11

      iter #   7 total cpu time :  3548.2 secs   av.it.:   8.0
      thresh= 8.576E-07 alpha_mix =  0.700 |ddv_scf|^2 =  7.584E-10

      iter #   8 total cpu time :  3604.6 secs   av.it.:   5.4
      thresh= 2.754E-06 alpha_mix =  0.700 |ddv_scf|^2 =  8.632E-13

     End of self-consistent calculation

     Convergence has been achieved 


     Representation #  2 mode #   2

     Self-consistent Calculation

      iter #   1 total cpu time :  3674.2 secs   av.it.:   5.7
      thresh= 1.000E-02 alpha_mix =  0.700 |ddv_scf|^2 =  6.216E-04

      iter #   2 total cpu time :  3741.8 secs   av.it.:   6.8
      thresh= 2.493E-03 alpha_mix =  0.700 |ddv_scf|^2 =  2.024E-02

      iter #   3 total cpu time :  3795.1 secs   av.it.:   4.8
      thresh= 1.000E-02 alpha_mix =  0.700 |ddv_scf|^2 =  2.577E-07

      iter #   4 total cpu time :  3872.3 secs   av.it.:   8.3
      thresh= 5.076E-05 alpha_mix =  0.700 |ddv_scf|^2 =  9.950E-09

      iter #   5 total cpu time :  3946.5 secs   av.it.:   7.9
      thresh= 9.975E-06 alpha_mix =  0.700 |ddv_scf|^2 =  3.801E-10

      iter #   6 total cpu time :  4021.1 secs   av.it.:   7.9
      thresh= 1.950E-06 alpha_mix =  0.700 |ddv_scf|^2 =  2.863E-11

      iter #   7 total cpu time :  4095.3 secs   av.it.:   7.9
      thresh= 5.351E-07 alpha_mix =  0.700 |ddv_scf|^2 =  2.157E-10

      iter #   8 total cpu time :  4158.2 secs   av.it.:   6.2
      thresh= 1.469E-06 alpha_mix =  0.700 |ddv_scf|^2 =  4.826E-11

      iter #   9 total cpu time :  4221.4 secs   av.it.:   6.4
      thresh= 6.947E-07 alpha_mix =  0.700 |ddv_scf|^2 =  1.007E-11

      iter #  10 total cpu time :  4289.5 secs   av.it.:   7.0
      thresh= 3.174E-07 alpha_mix =  0.700 |ddv_scf|^2 =  1.962E-14

     End of self-consistent calculation

     Convergence has been achieved 


     Representation #  3 mode #   3

     Self-consistent Calculation

      iter #   1 total cpu time :  4355.7 secs   av.it.:   5.4
      thresh= 1.000E-02 alpha_mix =  0.700 |ddv_scf|^2 =  1.426E-05

      iter #   2 total cpu time :  4429.4 secs   av.it.:   7.7
      thresh= 3.777E-04 alpha_mix =  0.700 |ddv_scf|^2 =  2.371E-07

      iter #   3 total cpu time :  4504.0 secs   av.it.:   7.9
      thresh= 4.869E-05 alpha_mix =  0.700 |ddv_scf|^2 =  9.083E-09

      iter #   4 total cpu time :  4575.7 secs   av.it.:   7.5
      thresh= 9.531E-06 alpha_mix =  0.700 |ddv_scf|^2 =  2.907E-11

      iter #   5 total cpu time :  4650.1 secs   av.it.:   7.8
      thresh= 5.392E-07 alpha_mix =  0.700 |ddv_scf|^2 =  3.266E-14

     End of self-consistent calculation

     Convergence has been achieved 

     Number of q in the star =   24
     List of q in the star:
          1  -0.125000000   0.375000000  -0.125000000
          2  -0.125000000   0.375000000   0.125000000
          3   0.125000000   0.375000000  -0.125000000
          4   0.125000000   0.375000000   0.125000000
          5   0.125000000  -0.375000000   0.125000000
          6   0.375000000  -0.125000000   0.125000000
          7   0.125000000  -0.125000000   0.375000000
          8  -0.125000000  -0.375000000  -0.125000000
          9   0.125000000  -0.375000000  -0.125000000
         10  -0.125000000  -0.375000000   0.125000000
         11   0.125000000  -0.125000000  -0.375000000
         12   0.375000000  -0.125000000  -0.125000000
         13  -0.375000000  -0.125000000   0.125000000
         14   0.375000000   0.125000000   0.125000000
         15  -0.125000000  -0.125000000   0.375000000
         16   0.125000000   0.125000000   0.375000000
         17  -0.375000000   0.125000000  -0.125000000
         18  -0.125000000   0.125000000  -0.375000000
         19  -0.375000000  -0.125000000  -0.125000000
         20   0.125000000   0.125000000  -0.375000000
         21   0.375000000   0.125000000  -0.125000000
         22  -0.125000000  -0.125000000  -0.375000000
         23  -0.375000000   0.125000000   0.125000000
         24  -0.125000000   0.125000000   0.375000000

     Diagonalizing the dynamical matrix

     q = (   -0.125000000   0.375000000  -0.125000000 ) 

 **************************************************************************
     freq (    1) =       1.477804 [THz] =      49.294233 [cm-1]
     freq (    2) =       1.774085 [THz] =      59.177119 [cm-1]
     freq (    3) =       3.290462 [THz] =     109.758013 [cm-1]
 **************************************************************************

     Mode symmetry, C_s (m)     point group:

     freq (  1 -  1) =         49.3  [cm-1]   --> A''                
     freq (  2 -  2) =         59.2  [cm-1]   --> A'                 
     freq (  3 -  3) =        109.8  [cm-1]   --> A'                 

     Calculation of q =   -0.2500000   0.5000000  -0.2500000

   Info: using nr1, nr2, nr3 values from input

   Info: using nr1, nr2, nr3 values from input

     Parallelization info
     --------------------
     sticks:   dense  smooth     PW     G-vecs:    dense   smooth      PW
     Min         267     133     49                 5821     2024     457
     Max         268     134     50                 5825     2025     460
     Sum        1069     535    199                23289     8099    1837



     bravais-lattice index     =            2
     lattice parameter (alat)  =       9.8622  a.u.
     unit-cell volume          =     239.8062 (a.u.)^3
     number of atoms/cell      =            1
     number of atomic types    =            1
     number of electrons       =         9.00
     number of Kohn-Sham states=            9
     kinetic-energy cutoff     =      40.0000  Ry
     charge density cutoff     =     320.0000  Ry
     Exchange-correlation      = SLA  PW   PBE  PBE ( 1  4  3  4 0 0)

     celldm(1)=   9.862192  celldm(2)=   0.000000  celldm(3)=   0.000000
     celldm(4)=   0.000000  celldm(5)=   0.000000  celldm(6)=   0.000000

     crystal axes: (cart. coord. in units of alat)
               a(1) = (  -0.500000   0.000000   0.500000 )  
               a(2) = (   0.000000   0.500000   0.500000 )  
               a(3) = (  -0.500000   0.500000   0.000000 )  

     reciprocal axes: (cart. coord. in units 2 pi/alat)
               b(1) = ( -1.000000 -1.000000  1.000000 )  
               b(2) = (  1.000000  1.000000  1.000000 )  
               b(3) = ( -1.000000  1.000000 -1.000000 )  


     PseudoPot. # 1 for Na read from file:
     /home/s1333534/quantum_espresso/qe-6.1/pseudo/Na_pbe_v1.uspp.F.UPF
     MD5 check sum: 76a99c7e9422403d3e93cbc85ab7bccb
     Pseudo is Ultrasoft, Zval =  9.0
     Generated by new atomic code, or converted to UPF format
     Using radial grid of  819 points,  5 beta functions with: 
                l(1) =   0
                l(2) =   0
                l(3) =   1
                l(4) =   1
                l(5) =   2
     Q(r) pseudized with  8 coefficients,  rinner =    1.250   1.250   1.250
                                                       1.250   1.250

     atomic species   valence    mass     pseudopotential
        Na             9.00    22.99000     Na( 1.00)

     48 Sym. Ops., with inversion, found



   Cartesian axes

     site n.     atom                  positions (alat units)
         1           Na  tau(   1) = (   0.0000000   0.0000000   0.0000000  )

     number of k points= 11368  Marzari-Vanderbilt smearing, width (Ry)=  0.0200

     Number of k-points >= 100: set verbosity='high' to print them.

     Dense  grid:    23289 G-vectors     FFT dimensions: (  40,  40,  40)

     Smooth grid:     8099 G-vectors     FFT dimensions: (  30,  30,  30)

     Estimated max dynamical RAM per process >       2.18MB

     Estimated total allocated dynamical RAM >       8.71MB

     The potential is recalculated from file :
     ./_ph0/na.fcc.save/charge-density.dat

     Starting wfc are    5 atomic +    4 random wfc

     Band Structure Calculation
     Davidson diagonalization with overlap

     ethr =  1.11E-10,  avg # of iterations = 19.6

     total cpu time spent up to now is     1328.8 secs

     End of band structure calculation

     Number of k-points >= 100: set verbosity='high' to print the bands.

     the Fermi energy is     1.7827 ev

     Writing output data file na.fcc.save

                                                                                

     bravais-lattice index     =            2
     lattice parameter (alat)  =       9.8622  a.u.
     unit-cell volume          =     239.8062 (a.u.)^3
     number of atoms/cell      =            1
     number of atomic types    =            1
     kinetic-energy cut-off    =      40.0000  Ry
     charge density cut-off    =     320.0000  Ry
     convergence threshold     =      1.0E-12
     beta                      =       0.7000
     number of iterations used =            4
     Exchange-correlation      = SLA  PW   PBE  PBE ( 1  4  3  4 0 0)


     celldm(1)=    9.86219  celldm(2)=    0.00000  celldm(3)=    0.00000
     celldm(4)=    0.00000  celldm(5)=    0.00000  celldm(6)=    0.00000

     crystal axes: (cart. coord. in units of alat)
               a(1) = ( -0.5000  0.0000  0.5000 )  
               a(2) = (  0.0000  0.5000  0.5000 )  
               a(3) = ( -0.5000  0.5000  0.0000 )  

     reciprocal axes: (cart. coord. in units 2 pi/alat)
               b(1) = ( -1.0000 -1.0000  1.0000 )  
               b(2) = (  1.0000  1.0000  1.0000 )  
               b(3) = ( -1.0000  1.0000 -1.0000 )  


     Atoms inside the unit cell: 

     Cartesian axes

     site n.  atom      mass           positions (alat units)
        1     Na  22.9900   tau(    1) = (    0.00000    0.00000    0.00000  )

     Computing dynamical matrix for 
                    q = (  -0.2500000   0.5000000  -0.2500000 )

      2 Sym.Ops. (no q -> -q+G )


     G cutoff =  788.3828  (   5822 G-vectors)     FFT grid: ( 40, 40, 40)
     G cutoff =  394.1914  (   2025 G-vectors)  smooth grid: ( 30, 30, 30)

     number of k points= 11368  Marzari-Vanderbilt smearing, width (Ry)=  0.0200

     PseudoPot. # 1 for Na read from file:
     /home/s1333534/quantum_espresso/qe-6.1/pseudo/Na_pbe_v1.uspp.F.UPF
     MD5 check sum: 76a99c7e9422403d3e93cbc85ab7bccb
     Pseudo is Ultrasoft, Zval =  9.0
     Generated by new atomic code, or converted to UPF format
     Using radial grid of  819 points,  5 beta functions with: 
                l(1) =   0
                l(2) =   0
                l(3) =   1
                l(4) =   1
                l(5) =   2
     Q(r) pseudized with  8 coefficients,  rinner =    1.250   1.250   1.250
                                                       1.250   1.250

     Mode symmetry, C_s (m)     point group:


     Atomic displacements:
     There are   3 irreducible representations

     Representation     1      1 modes -A'  To be done

     Representation     2      1 modes -A'  To be done

     Representation     3      1 modes -A''  To be done



     Alpha used in Ewald sum =   2.8000
     PHONON       :     1h19m CPU        1h24m WALL



     Representation #  1 mode #   1

     Self-consistent Calculation

      iter #   1 total cpu time :  5127.1 secs   av.it.:   5.8
      thresh= 1.000E-02 alpha_mix =  0.700 |ddv_scf|^2 =  3.873E-04

      iter #   2 total cpu time :  5193.7 secs   av.it.:   7.0
      thresh= 1.968E-03 alpha_mix =  0.700 |ddv_scf|^2 =  1.856E-03

      iter #   3 total cpu time :  5252.4 secs   av.it.:   5.8
      thresh= 4.308E-03 alpha_mix =  0.700 |ddv_scf|^2 =  3.995E-07

      iter #   4 total cpu time :  5326.9 secs   av.it.:   8.0
      thresh= 6.320E-05 alpha_mix =  0.700 |ddv_scf|^2 =  6.905E-09

      iter #   5 total cpu time :  5402.7 secs   av.it.:   8.3
      thresh= 8.309E-06 alpha_mix =  0.700 |ddv_scf|^2 =  6.935E-10

      iter #   6 total cpu time :  5477.4 secs   av.it.:   8.2
      thresh= 2.633E-06 alpha_mix =  0.700 |ddv_scf|^2 =  3.688E-11

      iter #   7 total cpu time :  5551.9 secs   av.it.:   8.1
      thresh= 6.073E-07 alpha_mix =  0.700 |ddv_scf|^2 =  6.999E-12

      iter #   8 total cpu time :  5619.9 secs   av.it.:   7.1
      thresh= 2.645E-07 alpha_mix =  0.700 |ddv_scf|^2 =  1.353E-11

      iter #   9 total cpu time :  5683.0 secs   av.it.:   6.5
      thresh= 3.679E-07 alpha_mix =  0.700 |ddv_scf|^2 =  6.827E-13

     End of self-consistent calculation

     Convergence has been achieved 


     Representation #  2 mode #   2

     Self-consistent Calculation

      iter #   1 total cpu time :  5751.2 secs   av.it.:   5.7
      thresh= 1.000E-02 alpha_mix =  0.700 |ddv_scf|^2 =  1.124E-04

      iter #   2 total cpu time :  5821.1 secs   av.it.:   7.3
      thresh= 1.060E-03 alpha_mix =  0.700 |ddv_scf|^2 =  4.717E-04

      iter #   3 total cpu time :  5880.5 secs   av.it.:   5.9
      thresh= 2.172E-03 alpha_mix =  0.700 |ddv_scf|^2 =  4.024E-07

      iter #   4 total cpu time :  5954.0 secs   av.it.:   7.8
      thresh= 6.344E-05 alpha_mix =  0.700 |ddv_scf|^2 =  9.314E-09

      iter #   5 total cpu time :  6029.1 secs   av.it.:   8.3
      thresh= 9.651E-06 alpha_mix =  0.700 |ddv_scf|^2 =  4.757E-10

      iter #   6 total cpu time :  6103.9 secs   av.it.:   8.2
      thresh= 2.181E-06 alpha_mix =  0.700 |ddv_scf|^2 =  3.593E-11

      iter #   7 total cpu time :  6179.0 secs   av.it.:   8.2
      thresh= 5.995E-07 alpha_mix =  0.700 |ddv_scf|^2 =  6.084E-13

     End of self-consistent calculation

     Convergence has been achieved 


     Representation #  3 mode #   3

     Self-consistent Calculation

      iter #   1 total cpu time :  6243.9 secs   av.it.:   5.5
      thresh= 1.000E-02 alpha_mix =  0.700 |ddv_scf|^2 =  1.461E-05

      iter #   2 total cpu time :  6315.8 secs   av.it.:   7.7
      thresh= 3.823E-04 alpha_mix =  0.700 |ddv_scf|^2 =  2.355E-07

      iter #   3 total cpu time :  6389.2 secs   av.it.:   7.9
      thresh= 4.853E-05 alpha_mix =  0.700 |ddv_scf|^2 =  1.038E-08

      iter #   4 total cpu time :  6459.2 secs   av.it.:   7.5
      thresh= 1.019E-05 alpha_mix =  0.700 |ddv_scf|^2 =  3.378E-11

      iter #   5 total cpu time :  6531.8 secs   av.it.:   7.8
      thresh= 5.812E-07 alpha_mix =  0.700 |ddv_scf|^2 =  3.527E-14

     End of self-consistent calculation

     Convergence has been achieved 

     Number of q in the star =   24
     List of q in the star:
          1  -0.250000000   0.500000000  -0.250000000
          2  -0.250000000   0.500000000   0.250000000
          3   0.250000000   0.500000000  -0.250000000
          4   0.250000000   0.500000000   0.250000000
          5   0.250000000  -0.500000000   0.250000000
          6   0.500000000  -0.250000000   0.250000000
          7   0.250000000  -0.250000000   0.500000000
          8  -0.250000000  -0.500000000  -0.250000000
          9   0.250000000  -0.500000000  -0.250000000
         10  -0.250000000  -0.500000000   0.250000000
         11   0.250000000  -0.250000000  -0.500000000
         12   0.500000000  -0.250000000  -0.250000000
         13  -0.500000000  -0.250000000   0.250000000
         14   0.500000000   0.250000000   0.250000000
         15  -0.250000000  -0.250000000   0.500000000
         16   0.250000000   0.250000000   0.500000000
         17  -0.500000000   0.250000000  -0.250000000
         18  -0.250000000   0.250000000  -0.500000000
         19  -0.500000000  -0.250000000  -0.250000000
         20   0.250000000   0.250000000  -0.500000000
         21   0.500000000   0.250000000  -0.250000000
         22  -0.250000000  -0.250000000  -0.500000000
         23  -0.500000000   0.250000000   0.250000000
         24  -0.250000000   0.250000000   0.500000000

     Diagonalizing the dynamical matrix

     q = (   -0.250000000   0.500000000  -0.250000000 ) 

 **************************************************************************
     freq (    1) =       1.763166 [THz] =      58.812874 [cm-1]
     freq (    2) =       2.165427 [THz] =      72.230856 [cm-1]
     freq (    3) =       3.981128 [THz] =     132.796127 [cm-1]
 **************************************************************************

     Mode symmetry, C_s (m)     point group:

     freq (  1 -  1) =         58.8  [cm-1]   --> A''                
     freq (  2 -  2) =         72.2  [cm-1]   --> A'                 
     freq (  3 -  3) =        132.8  [cm-1]   --> A'                 

     Calculation of q =    0.6250000  -0.3750000   0.6250000

   Info: using nr1, nr2, nr3 values from input

   Info: using nr1, nr2, nr3 values from input

     Parallelization info
     --------------------
     sticks:   dense  smooth     PW     G-vecs:    dense   smooth      PW
     Min         267     132     52                 5821     2024     497
     Max         268     135     54                 5825     2025     498
     Sum        1069     535    211                23289     8099    1989



     bravais-lattice index     =            2
     lattice parameter (alat)  =       9.8622  a.u.
     unit-cell volume          =     239.8062 (a.u.)^3
     number of atoms/cell      =            1
     number of atomic types    =            1
     number of electrons       =         9.00
     number of Kohn-Sham states=            9
     kinetic-energy cutoff     =      40.0000  Ry
     charge density cutoff     =     320.0000  Ry
     Exchange-correlation      = SLA  PW   PBE  PBE ( 1  4  3  4 0 0)

     celldm(1)=   9.862192  celldm(2)=   0.000000  celldm(3)=   0.000000
     celldm(4)=   0.000000  celldm(5)=   0.000000  celldm(6)=   0.000000

     crystal axes: (cart. coord. in units of alat)
               a(1) = (  -0.500000   0.000000   0.500000 )  
               a(2) = (   0.000000   0.500000   0.500000 )  
               a(3) = (  -0.500000   0.500000   0.000000 )  

[...]

     PseudoPot. # 1 for Na read from file:
     /home/s1333534/quantum_espresso/qe-6.1/pseudo/Na_pbe_v1.uspp.F.UPF
     MD5 check sum: 76a99c7e9422403d3e93cbc85ab7bccb
     Pseudo is Ultrasoft, Zval =  9.0
     Generated by new atomic code, or converted to UPF format
     Using radial grid of  819 points,  5 beta functions with: 
                l(1) =   0
                l(2) =   0
                l(3) =   1
                l(4) =   1
                l(5) =   2
     Q(r) pseudized with  8 coefficients,  rinner =    1.250   1.250   1.250
                                                       1.250   1.250

     Mode symmetry, C_2v (mm2)  point group:


     Atomic displacements:
     There are   3 irreducible representations

     Representation     1      1 modes -A_1  D_1  S_1  To be done

     Representation     2      1 modes -B_1  D_3  S_3  To be done

     Representation     3      1 modes -B_2  D_4  S_4  To be done



     Alpha used in Ewald sum =   2.8000
     PHONON       :     9h53m CPU       10h33m WALL



     Representation #  1 mode #   1

     Self-consistent Calculation

      iter #   1 total cpu time : 38066.8 secs   av.it.:   5.6
      thresh= 1.000E-02 alpha_mix =  0.700 |ddv_scf|^2 =  2.058E-05

      iter #   2 total cpu time : 38102.1 secs   av.it.:   7.8
      thresh= 4.536E-04 alpha_mix =  0.700 |ddv_scf|^2 =  5.874E-07

      iter #   3 total cpu time : 38137.4 secs   av.it.:   7.7
      thresh= 7.664E-05 alpha_mix =  0.700 |ddv_scf|^2 =  2.924E-08

      iter #   4 total cpu time : 38174.4 secs   av.it.:   7.9
      thresh= 1.710E-05 alpha_mix =  0.700 |ddv_scf|^2 =  1.951E-09

      iter #   5 total cpu time : 38210.3 secs   av.it.:   7.9
      thresh= 4.417E-06 alpha_mix =  0.700 |ddv_scf|^2 =  6.086E-11

      iter #   6 total cpu time : 38246.6 secs   av.it.:   8.1
      thresh= 7.801E-07 alpha_mix =  0.700 |ddv_scf|^2 =  5.625E-12

      iter #   7 total cpu time : 38283.1 secs   av.it.:   8.1
      thresh= 2.372E-07 alpha_mix =  0.700 |ddv_scf|^2 =  8.090E-14

     End of self-consistent calculation

     Convergence has been achieved 


     Representation #  2 mode #   2

     Self-consistent Calculation

      iter #   1 total cpu time : 38315.4 secs   av.it.:   5.6
      thresh= 1.000E-02 alpha_mix =  0.700 |ddv_scf|^2 =  2.141E-05

      iter #   2 total cpu time : 38350.9 secs   av.it.:   7.8
      thresh= 4.627E-04 alpha_mix =  0.700 |ddv_scf|^2 =  3.311E-07

      iter #   3 total cpu time : 38386.5 secs   av.it.:   7.8
      thresh= 5.754E-05 alpha_mix =  0.700 |ddv_scf|^2 =  2.312E-08

      iter #   4 total cpu time : 38421.9 secs   av.it.:   7.8
      thresh= 1.521E-05 alpha_mix =  0.700 |ddv_scf|^2 =  2.874E-10

      iter #   5 total cpu time : 38454.4 secs   av.it.:   6.9
      thresh= 1.695E-06 alpha_mix =  0.700 |ddv_scf|^2 =  2.447E-13

     End of self-consistent calculation

     Convergence has been achieved 


     Representation #  3 mode #   3

     Self-consistent Calculation

      iter #   1 total cpu time : 38487.3 secs   av.it.:   5.6
      thresh= 1.000E-02 alpha_mix =  0.700 |ddv_scf|^2 =  5.399E-05

      iter #   2 total cpu time : 38521.5 secs   av.it.:   7.3
      thresh= 7.348E-04 alpha_mix =  0.700 |ddv_scf|^2 =  7.331E-06

      iter #   3 total cpu time : 38555.2 secs   av.it.:   7.2
      thresh= 2.707E-04 alpha_mix =  0.700 |ddv_scf|^2 =  5.668E-08

      iter #   4 total cpu time : 38590.9 secs   av.it.:   7.9
      thresh= 2.381E-05 alpha_mix =  0.700 |ddv_scf|^2 =  2.256E-10

      iter #   5 total cpu time : 38622.9 secs   av.it.:   6.8
      thresh= 1.502E-06 alpha_mix =  0.700 |ddv_scf|^2 =  3.695E-13

     End of self-consistent calculation

     Convergence has been achieved 

     Number of q in the star =   12
     List of q in the star:
          1  -0.250000000  -1.000000000   0.000000000
          2   0.000000000  -1.000000000   0.250000000
          3   0.000000000  -1.000000000  -0.250000000
          4   0.250000000  -1.000000000   0.000000000
          5  -1.000000000   0.000000000  -0.250000000
          6   1.000000000   0.000000000   0.250000000
          7  -1.000000000  -0.250000000   0.000000000
          8   0.000000000  -0.250000000  -1.000000000
          9   0.000000000   0.250000000  -1.000000000
         10   1.000000000   0.250000000   0.000000000
         11  -0.250000000   0.000000000   1.000000000
         12   0.250000000   0.000000000   1.000000000

     Diagonalizing the dynamical matrix

     q = (   -0.250000000  -1.000000000   0.000000000 ) 

 **************************************************************************
     freq (    1) =       2.881740 [THz] =      96.124502 [cm-1]
     freq (    2) =       3.437376 [THz] =     114.658515 [cm-1]
     freq (    3) =       4.502216 [THz] =     150.177756 [cm-1]
 **************************************************************************

     Mode symmetry, C_2v (mm2)  point group:

     freq (  1 -  1) =         96.1  [cm-1]   --> A_1  D_1  S_1      
     freq (  2 -  2) =        114.7  [cm-1]   --> B_1  D_3  S_3      
     freq (  3 -  3) =        150.2  [cm-1]   --> B_2  D_4  S_4      

     Calculation of q =   -0.5000000  -1.0000000   0.0000000

   Info: using nr1, nr2, nr3 values from input

   Info: using nr1, nr2, nr3 values from input

     Parallelization info
     --------------------
     sticks:   dense  smooth     PW     G-vecs:    dense   smooth      PW
     Min         267     132     52                 5821     2024     497
     Max         268     135     54                 5825     2025     498
     Sum        1069     535    211                23289     8099    1989



     bravais-lattice index     =            2
     lattice parameter (alat)  =       9.8622  a.u.
     unit-cell volume          =     239.8062 (a.u.)^3
     number of atoms/cell      =            1
     number of atomic types    =            1
     number of electrons       =         9.00
     number of Kohn-Sham states=            9
     kinetic-energy cutoff     =      40.0000  Ry
     charge density cutoff     =     320.0000  Ry
     Exchange-correlation      = SLA  PW   PBE  PBE ( 1  4  3  4 0 0)

     celldm(1)=   9.862192  celldm(2)=   0.000000  celldm(3)=   0.000000
     celldm(4)=   0.000000  celldm(5)=   0.000000  celldm(6)=   0.000000

     crystal axes: (cart. coord. in units of alat)
               a(1) = (  -0.500000   0.000000   0.500000 )  
               a(2) = (   0.000000   0.500000   0.500000 )  
               a(3) = (  -0.500000   0.500000   0.000000 )  

     reciprocal axes: (cart. coord. in units 2 pi/alat)
               b(1) = ( -1.000000 -1.000000  1.000000 )  
               b(2) = (  1.000000  1.000000  1.000000 )  
               b(3) = ( -1.000000  1.000000 -1.000000 )  


     PseudoPot. # 1 for Na read from file:
     /home/s1333534/quantum_espresso/qe-6.1/pseudo/Na_pbe_v1.uspp.F.UPF
     MD5 check sum: 76a99c7e9422403d3e93cbc85ab7bccb
     Pseudo is Ultrasoft, Zval =  9.0
     Generated by new atomic code, or converted to UPF format
     Using radial grid of  819 points,  5 beta functions with: 
                l(1) =   0
                l(2) =   0
                l(3) =   1
                l(4) =   1
                l(5) =   2
     Q(r) pseudized with  8 coefficients,  rinner =    1.250   1.250   1.250
                                                       1.250   1.250

     atomic species   valence    mass     pseudopotential
        Na             9.00    22.99000     Na( 1.00)

     48 Sym. Ops., with inversion, found



   Cartesian axes

     site n.     atom                  positions (alat units)
         1           Na  tau(   1) = (   0.0000000   0.0000000   0.0000000  )

     number of k points=  2744  Marzari-Vanderbilt smearing, width (Ry)=  0.0200

     Number of k-points >= 100: set verbosity='high' to print them.

     Dense  grid:    23289 G-vectors     FFT dimensions: (  40,  40,  40)

     Smooth grid:     8099 G-vectors     FFT dimensions: (  30,  30,  30)

     Estimated max dynamical RAM per process >       2.18MB

     Estimated total allocated dynamical RAM >       8.71MB

     The potential is recalculated from file :
     ./_ph0/na.fcc.save/charge-density.dat

     Starting wfc are    5 atomic +    4 random wfc

     Band Structure Calculation
     Davidson diagonalization with overlap

     ethr =  1.11E-10,  avg # of iterations = 19.4

     total cpu time spent up to now is     8063.1 secs

     End of band structure calculation

     Number of k-points >= 100: set verbosity='high' to print the bands.

     the Fermi energy is     1.7827 ev

     Writing output data file na.fcc.save

                                                                                

     bravais-lattice index     =            2
     lattice parameter (alat)  =       9.8622  a.u.
     unit-cell volume          =     239.8062 (a.u.)^3
     number of atoms/cell      =            1
     number of atomic types    =            1
     kinetic-energy cut-off    =      40.0000  Ry
     charge density cut-off    =     320.0000  Ry
     convergence threshold     =      1.0E-12
     beta                      =       0.7000
     number of iterations used =            4
     Exchange-correlation      = SLA  PW   PBE  PBE ( 1  4  3  4 0 0)


     celldm(1)=    9.86219  celldm(2)=    0.00000  celldm(3)=    0.00000
     celldm(4)=    0.00000  celldm(5)=    0.00000  celldm(6)=    0.00000

     crystal axes: (cart. coord. in units of alat)
               a(1) = ( -0.5000  0.0000  0.5000 )  
               a(2) = (  0.0000  0.5000  0.5000 )  
               a(3) = ( -0.5000  0.5000  0.0000 )  

     reciprocal axes: (cart. coord. in units 2 pi/alat)
               b(1) = ( -1.0000 -1.0000  1.0000 )  
               b(2) = (  1.0000  1.0000  1.0000 )  
               b(3) = ( -1.0000  1.0000 -1.0000 )  


     Atoms inside the unit cell: 

     Cartesian axes

     site n.  atom      mass           positions (alat units)
        1     Na  22.9900   tau(    1) = (    0.00000    0.00000    0.00000  )

     Computing dynamical matrix for 
                    q = (  -0.5000000  -1.0000000   0.0000000 )

      8 Sym.Ops. (no q -> -q+G )


     G cutoff =  788.3828  (   5822 G-vectors)     FFT grid: ( 40, 40, 40)
     G cutoff =  394.1914  (   2025 G-vectors)  smooth grid: ( 30, 30, 30)

     number of k points=  2744  Marzari-Vanderbilt smearing, width (Ry)=  0.0200

     PseudoPot. # 1 for Na read from file:
     /home/s1333534/quantum_espresso/qe-6.1/pseudo/Na_pbe_v1.uspp.F.UPF
     MD5 check sum: 76a99c7e9422403d3e93cbc85ab7bccb
     Pseudo is Ultrasoft, Zval =  9.0
     Generated by new atomic code, or converted to UPF format
     Using radial grid of  819 points,  5 beta functions with: 
                l(1) =   0
                l(2) =   0
                l(3) =   1
                l(4) =   1
                l(5) =   2
     Q(r) pseudized with  8 coefficients,  rinner =    1.250   1.250   1.250
                                                       1.250   1.250

     Mode symmetry, D_2d (-42m) point group:


     Atomic displacements:
     There are   2 irreducible representations

     Representation     1      1 modes -B_2  X_3  W_2  To be done

     Representation     2      2 modes -E    X_5  W_3  To be done



     Alpha used in Ewald sum =   2.8000
     PHONON       :    10h 4m CPU       10h45m WALL



     Representation #  1 mode #   1

     Self-consistent Calculation

      iter #   1 total cpu time : 38738.4 secs   av.it.:   5.6
      thresh= 1.000E-02 alpha_mix =  0.700 |ddv_scf|^2 =  2.331E-05

      iter #   2 total cpu time : 38756.0 secs   av.it.:   7.8
      thresh= 4.828E-04 alpha_mix =  0.700 |ddv_scf|^2 =  7.736E-07

      iter #   3 total cpu time : 38773.5 secs   av.it.:   7.6
      thresh= 8.795E-05 alpha_mix =  0.700 |ddv_scf|^2 =  2.051E-08

      iter #   4 total cpu time : 38791.9 secs   av.it.:   8.0
      thresh= 1.432E-05 alpha_mix =  0.700 |ddv_scf|^2 =  5.170E-10

      iter #   5 total cpu time : 38808.7 secs   av.it.:   7.4
      thresh= 2.274E-06 alpha_mix =  0.700 |ddv_scf|^2 =  7.178E-13

     End of self-consistent calculation

     Convergence has been achieved 


     Representation #  2 modes #   2  3

     Self-consistent Calculation

      iter #   1 total cpu time : 38840.2 secs   av.it.:   5.7
      thresh= 1.000E-02 alpha_mix =  0.700 |ddv_scf|^2 =  8.488E-06

      iter #   2 total cpu time : 38877.5 secs   av.it.:   8.2
      thresh= 2.913E-04 alpha_mix =  0.700 |ddv_scf|^2 =  4.357E-07

      iter #   3 total cpu time : 38912.8 secs   av.it.:   7.9
      thresh= 6.601E-05 alpha_mix =  0.700 |ddv_scf|^2 =  9.455E-09

      iter #   4 total cpu time : 38950.7 secs   av.it.:   8.5
      thresh= 9.724E-06 alpha_mix =  0.700 |ddv_scf|^2 =  6.634E-11

      iter #   5 total cpu time : 38985.0 secs   av.it.:   7.5
      thresh= 8.145E-07 alpha_mix =  0.700 |ddv_scf|^2 =  4.887E-14

     End of self-consistent calculation

     Convergence has been achieved 

     Number of q in the star =    6
     List of q in the star:
          1  -0.500000000  -1.000000000   0.000000000
          2   0.000000000   1.000000000   0.500000000
          3   0.500000000  -1.000000000   0.000000000
          4   0.000000000   1.000000000  -0.500000000
          5  -1.000000000  -0.500000000   0.000000000
          6   0.000000000  -0.500000000  -1.000000000

     Diagonalizing the dynamical matrix

     q = (   -0.500000000  -1.000000000   0.000000000 ) 

 **************************************************************************
     freq (    1) =       3.465814 [THz] =     115.607104 [cm-1]
     freq (    2) =       3.822246 [THz] =     127.496407 [cm-1]
     freq (    3) =       3.822246 [THz] =     127.496407 [cm-1]
 **************************************************************************

     Mode symmetry, D_2d (-42m) point group:

     freq (  1 -  1) =        115.6  [cm-1]   --> B_2  X_3  W_2      
     freq (  2 -  3) =        127.5  [cm-1]   --> E    X_5  W_3      

     init_run     :      9.69s CPU      9.85s WALL (      28 calls)
     electrons    :   7507.70s CPU   7886.61s WALL (      28 calls)

     Called by init_run:
     wfcinit      :      0.00s CPU      0.00s WALL (      28 calls)
     potinit      :      0.40s CPU      0.44s WALL (      28 calls)

     Called by electrons:
     c_bands      :   7506.51s CPU   7885.43s WALL (      28 calls)
     v_of_rho     :      0.33s CPU      0.33s WALL (      29 calls)
     newd         :      0.42s CPU      0.44s WALL (      29 calls)

     Called by c_bands:
     init_us_2    :    395.83s CPU    367.08s WALL ( 3410743 calls)
     cegterg      :   6890.51s CPU   7223.57s WALL (  304658 calls)

     Called by sum_band:

     Called by *egterg:
     h_psi        :  25856.43s CPU  27301.76s WALL (28811245 calls)
     s_psi        :    522.79s CPU    591.64s WALL (54807541 calls)
     g_psi        :     31.96s CPU     45.49s WALL ( 4684694 calls)
     cdiaghg      :   1079.04s CPU   1010.05s WALL ( 4924598 calls)

     Called by h_psi:
     h_psi:pot    :  25764.08s CPU  27184.49s WALL (28811245 calls)
     h_psi:calbec :    420.48s CPU    501.85s WALL (28811245 calls)
     vloc_psi     :  24932.23s CPU  26238.46s WALL (28811245 calls)
     add_vuspsi   :    344.22s CPU    357.78s WALL (28811245 calls)

     General routines
     calbec       :    975.57s CPU   1021.53s WALL (60707736 calls)
     fft          :      3.37s CPU      3.57s WALL (    9022 calls)
     ffts         :     43.73s CPU     46.57s WALL (  363587 calls)
     fftw         :  28365.78s CPU  28930.89s WALL (******** calls)
     interpolate  :      0.61s CPU      0.69s WALL (    1251 calls)
     davcio       :    161.55s CPU    479.84s WALL (12895271 calls)

     Parallel routines
     fft_scatter  :   4240.69s CPU   5201.12s WALL (******** calls)

     PHONON       :    10h 8m CPU       10h49m WALL

     INITIALIZATION: 
     phq_setup    :      1.06s CPU      1.33s WALL (      29 calls)
     phq_init     :    563.63s CPU    590.71s WALL (      29 calls)

     phq_init     :    563.63s CPU    590.71s WALL (      29 calls)
     init_vloc    :      0.10s CPU      0.10s WALL (      29 calls)
     init_us_1    :      3.49s CPU      3.51s WALL (      29 calls)
     newd         :      0.42s CPU      0.44s WALL (      29 calls)
     dvanqq       :      1.70s CPU      1.71s WALL (      29 calls)
     drho         :    482.00s CPU    505.05s WALL (      29 calls)

     DYNAMICAL MATRIX:
     dynmat0      :     51.05s CPU     52.75s WALL (      29 calls)
     phqscf       :  28272.33s CPU  30322.97s WALL (      29 calls)
     dynmatrix    :      0.03s CPU      0.09s WALL (      29 calls)

     phqscf       :  28272.33s CPU  30322.97s WALL (      29 calls)
     solve_linter :  28184.31s CPU  30229.30s WALL (      76 calls)
     drhodv       :     87.93s CPU     92.06s WALL (      76 calls)

     dynmat0      :     51.05s CPU     52.75s WALL (      29 calls)
     dynmat_us    :     51.00s CPU     52.70s WALL (      29 calls)
     d2ionq       :      0.03s CPU      0.03s WALL (      29 calls)

     dynmat_us    :     51.00s CPU     52.70s WALL (      29 calls)
     addusdynmat  :      0.00s CPU      0.00s WALL (      29 calls)

     phqscf       :  28272.33s CPU  30322.97s WALL (      29 calls)
     solve_linter :  28184.31s CPU  30229.30s WALL (      76 calls)

     solve_linter :  28184.31s CPU  30229.30s WALL (      76 calls)
     dvqpsi_us    :    825.19s CPU    866.78s WALL (  360696 calls)
     ortho        :    168.63s CPU    205.51s WALL ( 2414307 calls)
     cgsolve      :  21860.39s CPU  23167.81s WALL ( 2414307 calls)
     incdrhoscf   :   2621.41s CPU   2806.36s WALL ( 2414307 calls)
     addusddens   :     12.78s CPU     12.93s WALL (     574 calls)
     vpsifft      :   2096.59s CPU   2263.23s WALL ( 2053611 calls)
     dv_of_drho   :      4.07s CPU      4.19s WALL (     553 calls)
     mix_pot      :      0.50s CPU      1.03s WALL (     498 calls)
     ef_shift     :      0.01s CPU      0.03s WALL (       6 calls)
     localdos     :      0.23s CPU      0.24s WALL (       1 calls)
     psymdvscf    :      6.96s CPU      7.09s WALL (     456 calls)
     newdq        :     11.52s CPU     11.58s WALL (     498 calls)
     adddvscf     :     67.55s CPU     64.20s WALL ( 2053611 calls)
     drhodvus     :      0.04s CPU      0.15s WALL (      76 calls)

     dvqpsi_us    :    825.19s CPU    866.78s WALL (  360696 calls)
     dvqpsi_us_on :     92.52s CPU     86.56s WALL (  360696 calls)

     cgsolve      :  21860.39s CPU  23167.81s WALL ( 2414307 calls)
     ch_psi       :  21517.19s CPU  22826.97s WALL (23581989 calls)

     ch_psi       :  21517.19s CPU  22826.97s WALL (23581989 calls)
     h_psi        :  25856.43s CPU  27301.76s WALL (28811245 calls)
     last         :    974.85s CPU   1095.18s WALL (23581989 calls)

     h_psi        :  25856.43s CPU  27301.76s WALL (28811245 calls)
     add_vuspsi   :    344.22s CPU    357.78s WALL (28811245 calls)

     incdrhoscf   :   2621.41s CPU   2806.36s WALL ( 2414307 calls)
     addusdbec    :    141.62s CPU    135.58s WALL ( 2775003 calls)

     drhodvus     :      0.04s CPU      0.15s WALL (      76 calls)

      General routines
     calbec       :    975.57s CPU   1021.53s WALL (60707736 calls)
     fft          :      3.37s CPU      3.57s WALL (    9022 calls)
     ffts         :     43.73s CPU     46.57s WALL (  363587 calls)
     fftw         :  28365.78s CPU  28930.89s WALL (******** calls)
     davcio       :    161.55s CPU    479.84s WALL (12895271 calls)
     write_rec    :      0.42s CPU      3.51s WALL (     574 calls)


     PHONON       :    10h 8m CPU       10h49m WALL


   This run was terminated on:  23:11:19  21Dec2017            

=------------------------------------------------------------------------------=
   JOB DONE.
=------------------------------------------------------------------------------=
