
     Program PWSCF v.6.1 (svn rev. 13369) starts on 21Dec2017 at 12:21:16 

     This program is part of the open-source Quantum ESPRESSO suite
     for quantum simulation of materials; please cite
         "P. Giannozzi et al., J. Phys.:Condens. Matter 21 395502 (2009);
          URL http://www.quantum-espresso.org", 
     in publications or presentations arising from this work. More details at
     http://www.quantum-espresso.org/quote

     Parallel version (MPI), running on     4 processors
     R & G space division:  proc/nbgrp/npool/nimage =       4
     Waiting for input...
     Reading input from standard input

     Current dimensions of program PWSCF are:
     Max number of different atomic species (ntypx) = 10
     Max number of k-points (npk) =  40000
     Max angular momentum in pseudopotentials (lmaxx) =  3

     Subspace diagonalization in iterative solution of the eigenvalue problem:
     a serial algorithm will be used


     Parallelization info
     --------------------
     sticks:   dense  smooth     PW     G-vecs:    dense   smooth      PW
     Min         267     133     46                 5821     2024     397
     Max         268     134     47                 5825     2025     398
     Sum        1069     535    187                23289     8099    1591



     bravais-lattice index     =            2
     lattice parameter (alat)  =       9.8622  a.u.
     unit-cell volume          =     239.8062 (a.u.)^3
     number of atoms/cell      =            1
     number of atomic types    =            1
     number of electrons       =         9.00
     number of Kohn-Sham states=            9
     kinetic-energy cutoff     =      40.0000  Ry
     charge density cutoff     =     320.0000  Ry
     convergence threshold     =      1.0E-08
     mixing beta               =       0.7000
     number of iterations used =            8  plain     mixing
     Exchange-correlation      = SLA  PW   PBE  PBE ( 1  4  3  4 0 0)

     celldm(1)=   9.862192  celldm(2)=   0.000000  celldm(3)=   0.000000
     celldm(4)=   0.000000  celldm(5)=   0.000000  celldm(6)=   0.000000

     crystal axes: (cart. coord. in units of alat)
               a(1) = (  -0.500000   0.000000   0.500000 )  
               a(2) = (   0.000000   0.500000   0.500000 )  
               a(3) = (  -0.500000   0.500000   0.000000 )  

     reciprocal axes: (cart. coord. in units 2 pi/alat)
               b(1) = ( -1.000000 -1.000000  1.000000 )  
               b(2) = (  1.000000  1.000000  1.000000 )  
               b(3) = ( -1.000000  1.000000 -1.000000 )  


     PseudoPot. # 1 for Na read from file:
     /home/s1333534/quantum_espresso/qe-6.1/pseudo/Na_pbe_v1.uspp.F.UPF
     MD5 check sum: 76a99c7e9422403d3e93cbc85ab7bccb
     Pseudo is Ultrasoft, Zval =  9.0
     Generated by new atomic code, or converted to UPF format
     Using radial grid of  819 points,  5 beta functions with: 
                l(1) =   0
                l(2) =   0
                l(3) =   1
                l(4) =   1
                l(5) =   2
     Q(r) pseudized with  8 coefficients,  rinner =    1.250   1.250   1.250
                                                       1.250   1.250

     atomic species   valence    mass     pseudopotential
        Na             9.00    22.99000     Na( 1.00)

     48 Sym. Ops., with inversion, found



   Cartesian axes

     site n.     atom                  positions (alat units)
         1           Na  tau(   1) = (   0.0000000   0.0000000   0.0000000  )

     number of k points=   280  Marzari-Vanderbilt smearing, width (Ry)=  0.0200

     Number of k-points >= 100: set verbosity='high' to print them.

     Dense  grid:    23289 G-vectors     FFT dimensions: (  40,  40,  40)

     Smooth grid:     8099 G-vectors     FFT dimensions: (  30,  30,  30)

     Estimated max dynamical RAM per process >      13.65MB

     Estimated total allocated dynamical RAM >      54.62MB

     Initial potential from superposition of free atoms

     starting charge    8.99371, renormalised to    9.00000
     Starting wfc are    5 randomized atomic wfcs +    4 random wfc

     total cpu time spent up to now is        1.2 secs

     per-process dynamical memory:    19.1 Mb

     Self-consistent Calculation

     iteration #  1     ecut=    40.00 Ry     beta=0.70
     Davidson diagonalization with overlap
     ethr =  1.00E-02,  avg # of iterations =  5.4

     Threshold (ethr) on eigenvalues was too large:
     Diagonalizing with lowered threshold

     Davidson diagonalization with overlap
     ethr =  9.97E-06,  avg # of iterations =  4.2

     total cpu time spent up to now is        7.1 secs

     total energy              =     -95.10634275 Ry
     Harris-Foulkes estimate   =     -95.10656123 Ry
     estimated scf accuracy    <       0.00089533 Ry

     iteration #  2     ecut=    40.00 Ry     beta=0.70
     Davidson diagonalization with overlap
     ethr =  9.95E-06,  avg # of iterations =  2.0

     total cpu time spent up to now is        9.1 secs

     total energy              =     -95.10644354 Ry
     Harris-Foulkes estimate   =     -95.10646533 Ry
     estimated scf accuracy    <       0.00009791 Ry

     iteration #  3     ecut=    40.00 Ry     beta=0.70
     Davidson diagonalization with overlap
     ethr =  1.09E-06,  avg # of iterations =  2.1

     total cpu time spent up to now is       11.2 secs

     total energy              =     -95.10645546 Ry
     Harris-Foulkes estimate   =     -95.10645647 Ry
     estimated scf accuracy    <       0.00000586 Ry

     iteration #  4     ecut=    40.00 Ry     beta=0.70
     Davidson diagonalization with overlap
     ethr =  6.52E-08,  avg # of iterations =  1.0

     total cpu time spent up to now is       13.0 secs

     total energy              =     -95.10645602 Ry
     Harris-Foulkes estimate   =     -95.10645597 Ry
     estimated scf accuracy    <       0.00000001 Ry

     iteration #  5     ecut=    40.00 Ry     beta=0.70
     Davidson diagonalization with overlap
     ethr =  1.22E-10,  avg # of iterations =  3.0

     total cpu time spent up to now is       15.5 secs

     End of self-consistent calculation

     Number of k-points >= 100: set verbosity='high' to print the bands.

     the Fermi energy is     1.7827 ev

!    total energy              =     -95.10645605 Ry
     Harris-Foulkes estimate   =     -95.10645605 Ry
     estimated scf accuracy    <          1.6E-09 Ry

     The total energy is the sum of the following terms:

     one-electron contribution =     -87.22021329 Ry
     hartree contribution      =      44.04417187 Ry
     xc contribution           =     -14.27402622 Ry
     ewald contribution        =     -37.65631616 Ry
     smearing contrib. (-TS)   =      -0.00007226 Ry

     convergence has been achieved in   5 iterations


     Computing stress (Cartesian axis) and pressure

          total   stress  (Ry/bohr**3)                   (kbar)     P=    0.81
   0.00000548   0.00000000   0.00000000          0.81      0.00      0.00
   0.00000000   0.00000548  -0.00000000          0.00      0.81     -0.00
   0.00000000  -0.00000000   0.00000548          0.00     -0.00      0.81


     Writing output data file na.fcc.save

     init_run     :      0.90s CPU      1.05s WALL (       1 calls)
     electrons    :     13.72s CPU     14.37s WALL (       1 calls)
     stress       :      0.59s CPU      0.59s WALL (       1 calls)

     Called by init_run:
     wfcinit      :      0.68s CPU      0.74s WALL (       1 calls)
     potinit      :      0.03s CPU      0.03s WALL (       1 calls)

     Called by electrons:
     c_bands      :     11.40s CPU     11.93s WALL (       6 calls)
     sum_band     :      2.17s CPU      2.26s WALL (       6 calls)
     v_of_rho     :      0.08s CPU      0.08s WALL (       6 calls)
     newd         :      0.09s CPU      0.10s WALL (       6 calls)
     mix_rho      :      0.00s CPU      0.03s WALL (       6 calls)

     Called by c_bands:
     init_us_2    :      0.42s CPU      0.41s WALL (    3920 calls)
     cegterg      :     11.00s CPU     11.52s WALL (    1680 calls)

     Called by sum_band:
     sum_band:bec :      0.00s CPU      0.01s WALL (    1680 calls)
     addusdens    :      0.11s CPU      0.11s WALL (       6 calls)

     Called by *egterg:
     h_psi        :      9.67s CPU     10.16s WALL (    6897 calls)
     s_psi        :      0.11s CPU      0.09s WALL (    6897 calls)
     g_psi        :      0.05s CPU      0.05s WALL (    4937 calls)
     cdiaghg      :      1.04s CPU      1.08s WALL (    6337 calls)

     Called by h_psi:
     h_psi:pot    :      9.64s CPU     10.11s WALL (    6897 calls)
     h_psi:calbec :      0.21s CPU      0.17s WALL (    6897 calls)
     vloc_psi     :      9.35s CPU      9.82s WALL (    6897 calls)
     add_vuspsi   :      0.06s CPU      0.11s WALL (    6897 calls)

     General routines
     calbec       :      0.35s CPU      0.29s WALL (    8857 calls)
     fft          :      0.05s CPU      0.11s WALL (     101 calls)
     ffts         :      0.00s CPU      0.00s WALL (      12 calls)
     fftw         :     10.12s CPU     10.30s WALL (  100596 calls)
     interpolate  :      0.01s CPU      0.01s WALL (      12 calls)
     davcio       :      0.00s CPU      0.01s WALL (     280 calls)

     Parallel routines
     fft_scatter  :      1.36s CPU      1.82s WALL (  100709 calls)

     PWSCF        :    15.52s CPU        16.41s WALL


   This run was terminated on:  12:21:32  21Dec2017            

=------------------------------------------------------------------------------=
   JOB DONE.
=------------------------------------------------------------------------------=
