
     Program PWSCF v.6.1 (svn rev. 13369) starts on 14Feb2018 at 11:44: 5 

     This program is part of the open-source Quantum ESPRESSO suite
     for quantum simulation of materials; please cite
         "P. Giannozzi et al., J. Phys.:Condens. Matter 21 395502 (2009);
          URL http://www.quantum-espresso.org", 
     in publications or presentations arising from this work. More details at
     http://www.quantum-espresso.org/quote

     Parallel version (MPI), running on     4 processors
     R & G space division:  proc/nbgrp/npool/nimage =       4
     Waiting for input...
     Reading input from standard input

     Current dimensions of program PWSCF are:
     Max number of different atomic species (ntypx) = 10
     Max number of k-points (npk) =  80000
     Max angular momentum in pseudopotentials (lmaxx) =  3

     Subspace diagonalization in iterative solution of the eigenvalue problem:
     a serial algorithm will be used


     Parallelization info
     --------------------
     sticks:   dense  smooth     PW     G-vecs:    dense   smooth      PW
     Min         764     384    129                17454     6185    1193
     Max         765     385    130                17455     6186    1194
     Sum        3057    1539    517                69817    24741    4773



     bravais-lattice index     =            0
     lattice parameter (alat)  =      17.0000  a.u.
     unit-cell volume          =     724.2840 (a.u.)^3
     number of atoms/cell      =            3
     number of atomic types    =            1
     number of electrons       =        27.00
     number of Kohn-Sham states=           18
     kinetic-energy cutoff     =      40.0000  Ry
     charge density cutoff     =     320.0000  Ry
     convergence threshold     =      1.0E-10
     mixing beta               =       0.7000
     number of iterations used =            8  plain     mixing
     Exchange-correlation      = SLA  PW   PBE  PBE ( 1  4  3  4 0 0)

     celldm(1)=  17.000000  celldm(2)=   0.000000  celldm(3)=   0.000000
     celldm(4)=   0.000000  celldm(5)=   0.000000  celldm(6)=   0.000000

     crystal axes: (cart. coord. in units of alat)
               a(1) = (   0.387810   0.678487   0.678487 )  
               a(2) = (   0.678487   0.387810   0.678487 )  
               a(3) = (   0.678487   0.678487   0.387810 )  

     reciprocal axes: (cart. coord. in units 2 pi/alat)
               b(1) = ( -2.102453  1.337795  1.337795 )  
               b(2) = (  1.337795 -2.102453  1.337795 )  
               b(3) = (  1.337795  1.337795 -2.102453 )  


     PseudoPot. # 1 for Na read from file:
     /home/s1333534/quantum_espresso/qe-6.1/pseudo/Na_pbe_v1.uspp.F.UPF
     MD5 check sum: 76a99c7e9422403d3e93cbc85ab7bccb
     Pseudo is Ultrasoft, Zval =  9.0
     Generated by new atomic code, or converted to UPF format
     Using radial grid of  819 points,  5 beta functions with: 
                l(1) =   0
                l(2) =   0
                l(3) =   1
                l(4) =   1
                l(5) =   2
     Q(r) pseudized with  8 coefficients,  rinner =    1.250   1.250   1.250
                                                       1.250   1.250

     atomic species   valence    mass     pseudopotential
        Na             9.00    22.99000     Na( 1.00)

     12 Sym. Ops., with inversion, found



   Cartesian axes

     site n.     atom                  positions (alat units)
         1           Na  tau(   1) = (   1.2601225   1.2601225   1.2601225  )
         2           Na  tau(   2) = (   0.4846618   0.4846618   0.4846618  )
         3           Na  tau(   3) = (   0.8723922   0.8723922   0.8723922  )

     number of k points=   770  Marzari-Vanderbilt smearing, width (Ry)=  0.0200

     Number of k-points >= 100: set verbosity='high' to print them.

     Dense  grid:    69817 G-vectors     FFT dimensions: ( 108, 108, 108)

     Smooth grid:    24741 G-vectors     FFT dimensions: (  72,  72,  72)

     Estimated max dynamical RAM per process >     194.55MB

     Estimated total allocated dynamical RAM >     778.19MB

     Initial potential from superposition of free atoms

     starting charge   26.98113, renormalised to   27.00000
     Starting wfc are   15 randomized atomic wfcs +    3 random wfc

     total cpu time spent up to now is       81.4 secs

     per-process dynamical memory:   212.3 Mb

     Self-consistent Calculation

     iteration #  1     ecut=    40.00 Ry     beta=0.70
     Davidson diagonalization with overlap
     ethr =  1.00E-02,  avg # of iterations =  5.7

     Threshold (ethr) on eigenvalues was too large:
     Diagonalizing with lowered threshold

     Davidson diagonalization with overlap
     c_bands:  1 eigenvalues not converged
     c_bands:  1 eigenvalues not converged
     c_bands:  1 eigenvalues not converged
     c_bands:  1 eigenvalues not converged
     ethr =  9.28E-06,  avg # of iterations =  7.7

     total cpu time spent up to now is      699.2 secs

     total energy              =    -285.31921163 Ry
     Harris-Foulkes estimate   =    -285.31986098 Ry
     estimated scf accuracy    <       0.00262712 Ry

     iteration #  2     ecut=    40.00 Ry     beta=0.70
     Davidson diagonalization with overlap
     ethr =  9.73E-06,  avg # of iterations =  2.0

     total cpu time spent up to now is      959.1 secs

     total energy              =    -285.31948998 Ry
     Harris-Foulkes estimate   =    -285.31954595 Ry
     estimated scf accuracy    <       0.00027598 Ry

     iteration #  3     ecut=    40.00 Ry     beta=0.70
     Davidson diagonalization with overlap
     ethr =  1.02E-06,  avg # of iterations =  2.0

     total cpu time spent up to now is     1228.5 secs

     total energy              =    -285.31951686 Ry
     Harris-Foulkes estimate   =    -285.31952065 Ry
     estimated scf accuracy    <       0.00001720 Ry

     iteration #  4     ecut=    40.00 Ry     beta=0.70
     Davidson diagonalization with overlap
     ethr =  6.37E-08,  avg # of iterations =  2.0

     total cpu time spent up to now is     1473.0 secs

     total energy              =    -285.31951855 Ry
     Harris-Foulkes estimate   =    -285.31951884 Ry
     estimated scf accuracy    <       0.00000108 Ry

     iteration #  5     ecut=    40.00 Ry     beta=0.70
     Davidson diagonalization with overlap
     ethr =  4.00E-09,  avg # of iterations =  2.1

     total cpu time spent up to now is     1715.8 secs

     total energy              =    -285.31951887 Ry
     Harris-Foulkes estimate   =    -285.31951890 Ry
     estimated scf accuracy    <       0.00000020 Ry

     iteration #  6     ecut=    40.00 Ry     beta=0.70
     Davidson diagonalization with overlap
     ethr =  7.27E-10,  avg # of iterations =  1.5

     total cpu time spent up to now is     1941.0 secs

     total energy              =    -285.31951889 Ry
     Harris-Foulkes estimate   =    -285.31951889 Ry
     estimated scf accuracy    <          4.0E-10 Ry

     iteration #  7     ecut=    40.00 Ry     beta=0.70
     Davidson diagonalization with overlap
     ethr =  1.49E-12,  avg # of iterations =  3.4

     total cpu time spent up to now is     2226.5 secs

     End of self-consistent calculation

     Number of k-points >= 100: set verbosity='high' to print the bands.

     the Fermi energy is     1.7558 ev

!    total energy              =    -285.31951889 Ry
     Harris-Foulkes estimate   =    -285.31951889 Ry
     estimated scf accuracy    <          2.9E-11 Ry

     The total energy is the sum of the following terms:

     one-electron contribution =    -262.11221489 Ry
     hartree contribution      =     132.32471190 Ry
     xc contribution           =     -42.81942700 Ry
     ewald contribution        =    -112.71245820 Ry
     smearing contrib. (-TS)   =      -0.00013069 Ry

     convergence has been achieved in   7 iterations

     Writing output data file na.9r.save

     init_run     :     79.80s CPU     81.34s WALL (       1 calls)
     electrons    :   2117.34s CPU   2145.34s WALL (       1 calls)

     Called by init_run:
     wfcinit      :     78.89s CPU     80.38s WALL (       1 calls)
     potinit      :      0.40s CPU      0.42s WALL (       1 calls)

     Called by electrons:
     c_bands      :   1645.17s CPU   1668.47s WALL (       8 calls)
     sum_band     :    469.38s CPU    473.84s WALL (       8 calls)
     v_of_rho     :      2.28s CPU      2.32s WALL (       8 calls)
     newd         :      0.46s CPU      0.47s WALL (       8 calls)
     mix_rho      :      0.20s CPU      0.20s WALL (       8 calls)

     Called by c_bands:
     init_us_2    :      6.47s CPU      6.59s WALL (   13090 calls)
     cegterg      :   1634.83s CPU   1657.93s WALL (    6160 calls)

     Called by sum_band:
     sum_band:bec :      0.10s CPU      0.10s WALL (    6160 calls)
     addusdens    :      0.59s CPU      0.60s WALL (       8 calls)

     Called by *egterg:
     h_psi        :   1657.70s CPU   1681.35s WALL (   27255 calls)
     s_psi        :      4.94s CPU      5.04s WALL (   27255 calls)
     g_psi        :      1.09s CPU      1.11s WALL (   20325 calls)
     cdiaghg      :     16.61s CPU     16.92s WALL (   25715 calls)

     Called by h_psi:
     h_psi:pot    :   1654.68s CPU   1678.26s WALL (   27255 calls)
     h_psi:calbec :     10.23s CPU     10.58s WALL (   27255 calls)
     vloc_psi     :   1636.27s CPU   1659.23s WALL (   27255 calls)
     add_vuspsi   :      8.00s CPU      8.30s WALL (   27255 calls)

     General routines
     calbec       :     13.10s CPU     13.49s WALL (   33415 calls)
     fft          :      1.28s CPU      1.33s WALL (     127 calls)
     ffts         :      0.04s CPU      0.04s WALL (      16 calls)
     fftw         :   1206.72s CPU   1224.00s WALL (  701104 calls)
     interpolate  :      0.27s CPU      0.28s WALL (      16 calls)
     davcio       :      0.02s CPU      0.05s WALL (     770 calls)

     Parallel routines
     fft_scatter  :    274.18s CPU    282.26s WALL (  701247 calls)

     PWSCF        : 36m38.23s CPU    37m34.20s WALL


   This run was terminated on:  12:21:40  14Feb2018            

=------------------------------------------------------------------------------=
   JOB DONE.
=------------------------------------------------------------------------------=
