
     Program PWSCF v.6.1 (svn rev. 13369) starts on 31Jan2018 at 11: 2:55 

     This program is part of the open-source Quantum ESPRESSO suite
     for quantum simulation of materials; please cite
         "P. Giannozzi et al., J. Phys.:Condens. Matter 21 395502 (2009);
          URL http://www.quantum-espresso.org", 
     in publications or presentations arising from this work. More details at
     http://www.quantum-espresso.org/quote

     Parallel version (MPI), running on    64 processors
     K-points division:     npool     =       4
     R & G space division:  proc/nbgrp/npool/nimage =      16
     Waiting for input...
     Reading input from standard input

     Current dimensions of program PWSCF are:
     Max number of different atomic species (ntypx) = 10
     Max number of k-points (npk) =  80000
     Max angular momentum in pseudopotentials (lmaxx) =  3

     Subspace diagonalization in iterative solution of the eigenvalue problem:
     a serial algorithm will be used


     Parallelization info
     --------------------
     sticks:   dense  smooth     PW     G-vecs:    dense   smooth      PW
     Min          72      36     12                 1642      584     112
     Max          73      37     13                 1646      588     114
     Sum        1159     583    199                26301     9377    1807



     bravais-lattice index     =            2
     lattice parameter (alat)  =      10.2800  a.u.
     unit-cell volume          =     271.5935 (a.u.)^3
     number of atoms/cell      =            1
     number of atomic types    =            1
     number of electrons       =         9.00
     number of Kohn-Sham states=            9
     kinetic-energy cutoff     =      40.0000  Ry
     charge density cutoff     =     320.0000  Ry
     convergence threshold     =      1.0E-10
     mixing beta               =       0.7000
     number of iterations used =            8  plain     mixing
     Exchange-correlation      = SLA  PW   PBE  PBE ( 1  4  3  4 0 0)

     celldm(1)=  10.280000  celldm(2)=   0.000000  celldm(3)=   0.000000
     celldm(4)=   0.000000  celldm(5)=   0.000000  celldm(6)=   0.000000

     crystal axes: (cart. coord. in units of alat)
               a(1) = (  -0.500000   0.000000   0.500000 )  
               a(2) = (   0.000000   0.500000   0.500000 )  
               a(3) = (  -0.500000   0.500000   0.000000 )  

     reciprocal axes: (cart. coord. in units 2 pi/alat)
               b(1) = ( -1.000000 -1.000000  1.000000 )  
               b(2) = (  1.000000  1.000000  1.000000 )  
               b(3) = ( -1.000000  1.000000 -1.000000 )  


     PseudoPot. # 1 for Na read from file:
     /home/s1333534/quantum_espresso/qe-6.1/pseudo/Na_pbe_v1.uspp.F.UPF
     MD5 check sum: 76a99c7e9422403d3e93cbc85ab7bccb
     Pseudo is Ultrasoft, Zval =  9.0
     Generated by new atomic code, or converted to UPF format
     Using radial grid of  819 points,  5 beta functions with: 
                l(1) =   0
                l(2) =   0
                l(3) =   1
                l(4) =   1
                l(5) =   2
     Q(r) pseudized with  8 coefficients,  rinner =    1.250   1.250   1.250
                                                       1.250   1.250

     atomic species   valence    mass     pseudopotential
        Na             9.00    22.99000     Na( 1.00)

     48 Sym. Ops., with inversion, found



   Cartesian axes

     site n.     atom                  positions (alat units)
         1           Na  tau(   1) = (   0.0000000   0.0000000   0.0000000  )

     number of k points=   770  Marzari-Vanderbilt smearing, width (Ry)=  0.0200

     Number of k-points >= 100: set verbosity='high' to print them.

     Dense  grid:    26301 G-vectors     FFT dimensions: (  45,  45,  45)

     Smooth grid:     9377 G-vectors     FFT dimensions: (  30,  30,  30)

     Estimated max dynamical RAM per process >       3.12MB

     Estimated total allocated dynamical RAM >     199.69MB

     Initial potential from superposition of free atoms

     starting charge    8.99371, renormalised to    9.00000
     Starting wfc are    5 randomized atomic wfcs +    4 random wfc

     total cpu time spent up to now is        1.1 secs

     per-process dynamical memory:     9.6 Mb

     Self-consistent Calculation

     iteration #  1     ecut=    40.00 Ry     beta=0.70
     Davidson diagonalization with overlap
     ethr =  1.00E-02,  avg # of iterations =  5.5

     Threshold (ethr) on eigenvalues was too large:
     Diagonalizing with lowered threshold

     Davidson diagonalization with overlap
     ethr =  9.66E-06,  avg # of iterations =  4.3

     total cpu time spent up to now is        9.3 secs

     total energy              =     -95.10605813 Ry
     Harris-Foulkes estimate   =     -95.10621003 Ry
     estimated scf accuracy    <       0.00086914 Ry

     iteration #  2     ecut=    40.00 Ry     beta=0.70
     Davidson diagonalization with overlap
     ethr =  9.66E-06,  avg # of iterations =  1.9

     total cpu time spent up to now is       12.0 secs

     total energy              =     -95.10614935 Ry
     Harris-Foulkes estimate   =     -95.10616733 Ry
     estimated scf accuracy    <       0.00009413 Ry

     iteration #  3     ecut=    40.00 Ry     beta=0.70
     Davidson diagonalization with overlap
     ethr =  1.05E-06,  avg # of iterations =  2.1

     total cpu time spent up to now is       14.4 secs

     total energy              =     -95.10616153 Ry
     Harris-Foulkes estimate   =     -95.10616228 Ry
     estimated scf accuracy    <       0.00000555 Ry

     iteration #  4     ecut=    40.00 Ry     beta=0.70
     Davidson diagonalization with overlap
     ethr =  6.16E-08,  avg # of iterations =  1.0

     total cpu time spent up to now is       16.4 secs

     total energy              =     -95.10616207 Ry
     Harris-Foulkes estimate   =     -95.10616202 Ry
     estimated scf accuracy    <       0.00000002 Ry

     iteration #  5     ecut=    40.00 Ry     beta=0.70
     Davidson diagonalization with overlap
     ethr =  1.81E-10,  avg # of iterations =  3.0

     total cpu time spent up to now is       19.5 secs

     total energy              =     -95.10616210 Ry
     Harris-Foulkes estimate   =     -95.10616210 Ry
     estimated scf accuracy    <          1.6E-09 Ry

     iteration #  6     ecut=    40.00 Ry     beta=0.70
     Davidson diagonalization with overlap
     ethr =  1.74E-11,  avg # of iterations =  1.6

     total cpu time spent up to now is       21.6 secs

     End of self-consistent calculation

     Number of k-points >= 100: set verbosity='high' to print the bands.

     the Fermi energy is     1.2769 ev

!    total energy              =     -95.10616210 Ry
     Harris-Foulkes estimate   =     -95.10616210 Ry
     estimated scf accuracy    <          6.1E-12 Ry

     The total energy is the sum of the following terms:

     one-electron contribution =     -89.91010630 Ry
     hartree contribution      =      45.18809789 Ry
     xc contribution           =     -14.25824431 Ry
     ewald contribution        =     -36.12585876 Ry
     smearing contrib. (-TS)   =      -0.00005064 Ry

     convergence has been achieved in   6 iterations


     Computing stress (Cartesian axis) and pressure

          total   stress  (Ry/bohr**3)                   (kbar)     P=   -8.02
  -0.00005454   0.00000000   0.00000000         -8.02      0.00      0.00
   0.00000000  -0.00005454   0.00000000          0.00     -8.02      0.00
   0.00000000   0.00000000  -0.00005454          0.00      0.00     -8.02


     Writing output data file na.fcc.save

     init_run     :      0.84s CPU      0.91s WALL (       1 calls)
     electrons    :     19.31s CPU     20.57s WALL (       1 calls)
     stress       :      0.45s CPU      0.46s WALL (       1 calls)

     Called by init_run:
     wfcinit      :      0.64s CPU      0.69s WALL (       1 calls)
     potinit      :      0.03s CPU      0.03s WALL (       1 calls)

     Called by electrons:
     c_bands      :     16.62s CPU     17.78s WALL (       7 calls)
     sum_band     :      2.51s CPU      2.60s WALL (       7 calls)
     v_of_rho     :      0.09s CPU      0.09s WALL (       7 calls)
     newd         :      0.08s CPU      0.08s WALL (       7 calls)
     mix_rho      :      0.01s CPU      0.01s WALL (       7 calls)

     Called by c_bands:
     init_us_2    :      0.26s CPU      0.27s WALL (    3088 calls)
     cegterg      :     14.44s CPU     15.54s WALL (    1351 calls)

     Called by sum_band:
     sum_band:bec :      0.02s CPU      0.02s WALL (    1351 calls)
     addusdens    :      0.09s CPU      0.09s WALL (       7 calls)

     Called by *egterg:
     h_psi        :     10.89s CPU     11.58s WALL (    5433 calls)
     s_psi        :      0.12s CPU      0.12s WALL (    5433 calls)
     g_psi        :      0.03s CPU      0.04s WALL (    3889 calls)
     cdiaghg      :      2.32s CPU      2.54s WALL (    5047 calls)

     Called by h_psi:
     h_psi:pot    :     10.85s CPU     11.53s WALL (    5433 calls)
     h_psi:calbec :      0.44s CPU      0.47s WALL (    5433 calls)
     vloc_psi     :     10.23s CPU     10.88s WALL (    5433 calls)
     add_vuspsi   :      0.12s CPU      0.13s WALL (    5433 calls)

     General routines
     calbec       :      0.59s CPU      0.62s WALL (    6977 calls)
     fft          :      0.09s CPU      0.09s WALL (     117 calls)
     ffts         :      0.01s CPU      0.01s WALL (      14 calls)
     fftw         :     11.02s CPU     11.68s WALL (   79157 calls)
     interpolate  :      0.02s CPU      0.02s WALL (      14 calls)
     davcio       :      0.01s CPU      0.09s WALL (     193 calls)

     Parallel routines
     fft_scatter  :      5.40s CPU      5.80s WALL (   79288 calls)

     PWSCF        :    23.60s CPU        25.23s WALL


   This run was terminated on:  11: 3:21  31Jan2018            

=------------------------------------------------------------------------------=
   JOB DONE.
=------------------------------------------------------------------------------=
